 Entering Gaussian System, Link 0=/opt/cluster/programs/g09_d.01/g09//g09
 Input=/home/unibas/boittier/RDKit_G2/N.pdb/SCAN_1_2_6_8_S_17_20.0/12_SCAN_1_2_6_8_F/12_SCAN_N.pdb.com
 Output=/scratch/boittier/12_SCAN_N.pdb/12_SCAN_N.pdb.out
 Initial command:
 /opt/cluster/programs/g09_d.01/g09/l1.exe "/scratch/boittier/12_SCAN_N.pdb/Gau-149471.inp" -scrdir="/scratch/boittier/12_SCAN_N.pdb/"
 Entering Link 1 = /opt/cluster/programs/g09_d.01/g09/l1.exe PID=    149473.
  
 Copyright (c) 1988,1990,1992,1993,1995,1998,2003,2009,2013,
            Gaussian, Inc.  All Rights Reserved.
  
 This is part of the Gaussian(R) 09 program.  It is based on
 the Gaussian(R) 03 system (copyright 2003, Gaussian, Inc.),
 the Gaussian(R) 98 system (copyright 1998, Gaussian, Inc.),
 the Gaussian(R) 94 system (copyright 1995, Gaussian, Inc.),
 the Gaussian 92(TM) system (copyright 1992, Gaussian, Inc.),
 the Gaussian 90(TM) system (copyright 1990, Gaussian, Inc.),
 the Gaussian 88(TM) system (copyright 1988, Gaussian, Inc.),
 the Gaussian 86(TM) system (copyright 1986, Carnegie Mellon
 University), and the Gaussian 82(TM) system (copyright 1983,
 Carnegie Mellon University). Gaussian is a federally registered
 trademark of Gaussian, Inc.
  
 This software contains proprietary and confidential information,
 including trade secrets, belonging to Gaussian, Inc.
  
 This software is provided under written license and may be
 used, copied, transmitted, or stored only in accord with that
 written license.
  
 The following legend is applicable only to US Government
 contracts under FAR:
  
                    RESTRICTED RIGHTS LEGEND
  
 Use, reproduction and disclosure by the US Government is
 subject to restrictions as set forth in subparagraphs (a)
 and (c) of the Commercial Computer Software - Restricted
 Rights clause in FAR 52.227-19.
  
 Gaussian, Inc.
 340 Quinnipiac St., Bldg. 40, Wallingford CT 06492
  
  
 ---------------------------------------------------------------
 Warning -- This program may not be used in any manner that
 competes with the business of Gaussian, Inc. or will provide
 assistance to any competitor of Gaussian, Inc.  The licensee
 of this program is prohibited from giving any competitor of
 Gaussian, Inc. access to this program.  By using this program,
 the user acknowledges that Gaussian, Inc. is engaged in the
 business of creating and licensing software in the field of
 computational chemistry and represents and warrants to the
 licensee that it is not a competitor of Gaussian, Inc. and that
 it will not use this program in any manner prohibited above.
 ---------------------------------------------------------------
  

 Cite this work as:
 Gaussian 09, Revision D.01,
 M. J. Frisch, G. W. Trucks, H. B. Schlegel, G. E. Scuseria, 
 M. A. Robb, J. R. Cheeseman, G. Scalmani, V. Barone, B. Mennucci, 
 G. A. Petersson, H. Nakatsuji, M. Caricato, X. Li, H. P. Hratchian, 
 A. F. Izmaylov, J. Bloino, G. Zheng, J. L. Sonnenberg, M. Hada, 
 M. Ehara, K. Toyota, R. Fukuda, J. Hasegawa, M. Ishida, T. Nakajima, 
 Y. Honda, O. Kitao, H. Nakai, T. Vreven, J. A. Montgomery, Jr., 
 J. E. Peralta, F. Ogliaro, M. Bearpark, J. J. Heyd, E. Brothers, 
 K. N. Kudin, V. N. Staroverov, T. Keith, R. Kobayashi, J. Normand, 
 K. Raghavachari, A. Rendell, J. C. Burant, S. S. Iyengar, J. Tomasi, 
 M. Cossi, N. Rega, J. M. Millam, M. Klene, J. E. Knox, J. B. Cross, 
 V. Bakken, C. Adamo, J. Jaramillo, R. Gomperts, R. E. Stratmann, 
 O. Yazyev, A. J. Austin, R. Cammi, C. Pomelli, J. W. Ochterski, 
 R. L. Martin, K. Morokuma, V. G. Zakrzewski, G. A. Voth, 
 P. Salvador, J. J. Dannenberg, S. Dapprich, A. D. Daniels, 
 O. Farkas, J. B. Foresman, J. V. Ortiz, J. Cioslowski, 
 and D. J. Fox, Gaussian, Inc., Wallingford CT, 2013.
 
 ******************************************
 Gaussian 09:  ES64L-G09RevD.01 24-Apr-2013
                26-May-2021 
 ******************************************
 %chk=/home/unibas/boittier/RDKit_G2/N.pdb/SCAN_1_2_6_8_S_17_20.0/12_SCAN_1_2_6_8
 _F/N.pdb.chk
 %nproc=8
 Will use up to    8 processors via shared memory.
 %mem=16GB
 -----------------------------
 #p wB97XD/6-31+G Opt=ModRedun
 -----------------------------
 1/14=-1,18=120,19=15,26=3,38=1/1,3;
 2/9=110,12=2,17=6,18=5,40=1/2;
 3/5=1,6=6,7=10,11=2,16=1,25=1,30=1,71=1,74=-58/1,2,3;
 4//1;
 5/5=2,38=5/2;
 6/7=2,8=2,9=2,10=2,28=1/1;
 7//1,2,3,16;
 1/14=-1,18=20,19=15,26=3/3(2);
 2/9=110/2;
 99//99;
 2/9=110/2;
 3/5=1,6=6,7=10,11=2,16=1,25=1,30=1,71=1,74=-58/1,2,3;
 4/5=5,16=3,69=1/1;
 5/5=2,38=5/2;
 7//1,2,3,16;
 1/14=-1,18=20,19=15,26=3/3(-5);
 2/9=110/2;
 6/7=2,8=2,9=2,10=2,19=2,28=1/1;
 99/9=1/99;
 Leave Link    1 at Wed May 26 09:20:48 2021, MaxMem=  2147483648 cpu:         0.2
 (Enter /opt/cluster/programs/g09_d.01/g09/l101.exe)
 -----
 N.pdb
 -----
 Symbolic Z-matrix:
 Charge =  0 Multiplicity = 1
 C                     1.74058   1.25794  -0.03384 
 C                     1.53131  -0.22697  -0.09655 
 H                     1.42404   1.73766  -0.9656 
 H                     2.79547   1.46251   0.15113 
 H                     1.14273   1.69717   0.77242 
 C                     0.17361  -0.78319  -0.52816 
 O                     2.4378   -1.03198   0.13479 
 C                    -1.03619  -0.06627  -0.00452 
 H                     0.12122  -1.82539  -0.20611 
 H                     0.11917  -0.76643  -1.62306 
 F                    -0.99704   0.10169   1.37719 
 F                    -2.20077  -0.76747  -0.29343 
 F                    -1.19784   1.20592  -0.55361 
 
 The following ModRedundant input section has been read:
 D       1       2       6       8 F                                           
 
 NAtoms=     13 NQM=       13 NQMF=       0 NMMI=      0 NMMIF=      0
                NMic=       0 NMicF=      0.
                    Isotopes and Nuclear Properties:
 (Nuclear quadrupole moments (NQMom) in fm**2, nuclear magnetic moments (NMagM)
  in nuclear magnetons)

  Atom         1           2           3           4           5           6           7           8           9          10
 IAtWgt=          12          12           1           1           1          12          16          12           1           1
 AtmWgt=  12.0000000  12.0000000   1.0078250   1.0078250   1.0078250  12.0000000  15.9949146  12.0000000   1.0078250   1.0078250
 NucSpn=           0           0           1           1           1           0           0           0           1           1
 AtZEff=   0.0000000   0.0000000   0.0000000   0.0000000   0.0000000   0.0000000   0.0000000   0.0000000   0.0000000   0.0000000
 NQMom=    0.0000000   0.0000000   0.0000000   0.0000000   0.0000000   0.0000000   0.0000000   0.0000000   0.0000000   0.0000000
 NMagM=    0.0000000   0.0000000   2.7928460   2.7928460   2.7928460   0.0000000   0.0000000   0.0000000   2.7928460   2.7928460
 AtZNuc=   6.0000000   6.0000000   1.0000000   1.0000000   1.0000000   6.0000000   8.0000000   6.0000000   1.0000000   1.0000000

  Atom        11          12          13
 IAtWgt=          19          19          19
 AtmWgt=  18.9984033  18.9984033  18.9984033
 NucSpn=           1           1           1
 AtZEff=   0.0000000   0.0000000   0.0000000
 NQMom=    0.0000000   0.0000000   0.0000000
 NMagM=    2.6288670   2.6288670   2.6288670
 AtZNuc=   9.0000000   9.0000000   9.0000000
 Leave Link  101 at Wed May 26 09:20:48 2021, MaxMem=  2147483648 cpu:         4.2
 (Enter /opt/cluster/programs/g09_d.01/g09/l103.exe)

 GradGradGradGradGradGradGradGradGradGradGradGradGradGradGradGradGradGrad
 Berny optimization.
 Initialization pass.
                           ----------------------------
                           !    Initial Parameters    !
                           ! (Angstroms and Degrees)  !
 --------------------------                            --------------------------
 ! Name  Definition              Value          Derivative Info.                !
 --------------------------------------------------------------------------------
 ! R1    R(1,2)                  1.5009         estimate D2E/DX2                !
 ! R2    R(1,3)                  1.0948         estimate D2E/DX2                !
 ! R3    R(1,4)                  1.0903         estimate D2E/DX2                !
 ! R4    R(1,5)                  1.0956         estimate D2E/DX2                !
 ! R5    R(2,6)                  1.5294         estimate D2E/DX2                !
 ! R6    R(2,7)                  1.2342         estimate D2E/DX2                !
 ! R7    R(6,8)                  1.5006         estimate D2E/DX2                !
 ! R8    R(6,9)                  1.0921         estimate D2E/DX2                !
 ! R9    R(6,10)                 1.0964         estimate D2E/DX2                !
 ! R10   R(8,11)                 1.3924         estimate D2E/DX2                !
 ! R11   R(8,12)                 1.3897         estimate D2E/DX2                !
 ! R12   R(8,13)                 1.395          estimate D2E/DX2                !
 ! A1    A(2,1,3)              110.9561         estimate D2E/DX2                !
 ! A2    A(2,1,4)              109.1236         estimate D2E/DX2                !
 ! A3    A(2,1,5)              110.5665         estimate D2E/DX2                !
 ! A4    A(3,1,4)              109.9931         estimate D2E/DX2                !
 ! A5    A(3,1,5)              107.0296         estimate D2E/DX2                !
 ! A6    A(4,1,5)              109.1398         estimate D2E/DX2                !
 ! A7    A(1,2,6)              119.6956         estimate D2E/DX2                !
 ! A8    A(1,2,7)              122.3479         estimate D2E/DX2                !
 ! A9    A(6,2,7)              117.8849         estimate D2E/DX2                !
 ! A10   A(2,6,8)              116.3255         estimate D2E/DX2                !
 ! A11   A(2,6,9)              107.8453         estimate D2E/DX2                !
 ! A12   A(2,6,10)             108.6841         estimate D2E/DX2                !
 ! A13   A(8,6,9)              108.3216         estimate D2E/DX2                !
 ! A14   A(8,6,10)             107.5268         estimate D2E/DX2                !
 ! A15   A(9,6,10)             107.8608         estimate D2E/DX2                !
 ! A16   A(6,8,11)             112.4097         estimate D2E/DX2                !
 ! A17   A(6,8,12)             111.2222         estimate D2E/DX2                !
 ! A18   A(6,8,13)             113.0639         estimate D2E/DX2                !
 ! A19   A(11,8,12)            106.9009         estimate D2E/DX2                !
 ! A20   A(11,8,13)            106.4892         estimate D2E/DX2                !
 ! A21   A(12,8,13)            106.3316         estimate D2E/DX2                !
 ! D1    D(3,1,2,6)            -50.62           estimate D2E/DX2                !
 ! D2    D(3,1,2,7)            126.2354         estimate D2E/DX2                !
 ! D3    D(4,1,2,6)           -171.9727         estimate D2E/DX2                !
 ! D4    D(4,1,2,7)              4.8826         estimate D2E/DX2                !
 ! D5    D(5,1,2,6)             67.9777         estimate D2E/DX2                !
 ! D6    D(5,1,2,7)           -115.167          estimate D2E/DX2                !
 ! D7    D(1,2,6,8)            -40.2166         Frozen                          !
 ! D8    D(1,2,6,9)           -162.0696         estimate D2E/DX2                !
 ! D9    D(1,2,6,10)            81.2507         estimate D2E/DX2                !
 ! D10   D(7,2,6,8)            142.7889         estimate D2E/DX2                !
 ! D11   D(7,2,6,9)             20.9359         estimate D2E/DX2                !
 ! D12   D(7,2,6,10)           -95.7438         estimate D2E/DX2                !
 ! D13   D(2,6,8,11)           -51.3128         estimate D2E/DX2                !
 ! D14   D(2,6,8,12)          -171.1458         estimate D2E/DX2                !
 ! D15   D(2,6,8,13)            69.3029         estimate D2E/DX2                !
 ! D16   D(9,6,8,11)            70.2886         estimate D2E/DX2                !
 ! D17   D(9,6,8,12)           -49.5443         estimate D2E/DX2                !
 ! D18   D(9,6,8,13)          -169.0957         estimate D2E/DX2                !
 ! D19   D(10,6,8,11)         -173.391          estimate D2E/DX2                !
 ! D20   D(10,6,8,12)           66.776          estimate D2E/DX2                !
 ! D21   D(10,6,8,13)          -52.7754         estimate D2E/DX2                !
 --------------------------------------------------------------------------------
 Trust Radius=3.00D-01 FncErr=1.00D-07 GrdErr=1.00D-06
 Number of steps in this run=     64 maximum allowed number of steps=    100.
 GradGradGradGradGradGradGradGradGradGradGradGradGradGradGradGradGradGrad

 Leave Link  103 at Wed May 26 09:20:48 2021, MaxMem=  2147483648 cpu:         0.1
 (Enter /opt/cluster/programs/g09_d.01/g09/l202.exe)
                          Input orientation:                          
 ---------------------------------------------------------------------
 Center     Atomic      Atomic             Coordinates (Angstroms)
 Number     Number       Type             X           Y           Z
 ---------------------------------------------------------------------
      1          6           0        1.740580    1.257937   -0.033838
      2          6           0        1.531307   -0.226968   -0.096552
      3          1           0        1.424037    1.737663   -0.965602
      4          1           0        2.795474    1.462507    0.151129
      5          1           0        1.142730    1.697173    0.772415
      6          6           0        0.173609   -0.783194   -0.528161
      7          8           0        2.437796   -1.031978    0.134786
      8          6           0       -1.036192   -0.066269   -0.004515
      9          1           0        0.121215   -1.825385   -0.206112
     10          1           0        0.119170   -0.766434   -1.623058
     11          9           0       -0.997035    0.101687    1.377192
     12          9           0       -2.200771   -0.767471   -0.293434
     13          9           0       -1.197841    1.205924   -0.553609
 ---------------------------------------------------------------------
                    Distance matrix (angstroms):
                    1          2          3          4          5
     1  C    0.000000
     2  C    1.500890   0.000000
     3  H    1.094770   2.150937   0.000000
     4  H    1.090350   2.124568   1.789871   0.000000
     5  H    1.095626   2.146722   1.761101   1.781187   0.000000
     6  C    2.620299   1.529385   2.847744   3.518350   2.963598
     7  O    2.399636   1.234213   3.147931   2.520051   3.087399
     8  C    3.076499   2.574169   3.198529   4.128322   2.908788
     9  H    3.486961   2.134315   3.869041   4.253177   3.795975
    10  H    3.041820   2.148342   2.899212   3.908775   3.585432
    11  F    3.289750   2.944902   3.745222   4.211673   2.736773
    12  F    4.438909   3.776150   4.457212   5.489344   4.288298
    13  F    2.984491   3.116140   2.706793   4.063134   2.734582
                    6          7          8          9         10
     6  C    0.000000
     7  O    2.372327   0.000000
     8  C    1.500602   3.608406   0.000000
     9  H    1.092073   2.472297   2.115354   0.000000
    10  H    1.096378   2.921738   2.108263   1.768931   0.000000
    11  F    2.404952   3.824504   1.392428   2.733302   3.316783
    12  F    2.386006   4.665795   1.389749   2.553121   2.673953
    13  F    2.416219   4.324344   1.395030   3.324078   2.601622
                   11         12         13
    11  F    0.000000
    12  F    2.235041   0.000000
    13  F    2.233306   2.228867   0.000000
 Stoichiometry    C4H5F3O
 Framework group  C1[X(C4H5F3O)]
 Deg. of freedom    33
 Full point group                 C1      NOp   1
 Largest Abelian subgroup         C1      NOp   1
 Largest concise Abelian subgroup C1      NOp   1
                         Standard orientation:                         
 ---------------------------------------------------------------------
 Center     Atomic      Atomic             Coordinates (Angstroms)
 Number     Number       Type             X           Y           Z
 ---------------------------------------------------------------------
      1          6           0        1.740580    1.257937   -0.033838
      2          6           0        1.531307   -0.226968   -0.096552
      3          1           0        1.424037    1.737663   -0.965602
      4          1           0        2.795474    1.462507    0.151129
      5          1           0        1.142730    1.697173    0.772415
      6          6           0        0.173609   -0.783194   -0.528161
      7          8           0        2.437796   -1.031978    0.134786
      8          6           0       -1.036192   -0.066269   -0.004515
      9          1           0        0.121215   -1.825385   -0.206112
     10          1           0        0.119170   -0.766434   -1.623058
     11          9           0       -0.997035    0.101687    1.377192
     12          9           0       -2.200771   -0.767471   -0.293434
     13          9           0       -1.197841    1.205924   -0.553609
 ---------------------------------------------------------------------
 Rotational constants (GHZ):      3.4548927      1.3544315      1.2130994
 Leave Link  202 at Wed May 26 09:20:49 2021, MaxMem=  2147483648 cpu:         0.0
 (Enter /opt/cluster/programs/g09_d.01/g09/l301.exe)
 Standard basis: 6-31+G (6D, 7F)
 Ernie: Thresh=  0.10000D-02 Tol=  0.10000D-05 Strict=F.
 There are   114 symmetry adapted cartesian basis functions of A   symmetry.
 There are   114 symmetry adapted basis functions of A   symmetry.
   114 basis functions,   228 primitive gaussians,   114 cartesian basis functions
    32 alpha electrons       32 beta electrons
       nuclear repulsion energy       404.9500714756 Hartrees.
 IExCor= 4639 DFT=T Ex+Corr=wB97XD ExCW=0 ScaHFX=  1.000000
 ScaDFX=  1.000000  1.000000  1.000000  1.000000 ScalE2=  1.000000  1.000000
 IRadAn=      0 IRanWt=     -1 IRanGd=            0 ICorTp=0 IEmpDi=121
  HFx wShort=  0.000000 wLong=  0.200000 cFull=  0.222036 cShort=  0.000000 cLong=  0.777964
  DFx wShort=  0.000000 wLong=  0.200000 cFull=  0.000000 cShort=  0.000000 cLong=  1.000000
 NAtoms=   13 NActive=   13 NUniq=   13 SFac= 1.00D+00 NAtFMM=   60 NAOKFM=F Big=F
 Integral buffers will be    131072 words long.
 Raffenetti 2 integral format.
 Two-electron integral symmetry is turned on.
 R6Disp:  Grimme-D2 Dispersion energy=       -0.0062721371 Hartrees.
 Nuclear repulsion after empirical dispersion term =      404.9437993385 Hartrees.
 Leave Link  301 at Wed May 26 09:20:49 2021, MaxMem=  2147483648 cpu:         0.3
 (Enter /opt/cluster/programs/g09_d.01/g09/l302.exe)
 NPDir=0 NMtPBC=     1 NCelOv=     1 NCel=       1 NClECP=     1 NCelD=      1
         NCelK=      1 NCelE2=     1 NClLst=     1 CellRange=     0.0.
 One-electron integrals computed using PRISM.
 NBasis=   114 RedAO= T EigKep=  6.22D-05  NBF=   114
 NBsUse=   114 1.00D-06 EigRej= -1.00D+00 NBFU=   114
 Precomputing XC quadrature grid using
 IXCGrd= 4 IRadAn=           0 IRanWt=          -1 IRanGd=           0 AccXCQ= 0.00D+00.
 Generated NRdTot=       0 NPtTot=           0 NUsed=           0 NTot=          32
 NSgBfM=   114   114   114   114   114 MxSgAt=    13 MxSgA2=    13.
 Leave Link  302 at Wed May 26 09:20:49 2021, MaxMem=  2147483648 cpu:         1.0
 (Enter /opt/cluster/programs/g09_d.01/g09/l303.exe)
 DipDrv:  MaxL=1.
 Leave Link  303 at Wed May 26 09:20:49 2021, MaxMem=  2147483648 cpu:         0.3
 (Enter /opt/cluster/programs/g09_d.01/g09/l401.exe)
 ExpMin= 4.38D-02 ExpMax= 7.00D+03 ExpMxC= 1.05D+03 IAcc=2 IRadAn=         4 AccDes= 0.00D+00
 Harris functional with IExCor= 4639 and IRadAn=       4 diagonalized for initial guess.
 HarFok:  IExCor= 4639 AccDes= 0.00D+00 IRadAn=         4 IDoV= 1 UseB2=F ITyADJ=14
 ICtDFT=  3500011 ScaDFX=  1.000000  1.000000  1.000000  1.000000
 FoFCou: FMM=F IPFlag=           0 FMFlag=      100000 FMFlg1=           0
         NFxFlg=           0 DoJE=T BraDBF=F KetDBF=T FulRan=T
         wScrn=  0.000000 ICntrl=     500 IOpCl=  0 I1Cent=   200000004 NGrid=           0
         NMat0=    1 NMatS0=      1 NMatT0=    0 NMatD0=    1 NMtDS0=    0 NMtDT0=    0
 Petite list used in FoFCou.
 Harris En= -511.189845612389    
 JPrj=0 DoOrth=F DoCkMO=F.
 Leave Link  401 at Wed May 26 09:20:49 2021, MaxMem=  2147483648 cpu:         2.1
 (Enter /opt/cluster/programs/g09_d.01/g09/l502.exe)
 Closed shell SCF:
 Using DIIS extrapolation, IDIIS=  1040.
 Integral symmetry usage will be decided dynamically.
 Keep R1 ints in memory in canonical form, NReq=43969700.
 IVT=       59316 IEndB=       59316 NGot=  2147483648 MDV=  2104449753
 LenX=  2104449753 LenY=  2104436316
 Requested convergence on RMS density matrix=1.00D-08 within 128 cycles.
 Requested convergence on MAX density matrix=1.00D-06.
 Requested convergence on             energy=1.00D-06.
 No special actions if energy rises.
 FoFCou: FMM=F IPFlag=           0 FMFlag=           0 FMFlg1=           0
         NFxFlg=           0 DoJE=F BraDBF=F KetDBF=F FulRan=T
         wScrn=  0.000000 ICntrl=     600 IOpCl=  0 I1Cent=           0 NGrid=           0
         NMat0=    1 NMatS0=   6555 NMatT0=    0 NMatD0=    1 NMtDS0=    0 NMtDT0=    0
 Symmetry not used in FoFCou.

 Cycle   1  Pass 1  IDiag  1:
 E= -529.583424848959    
 DIIS: error= 7.53D-02 at cycle   1 NSaved=   1.
 NSaved= 1 IEnMin= 1 EnMin= -529.583424848959     IErMin= 1 ErrMin= 7.53D-02
 ErrMax= 7.53D-02  0.00D+00 EMaxC= 1.00D-01 BMatC= 5.31D-01 BMatP= 5.31D-01
 IDIUse=3 WtCom= 2.47D-01 WtEn= 7.53D-01
 Coeff-Com:  0.100D+01
 Coeff-En:   0.100D+01
 Coeff:      0.100D+01
 Gap=     0.415 Goal=   None    Shift=    0.000
 GapD=    0.415 DampG=2.000 DampE=0.500 DampFc=1.0000 IDamp=-1.
 RMSDP=2.15D-02 MaxDP=9.47D-01              OVMax= 1.33D-01

 Cycle   2  Pass 1  IDiag  1:
 E= -529.733319646383     Delta-E=       -0.149894797423 Rises=F Damp=F
 DIIS: error= 6.28D-02 at cycle   2 NSaved=   2.
 NSaved= 2 IEnMin= 2 EnMin= -529.733319646383     IErMin= 2 ErrMin= 6.28D-02
 ErrMax= 6.28D-02  0.00D+00 EMaxC= 1.00D-01 BMatC= 3.18D-01 BMatP= 5.31D-01
 IDIUse=3 WtCom= 3.72D-01 WtEn= 6.28D-01
 Coeff-Com:  0.431D+00 0.569D+00
 Coeff-En:   0.325D+00 0.675D+00
 Coeff:      0.364D+00 0.636D+00
 Gap=     0.536 Goal=   None    Shift=    0.000
 RMSDP=4.42D-03 MaxDP=9.89D-02 DE=-1.50D-01 OVMax= 5.33D-02

 Cycle   3  Pass 1  IDiag  1:
 E= -529.910023162003     Delta-E=       -0.176703515620 Rises=F Damp=F
 DIIS: error= 1.40D-02 at cycle   3 NSaved=   3.
 NSaved= 3 IEnMin= 3 EnMin= -529.910023162003     IErMin= 3 ErrMin= 1.40D-02
 ErrMax= 1.40D-02  0.00D+00 EMaxC= 1.00D-01 BMatC= 2.60D-02 BMatP= 3.18D-01
 IDIUse=3 WtCom= 8.60D-01 WtEn= 1.40D-01
 Coeff-Com:  0.966D-01 0.266D+00 0.638D+00
 Coeff-En:   0.000D+00 0.000D+00 0.100D+01
 Coeff:      0.831D-01 0.228D+00 0.688D+00
 Gap=     0.389 Goal=   None    Shift=    0.000
 RMSDP=4.00D-03 MaxDP=1.54D-01 DE=-1.77D-01 OVMax= 3.51D-02

 Cycle   4  Pass 1  IDiag  1:
 E= -529.924944229204     Delta-E=       -0.014921067201 Rises=F Damp=F
 DIIS: error= 4.33D-03 at cycle   4 NSaved=   4.
 NSaved= 4 IEnMin= 4 EnMin= -529.924944229204     IErMin= 4 ErrMin= 4.33D-03
 ErrMax= 4.33D-03  0.00D+00 EMaxC= 1.00D-01 BMatC= 3.90D-03 BMatP= 2.60D-02
 IDIUse=3 WtCom= 9.57D-01 WtEn= 4.33D-02
 Coeff-Com: -0.656D-02 0.228D-01 0.324D+00 0.659D+00
 Coeff-En:   0.000D+00 0.000D+00 0.954D-01 0.905D+00
 Coeff:     -0.627D-02 0.218D-01 0.315D+00 0.670D+00
 Gap=     0.380 Goal=   None    Shift=    0.000
 RMSDP=8.38D-04 MaxDP=1.36D-02 DE=-1.49D-02 OVMax= 1.64D-02

 Cycle   5  Pass 1  IDiag  1:
 E= -529.927670245456     Delta-E=       -0.002726016252 Rises=F Damp=F
 DIIS: error= 1.13D-03 at cycle   5 NSaved=   5.
 NSaved= 5 IEnMin= 5 EnMin= -529.927670245456     IErMin= 5 ErrMin= 1.13D-03
 ErrMax= 1.13D-03  0.00D+00 EMaxC= 1.00D-01 BMatC= 2.71D-04 BMatP= 3.90D-03
 IDIUse=3 WtCom= 9.89D-01 WtEn= 1.13D-02
 Coeff-Com: -0.908D-02-0.219D-02 0.153D+00 0.387D+00 0.471D+00
 Coeff-En:   0.000D+00 0.000D+00 0.000D+00 0.000D+00 0.100D+01
 Coeff:     -0.898D-02-0.216D-02 0.151D+00 0.383D+00 0.477D+00
 Gap=     0.383 Goal=   None    Shift=    0.000
 RMSDP=6.57D-04 MaxDP=2.48D-02 DE=-2.73D-03 OVMax= 4.84D-03

 Cycle   6  Pass 1  IDiag  1:
 E= -529.927867706767     Delta-E=       -0.000197461311 Rises=F Damp=F
 DIIS: error= 2.13D-04 at cycle   6 NSaved=   6.
 NSaved= 6 IEnMin= 6 EnMin= -529.927867706767     IErMin= 6 ErrMin= 2.13D-04
 ErrMax= 2.13D-04  0.00D+00 EMaxC= 1.00D-01 BMatC= 5.97D-06 BMatP= 2.71D-04
 IDIUse=3 WtCom= 9.98D-01 WtEn= 2.13D-03
 Coeff-Com: -0.862D-03-0.435D-02-0.112D-01-0.771D-02 0.105D+00 0.919D+00
 Coeff-En:   0.000D+00 0.000D+00 0.000D+00 0.000D+00 0.000D+00 0.100D+01
 Coeff:     -0.860D-03-0.434D-02-0.112D-01-0.769D-02 0.105D+00 0.919D+00
 Gap=     0.383 Goal=   None    Shift=    0.000
 RMSDP=1.84D-04 MaxDP=7.57D-03 DE=-1.97D-04 OVMax= 1.28D-03

 Cycle   7  Pass 1  IDiag  1:
 E= -529.927874943649     Delta-E=       -0.000007236882 Rises=F Damp=F
 DIIS: error= 5.70D-05 at cycle   7 NSaved=   7.
 NSaved= 7 IEnMin= 7 EnMin= -529.927874943649     IErMin= 7 ErrMin= 5.70D-05
 ErrMax= 5.70D-05  0.00D+00 EMaxC= 1.00D-01 BMatC= 5.63D-07 BMatP= 5.97D-06
 IDIUse=1 WtCom= 1.00D+00 WtEn= 0.00D+00
 Coeff-Com:  0.416D-03-0.157D-02-0.170D-01-0.340D-01-0.762D-02 0.318D+00
 Coeff-Com:  0.742D+00
 Coeff:      0.416D-03-0.157D-02-0.170D-01-0.340D-01-0.762D-02 0.318D+00
 Coeff:      0.742D+00
 Gap=     0.383 Goal=   None    Shift=    0.000
 RMSDP=5.62D-05 MaxDP=2.11D-03 DE=-7.24D-06 OVMax= 2.63D-04

 Cycle   8  Pass 1  IDiag  1:
 E= -529.927875664277     Delta-E=       -0.000000720628 Rises=F Damp=F
 DIIS: error= 1.13D-05 at cycle   8 NSaved=   8.
 NSaved= 8 IEnMin= 8 EnMin= -529.927875664277     IErMin= 8 ErrMin= 1.13D-05
 ErrMax= 1.13D-05  0.00D+00 EMaxC= 1.00D-01 BMatC= 1.80D-08 BMatP= 5.63D-07
 IDIUse=1 WtCom= 1.00D+00 WtEn= 0.00D+00
 Coeff-Com:  0.665D-04 0.149D-03-0.360D-03-0.121D-02-0.975D-02-0.343D-01
 Coeff-Com:  0.557D-01 0.990D+00
 Coeff:      0.665D-04 0.149D-03-0.360D-03-0.121D-02-0.975D-02-0.343D-01
 Coeff:      0.557D-01 0.990D+00
 Gap=     0.383 Goal=   None    Shift=    0.000
 RMSDP=1.27D-05 MaxDP=4.27D-04 DE=-7.21D-07 OVMax= 1.09D-04

 Cycle   9  Pass 1  IDiag  1:
 E= -529.927875698043     Delta-E=       -0.000000033765 Rises=F Damp=F
 DIIS: error= 5.79D-06 at cycle   9 NSaved=   9.
 NSaved= 9 IEnMin= 9 EnMin= -529.927875698043     IErMin= 9 ErrMin= 5.79D-06
 ErrMax= 5.79D-06  0.00D+00 EMaxC= 1.00D-01 BMatC= 5.93D-09 BMatP= 1.80D-08
 IDIUse=1 WtCom= 1.00D+00 WtEn= 0.00D+00
 Coeff-Com:  0.289D-06 0.199D-03 0.116D-02 0.216D-02-0.457D-02-0.408D-01
 Coeff-Com: -0.288D-01 0.475D+00 0.596D+00
 Coeff:      0.289D-06 0.199D-03 0.116D-02 0.216D-02-0.457D-02-0.408D-01
 Coeff:     -0.288D-01 0.475D+00 0.596D+00
 Gap=     0.383 Goal=   None    Shift=    0.000
 RMSDP=2.15D-06 MaxDP=6.09D-05 DE=-3.38D-08 OVMax= 3.37D-05

 Cycle  10  Pass 1  IDiag  1:
 E= -529.927875703962     Delta-E=       -0.000000005920 Rises=F Damp=F
 DIIS: error= 3.10D-06 at cycle  10 NSaved=  10.
 NSaved=10 IEnMin=10 EnMin= -529.927875703962     IErMin=10 ErrMin= 3.10D-06
 ErrMax= 3.10D-06  0.00D+00 EMaxC= 1.00D-01 BMatC= 4.93D-10 BMatP= 5.93D-09
 IDIUse=1 WtCom= 1.00D+00 WtEn= 0.00D+00
 Coeff-Com: -0.128D-04 0.259D-04 0.398D-03 0.906D-03 0.538D-03-0.304D-02
 Coeff-Com: -0.179D-01-0.817D-01 0.134D+00 0.967D+00
 Coeff:     -0.128D-04 0.259D-04 0.398D-03 0.906D-03 0.538D-03-0.304D-02
 Coeff:     -0.179D-01-0.817D-01 0.134D+00 0.967D+00
 Gap=     0.383 Goal=   None    Shift=    0.000
 RMSDP=1.29D-06 MaxDP=2.54D-05 DE=-5.92D-09 OVMax= 3.38D-05

 Cycle  11  Pass 1  IDiag  1:
 E= -529.927875705471     Delta-E=       -0.000000001509 Rises=F Damp=F
 DIIS: error= 1.34D-06 at cycle  11 NSaved=  11.
 NSaved=11 IEnMin=11 EnMin= -529.927875705471     IErMin=11 ErrMin= 1.34D-06
 ErrMax= 1.34D-06  0.00D+00 EMaxC= 1.00D-01 BMatC= 4.75D-11 BMatP= 4.93D-10
 IDIUse=1 WtCom= 1.00D+00 WtEn= 0.00D+00
 Coeff-Com:  0.560D-06-0.185D-04-0.113D-03-0.201D-03 0.419D-03 0.426D-02
 Coeff-Com:  0.196D-02-0.542D-01-0.519D-01 0.325D-01 0.107D+01
 Coeff:      0.560D-06-0.185D-04-0.113D-03-0.201D-03 0.419D-03 0.426D-02
 Coeff:      0.196D-02-0.542D-01-0.519D-01 0.325D-01 0.107D+01
 Gap=     0.383 Goal=   None    Shift=    0.000
 RMSDP=4.60D-07 MaxDP=9.71D-06 DE=-1.51D-09 OVMax= 1.81D-05

 Cycle  12  Pass 1  IDiag  1:
 E= -529.927875705763     Delta-E=       -0.000000000292 Rises=F Damp=F
 DIIS: error= 5.58D-07 at cycle  12 NSaved=  12.
 NSaved=12 IEnMin=12 EnMin= -529.927875705763     IErMin=12 ErrMin= 5.58D-07
 ErrMax= 5.58D-07  0.00D+00 EMaxC= 1.00D-01 BMatC= 1.06D-11 BMatP= 4.75D-11
 IDIUse=1 WtCom= 1.00D+00 WtEn= 0.00D+00
 Coeff-Com:  0.187D-05-0.866D-05-0.885D-04-0.191D-03-0.746D-05 0.117D-02
 Coeff-Com:  0.344D-02 0.777D-02-0.311D-01-0.189D+00 0.208D+00 0.999D+00
 Coeff:      0.187D-05-0.866D-05-0.885D-04-0.191D-03-0.746D-05 0.117D-02
 Coeff:      0.344D-02 0.777D-02-0.311D-01-0.189D+00 0.208D+00 0.999D+00
 Gap=     0.383 Goal=   None    Shift=    0.000
 RMSDP=2.12D-07 MaxDP=4.96D-06 DE=-2.92D-10 OVMax= 9.33D-06

 Cycle  13  Pass 1  IDiag  1:
 E= -529.927875705825     Delta-E=       -0.000000000062 Rises=F Damp=F
 DIIS: error= 1.68D-07 at cycle  13 NSaved=  13.
 NSaved=13 IEnMin=13 EnMin= -529.927875705825     IErMin=13 ErrMin= 1.68D-07
 ErrMax= 1.68D-07  0.00D+00 EMaxC= 1.00D-01 BMatC= 1.10D-12 BMatP= 1.06D-11
 IDIUse=1 WtCom= 1.00D+00 WtEn= 0.00D+00
 Coeff-Com: -0.239D-06 0.293D-05 0.224D-04 0.389D-04-0.465D-04-0.748D-03
 Coeff-Com: -0.541D-03 0.810D-02 0.860D-02 0.621D-02-0.182D+00-0.946D-01
 Coeff-Com:  0.125D+01
 Coeff:     -0.239D-06 0.293D-05 0.224D-04 0.389D-04-0.465D-04-0.748D-03
 Coeff:     -0.541D-03 0.810D-02 0.860D-02 0.621D-02-0.182D+00-0.946D-01
 Coeff:      0.125D+01
 Gap=     0.383 Goal=   None    Shift=    0.000
 RMSDP=9.58D-08 MaxDP=2.05D-06 DE=-6.21D-11 OVMax= 4.19D-06

 Cycle  14  Pass 1  IDiag  1:
 E= -529.927875705834     Delta-E=       -0.000000000009 Rises=F Damp=F
 DIIS: error= 2.04D-08 at cycle  14 NSaved=  14.
 NSaved=14 IEnMin=14 EnMin= -529.927875705834     IErMin=14 ErrMin= 2.04D-08
 ErrMax= 2.04D-08  0.00D+00 EMaxC= 1.00D-01 BMatC= 5.24D-14 BMatP= 1.10D-12
 IDIUse=1 WtCom= 1.00D+00 WtEn= 0.00D+00
 Coeff-Com: -0.924D-07 0.485D-06 0.452D-05 0.918D-05 0.698D-05-0.693D-04
 Coeff-Com: -0.132D-03-0.297D-03 0.126D-02 0.918D-02-0.974D-02-0.552D-01
 Coeff-Com:  0.133D-01 0.104D+01
 Coeff:     -0.924D-07 0.485D-06 0.452D-05 0.918D-05 0.698D-05-0.693D-04
 Coeff:     -0.132D-03-0.297D-03 0.126D-02 0.918D-02-0.974D-02-0.552D-01
 Coeff:      0.133D-01 0.104D+01
 Gap=     0.383 Goal=   None    Shift=    0.000
 RMSDP=2.11D-08 MaxDP=7.43D-07 DE=-8.87D-12 OVMax= 4.48D-07

 Cycle  15  Pass 1  IDiag  1:
 E= -529.927875705832     Delta-E=        0.000000000003 Rises=F Damp=F
 DIIS: error= 8.17D-09 at cycle  15 NSaved=  15.
 NSaved=15 IEnMin=14 EnMin= -529.927875705834     IErMin=15 ErrMin= 8.17D-09
 ErrMax= 8.17D-09  0.00D+00 EMaxC= 1.00D-01 BMatC= 8.00D-15 BMatP= 5.24D-14
 IDIUse=1 WtCom= 1.00D+00 WtEn= 0.00D+00
 Coeff-Com: -0.141D-07-0.167D-07 0.348D-07 0.524D-06 0.694D-05 0.265D-04
 Coeff-Com: -0.484D-05-0.726D-03-0.124D-03 0.308D-02 0.940D-02-0.148D-01
 Coeff-Com: -0.805D-01 0.361D+00 0.723D+00
 Coeff:     -0.141D-07-0.167D-07 0.348D-07 0.524D-06 0.694D-05 0.265D-04
 Coeff:     -0.484D-05-0.726D-03-0.124D-03 0.308D-02 0.940D-02-0.148D-01
 Coeff:     -0.805D-01 0.361D+00 0.723D+00
 Gap=     0.383 Goal=   None    Shift=    0.000
 RMSDP=4.43D-09 MaxDP=1.87D-07 DE= 2.50D-12 OVMax= 5.17D-08

 SCF Done:  E(RwB97XD) =  -529.927875706     A.U. after   15 cycles
            NFock= 15  Conv=0.44D-08     -V/T= 2.0052
 KE= 5.271910633150D+02 PE=-2.060175495299D+03 EE= 5.981127569393D+02
 Leave Link  502 at Wed May 26 09:20:53 2021, MaxMem=  2147483648 cpu:        31.4
 (Enter /opt/cluster/programs/g09_d.01/g09/l601.exe)
 Copying SCF densities to generalized density rwf, IOpCl= 0 IROHF=0.

 **********************************************************************

            Population analysis using the SCF density.

 **********************************************************************

 Orbital symmetries:
       Occupied  (A) (A) (A) (A) (A) (A) (A) (A) (A) (A) (A) (A)
                 (A) (A) (A) (A) (A) (A) (A) (A) (A) (A) (A) (A)
                 (A) (A) (A) (A) (A) (A) (A) (A)
       Virtual   (A) (A) (A) (A) (A) (A) (A) (A) (A) (A) (A) (A)
                 (A) (A) (A) (A) (A) (A) (A) (A) (A) (A) (A) (A)
                 (A) (A) (A) (A) (A) (A) (A) (A) (A) (A) (A) (A)
                 (A) (A) (A) (A) (A) (A) (A) (A) (A) (A) (A) (A)
                 (A) (A) (A) (A) (A) (A) (A) (A) (A) (A) (A) (A)
                 (A) (A) (A) (A) (A) (A) (A) (A) (A) (A) (A) (A)
                 (A) (A) (A) (A) (A) (A) (A) (A) (A) (A)
 The electronic state is 1-A.
 Alpha  occ. eigenvalues --  -24.89231 -24.89229 -24.89101 -19.30333 -10.59573
 Alpha  occ. eigenvalues --  -10.43935 -10.36388 -10.32082  -1.44029  -1.35544
 Alpha  occ. eigenvalues --   -1.35480  -1.19500  -0.95308  -0.87265  -0.80188
 Alpha  occ. eigenvalues --   -0.71093  -0.70397  -0.69268  -0.64277  -0.59744
 Alpha  occ. eigenvalues --   -0.58493  -0.57685  -0.56973  -0.55318  -0.54262
 Alpha  occ. eigenvalues --   -0.53755  -0.52711  -0.52077  -0.50494  -0.49624
 Alpha  occ. eigenvalues --   -0.46252  -0.36995
 Alpha virt. eigenvalues --    0.01289   0.06206   0.08068   0.09333   0.10119
 Alpha virt. eigenvalues --    0.10711   0.11169   0.11924   0.12757   0.13444
 Alpha virt. eigenvalues --    0.13645   0.15877   0.16768   0.17161   0.17748
 Alpha virt. eigenvalues --    0.17915   0.18376   0.19576   0.21099   0.21993
 Alpha virt. eigenvalues --    0.25885   0.26549   0.27922   0.28996   0.31252
 Alpha virt. eigenvalues --    0.33454   0.34378   0.34691   0.36329   0.37230
 Alpha virt. eigenvalues --    0.38370   0.38898   0.39515   0.40929   0.41284
 Alpha virt. eigenvalues --    0.43005   0.43360   0.44093   0.44885   0.45260
 Alpha virt. eigenvalues --    0.45886   0.49477   0.51308   0.52634   0.53718
 Alpha virt. eigenvalues --    0.71014   0.73446   0.75570   0.77049   0.80700
 Alpha virt. eigenvalues --    0.83148   0.84973   0.87142   0.90569   0.94530
 Alpha virt. eigenvalues --    0.96231   1.04182   1.10353   1.15446   1.16821
 Alpha virt. eigenvalues --    1.21560   1.22296   1.23697   1.34934   1.39843
 Alpha virt. eigenvalues --    1.44099   1.46547   1.51223   1.56231   1.59382
 Alpha virt. eigenvalues --    1.64484   1.67566   1.69262   1.73371   1.80094
 Alpha virt. eigenvalues --    1.82215   1.83664   1.85036   1.98378   2.29811
 Alpha virt. eigenvalues --    2.33228   2.66557
          Condensed to atoms (all electrons):
               1          2          3          4          5          6
     1  C    8.628974  -0.998682   0.299280   0.343131   0.326463  -1.748421
     2  C   -0.998682   6.341184  -0.000259  -0.022239  -0.005505  -0.455145
     3  H    0.299280  -0.000259   0.465010  -0.020366  -0.021821   0.044851
     4  H    0.343131  -0.022239  -0.020366   0.446270  -0.018708   0.030194
     5  H    0.326463  -0.005505  -0.021821  -0.018708   0.450854  -0.014225
     6  C   -1.748421  -0.455145   0.044851   0.030194  -0.014225   8.869518
     7  O   -0.145926   0.492136   0.002429  -0.005726   0.004508  -0.252589
     8  C    0.001323   0.124909  -0.014793  -0.003390   0.017869  -0.221624
     9  H    0.022286   0.000873  -0.000016  -0.000074  -0.000120   0.322491
    10  H    0.008948  -0.008902  -0.000212  -0.000063   0.000119   0.359458
    11  F   -0.032357   0.098026  -0.000590  -0.000013   0.003620  -0.200904
    12  F   -0.013700   0.006615  -0.000123   0.000023   0.000302  -0.112209
    13  F    0.029126  -0.012444  -0.001680   0.000335  -0.003976  -0.105306
               7          8          9         10         11         12
     1  C   -0.145926   0.001323   0.022286   0.008948  -0.032357  -0.013700
     2  C    0.492136   0.124909   0.000873  -0.008902   0.098026   0.006615
     3  H    0.002429  -0.014793  -0.000016  -0.000212  -0.000590  -0.000123
     4  H   -0.005726  -0.003390  -0.000074  -0.000063  -0.000013   0.000023
     5  H    0.004508   0.017869  -0.000120   0.000119   0.003620   0.000302
     6  C   -0.252589  -0.221624   0.322491   0.359458  -0.200904  -0.112209
     7  O    8.318172  -0.002035  -0.002710  -0.000868  -0.002011  -0.001066
     8  C   -0.002035   5.367690  -0.038193  -0.057327   0.149344   0.144321
     9  H   -0.002710  -0.038193   0.415292  -0.017308  -0.003981  -0.000753
    10  H   -0.000868  -0.057327  -0.017308   0.427106   0.007164  -0.003743
    11  F   -0.002011   0.149344  -0.003981   0.007164   9.277677  -0.056224
    12  F   -0.001066   0.144321  -0.000753  -0.003743  -0.056224   9.293958
    13  F   -0.001304   0.089925   0.006625  -0.005029  -0.049728  -0.052696
              13
     1  C    0.029126
     2  C   -0.012444
     3  H   -0.001680
     4  H    0.000335
     5  H   -0.003976
     6  C   -0.105306
     7  O   -0.001304
     8  C    0.089925
     9  H    0.006625
    10  H   -0.005029
    11  F   -0.049728
    12  F   -0.052696
    13  F    9.299082
 Mulliken charges:
               1
     1  C   -0.720446
     2  C    0.439433
     3  H    0.248291
     4  H    0.250627
     5  H    0.260619
     6  C   -0.516087
     7  O   -0.403009
     8  C    0.441982
     9  H    0.295588
    10  H    0.290658
    11  F   -0.190022
    12  F   -0.204704
    13  F   -0.192929
 Sum of Mulliken charges =   0.00000
 Mulliken charges with hydrogens summed into heavy atoms:
               1
     1  C    0.039090
     2  C    0.439433
     6  C    0.070158
     7  O   -0.403009
     8  C    0.441982
    11  F   -0.190022
    12  F   -0.204704
    13  F   -0.192929
 Electronic spatial extent (au):  <R**2>=            974.7866
 Charge=              0.0000 electrons
 Dipole moment (field-independent basis, Debye):
    X=              0.2017    Y=              1.0216    Z=             -1.6337  Tot=              1.9373
 Quadrupole moment (field-independent basis, Debye-Ang):
   XX=            -56.7335   YY=            -45.9871   ZZ=            -44.9425
   XY=              6.5624   XZ=             -1.2560   YZ=              1.4358
 Traceless Quadrupole moment (field-independent basis, Debye-Ang):
   XX=             -7.5125   YY=              3.2340   ZZ=              4.2785
   XY=              6.5624   XZ=             -1.2560   YZ=              1.4358
 Octapole moment (field-independent basis, Debye-Ang**2):
  XXX=            -35.2223  YYY=              1.5361  ZZZ=             -2.2857  XYY=             -8.3884
  XXY=             19.8152  XXZ=              0.1363  XZZ=             -4.3050  YZZ=             -0.3053
  YYZ=              1.8161  XYZ=              0.9617
 Hexadecapole moment (field-independent basis, Debye-Ang**3):
 XXXX=           -791.0635 YYYY=           -254.8393 ZZZZ=           -130.6707 XXXY=             34.1459
 XXXZ=             -8.6417 YYYX=              7.9959 YYYZ=             -1.2357 ZZZX=              2.1549
 ZZZY=             -0.4759 XXYY=           -177.5179 XXZZ=           -142.9949 YYZZ=            -63.1413
 XXYZ=              2.1840 YYXZ=             -2.5434 ZZXY=             -0.5349
 N-N= 4.049437993385D+02 E-N=-2.060175495353D+03  KE= 5.271910633150D+02
 No NMR shielding tensors so no spin-rotation constants.
 Leave Link  601 at Wed May 26 09:20:54 2021, MaxMem=  2147483648 cpu:         0.6
 (Enter /opt/cluster/programs/g09_d.01/g09/l701.exe)
 Compute integral first derivatives.
 ... and contract with generalized density number  0.
 R6Disp: Adding Grimme-D2 dispersion energy 1st derivatives to the gradient.
 Leave Link  701 at Wed May 26 09:20:54 2021, MaxMem=  2147483648 cpu:         0.6
 (Enter /opt/cluster/programs/g09_d.01/g09/l702.exe)
 L702 exits ... SP integral derivatives will be done elsewhere.
 Leave Link  702 at Wed May 26 09:20:54 2021, MaxMem=  2147483648 cpu:         0.2
 (Enter /opt/cluster/programs/g09_d.01/g09/l703.exe)
 Compute integral first derivatives, UseDBF=F ICtDFT=           0.
 Integral derivatives from FoFJK, PRISM(SPDF).
 Calling FoFJK, ICntrl=      2127 FMM=F ISym2X=0 I1Cent= 0 IOpClX= 0 NMat=1 NMatS=1 NMatT=0.
 FoFJK:  IHMeth= 1 ICntrl=    2127 DoSepK=T KAlg= 0 I1Cent=   0 FoldK=F
 IRaf=         1 NMat=   1 IRICut=       1 DoRegI=T DoRafI=F ISym2E= 0.
 FoFCou: FMM=F IPFlag=           0 FMFlag=      100000 FMFlg1=         800
         NFxFlg=           0 DoJE=F BraDBF=F KetDBF=F FulRan=T
         wScrn=  0.000000 ICntrl=    2527 IOpCl=  0 I1Cent=           0 NGrid=           0
         NMat0=    1 NMatS0=      1 NMatT0=    0 NMatD0=    1 NMtDS0=    0 NMtDT0=    0
 Symmetry not used in FoFCou.
 Leave Link  703 at Wed May 26 09:20:55 2021, MaxMem=  2147483648 cpu:         8.5
 (Enter /opt/cluster/programs/g09_d.01/g09/l716.exe)
 Dipole        = 7.93624251D-02 4.01917692D-01-6.42746398D-01
 ***** Axes restored to original set *****
 -------------------------------------------------------------------
 Center     Atomic                   Forces (Hartrees/Bohr)
 Number     Number              X              Y              Z
 -------------------------------------------------------------------
      1        6          -0.000078870   -0.000008321    0.000141238
      2        6           0.000068034    0.000031451   -0.000256971
      3        1           0.000026181    0.000002036   -0.000006775
      4        1           0.000006011   -0.000002501   -0.000008216
      5        1           0.000020879   -0.000004553    0.000000298
      6        6          -0.000039466   -0.000110604    0.000222285
      7        8           0.000003714   -0.000002079    0.000006705
      8        6           0.000020028    0.000094001   -0.000113467
      9        1          -0.000005444   -0.000003405    0.000002020
     10        1          -0.000013887   -0.000002296    0.000004069
     11        9           0.000001181    0.000000470    0.000007390
     12        9          -0.000001043    0.000008723    0.000003087
     13        9          -0.000007316   -0.000002922   -0.000001663
 -------------------------------------------------------------------
 Cartesian Forces:  Max     0.000256971 RMS     0.000068880
 Leave Link  716 at Wed May 26 09:20:55 2021, MaxMem=  2147483648 cpu:         0.3
 (Enter /opt/cluster/programs/g09_d.01/g09/l103.exe)

 GradGradGradGradGradGradGradGradGradGradGradGradGradGradGradGradGradGrad
 Berny optimization.
 FormGI is forming the generalized inverse of G from B-inverse, IUseBI=4.
 Internal  Forces:  Max     0.000134145 RMS     0.000030252
 Search for a local minimum.
 Step number   1 out of a maximum of   64
 All quantities printed in internal units (Hartrees-Bohrs-Radians)
 RMS Force = .71334D-05 SwitMx=.10000D-02 MixMth= 2
 Mixed Optimization -- En-DIIS/RFO-DIIS
 Second derivative matrix not updated -- first step.
 ITU=  0
     Eigenvalues ---    0.00513   0.00754   0.00758   0.02863   0.05543
     Eigenvalues ---    0.07332   0.07434   0.08270   0.08540   0.09850
     Eigenvalues ---    0.12106   0.16000   0.16000   0.16000   0.22074
     Eigenvalues ---    0.24957   0.25000   0.25000   0.25000   0.25000
     Eigenvalues ---    0.29480   0.32284   0.32314   0.34086   0.34170
     Eigenvalues ---    0.34267   0.34574   0.34772   0.46454   0.46899
     Eigenvalues ---    0.47362   0.893531000.000001000.000001000.00000
     Eigenvalues --- 1000.000001000.000001000.000001000.000001000.00000
     Eigenvalues --- 1000.000001000.000001000.000001000.000001000.00000
     Eigenvalues --- 1000.000001000.000001000.000001000.000001000.00000
     Eigenvalues --- 1000.000001000.000001000.000001000.00000
 RFO step:  Lambda=-3.72070134D-08 EMin= 5.13355435D-03
 Linear search not attempted -- first point.
 Iteration  1 RMS(Cart)=  0.00032436 RMS(Int)=  0.00000008
 Iteration  2 RMS(Cart)=  0.00000009 RMS(Int)=  0.00000002
 Iteration  1 RMS(Cart)=  0.00000000 RMS(Int)=  0.00000000
 ITry= 1 IFail=0 DXMaxC= 1.33D-03 DCOld= 1.00D+10 DXMaxT= 3.00D-01 DXLimC= 3.00D+00 Rises=F
 Variable       Old X    -DE/DX   Delta X   Delta X   Delta X     New X
                                 (Linear)    (Quad)   (Total)
    R1        2.83627   0.00000   0.00000   0.00000   0.00000   2.83627
    R2        2.06881   0.00000   0.00000   0.00000   0.00000   2.06881
    R3        2.06046   0.00000   0.00000   0.00001   0.00001   2.06047
    R4        2.07043  -0.00001   0.00000  -0.00002  -0.00002   2.07041
    R5        2.89012   0.00001   0.00000   0.00004   0.00004   2.89016
    R6        2.33232   0.00000   0.00000   0.00000   0.00000   2.33233
    R7        2.83573  -0.00001   0.00000  -0.00004  -0.00004   2.83569
    R8        2.06372   0.00000   0.00000   0.00001   0.00001   2.06373
    R9        2.07185   0.00000   0.00000  -0.00001  -0.00001   2.07185
   R10        2.63131   0.00000   0.00000   0.00001   0.00001   2.63132
   R11        2.62625   0.00000   0.00000   0.00000   0.00000   2.62624
   R12        2.63623   0.00000   0.00000  -0.00001  -0.00001   2.63622
    A1        1.93655   0.00001   0.00000   0.00011   0.00011   1.93666
    A2        1.90457   0.00000   0.00000  -0.00008  -0.00008   1.90449
    A3        1.92975   0.00000   0.00000   0.00006   0.00006   1.92981
    A4        1.91974  -0.00002   0.00000  -0.00016  -0.00016   1.91958
    A5        1.86802   0.00001   0.00000   0.00014   0.00014   1.86816
    A6        1.90485  -0.00001   0.00000  -0.00007  -0.00007   1.90478
    A7        2.08908   0.00002   0.00000   0.00007   0.00007   2.08916
    A8        2.13537  -0.00001   0.00000  -0.00006  -0.00006   2.13532
    A9        2.05748   0.00000   0.00000   0.00002   0.00002   2.05750
   A10        2.03026   0.00000   0.00000   0.00003   0.00003   2.03029
   A11        1.88226  -0.00001   0.00000  -0.00005  -0.00005   1.88221
   A12        1.89689   0.00001   0.00000   0.00011   0.00011   1.89700
   A13        1.89057   0.00006   0.00000  -0.00004  -0.00004   1.89053
   A14        1.87670  -0.00006   0.00000  -0.00003  -0.00003   1.87667
   A15        1.88253   0.00000   0.00000  -0.00002  -0.00002   1.88250
   A16        1.96192   0.00000   0.00000   0.00000   0.00000   1.96192
   A17        1.94119  -0.00001   0.00000  -0.00005  -0.00005   1.94115
   A18        1.97334   0.00001   0.00000   0.00006   0.00006   1.97339
   A19        1.86577   0.00000   0.00000  -0.00002  -0.00002   1.86575
   A20        1.85859   0.00000   0.00000   0.00006   0.00006   1.85864
   A21        1.85584  -0.00001   0.00000  -0.00005  -0.00005   1.85578
    D1       -0.88349  -0.00004   0.00000  -0.00073  -0.00073  -0.88421
    D2        2.20322   0.00002   0.00000   0.00007   0.00007   2.20330
    D3       -3.00149  -0.00003   0.00000  -0.00055  -0.00055  -3.00204
    D4        0.08522   0.00003   0.00000   0.00025   0.00025   0.08547
    D5        1.18643  -0.00002   0.00000  -0.00045  -0.00045   1.18599
    D6       -2.01004   0.00004   0.00000   0.00035   0.00035  -2.00969
    D7       -0.70191   0.00013   0.00000   0.00000   0.00000  -0.70191
    D8       -2.82865   0.00006   0.00000   0.00007   0.00007  -2.82858
    D9        1.41809   0.00006   0.00000   0.00007   0.00007   1.41816
   D10        2.49214   0.00007   0.00000  -0.00076  -0.00076   2.49137
   D11        0.36540   0.00000   0.00000  -0.00069  -0.00069   0.36471
   D12       -1.67104   0.00000   0.00000  -0.00069  -0.00069  -1.67174
   D13       -0.89558  -0.00003   0.00000   0.00015   0.00015  -0.89543
   D14       -2.98706  -0.00002   0.00000   0.00020   0.00020  -2.98686
   D15        1.20956  -0.00002   0.00000   0.00026   0.00026   1.20983
   D16        1.22677   0.00001   0.00000   0.00007   0.00007   1.22684
   D17       -0.86471   0.00002   0.00000   0.00013   0.00013  -0.86459
   D18       -2.95128   0.00002   0.00000   0.00019   0.00019  -2.95109
   D19       -3.02624   0.00001   0.00000   0.00001   0.00001  -3.02623
   D20        1.16546   0.00001   0.00000   0.00006   0.00006   1.16552
   D21       -0.92110   0.00002   0.00000   0.00013   0.00013  -0.92098
         Item               Value     Threshold  Converged?
 Maximum Force            0.000017     0.000450     YES
 RMS     Force            0.000007     0.000300     YES
 Maximum Displacement     0.001327     0.001800     YES
 RMS     Displacement     0.000324     0.001200     YES
 Predicted change in Energy=-1.860382D-08
 Optimization completed.
    -- Stationary point found.
                           ----------------------------
                           !   Optimized Parameters   !
                           ! (Angstroms and Degrees)  !
 --------------------------                            --------------------------
 ! Name  Definition              Value          Derivative Info.                !
 --------------------------------------------------------------------------------
 ! R1    R(1,2)                  1.5009         -DE/DX =    0.0                 !
 ! R2    R(1,3)                  1.0948         -DE/DX =    0.0                 !
 ! R3    R(1,4)                  1.0903         -DE/DX =    0.0                 !
 ! R4    R(1,5)                  1.0956         -DE/DX =    0.0                 !
 ! R5    R(2,6)                  1.5294         -DE/DX =    0.0                 !
 ! R6    R(2,7)                  1.2342         -DE/DX =    0.0                 !
 ! R7    R(6,8)                  1.5006         -DE/DX =    0.0                 !
 ! R8    R(6,9)                  1.0921         -DE/DX =    0.0                 !
 ! R9    R(6,10)                 1.0964         -DE/DX =    0.0                 !
 ! R10   R(8,11)                 1.3924         -DE/DX =    0.0                 !
 ! R11   R(8,12)                 1.3897         -DE/DX =    0.0                 !
 ! R12   R(8,13)                 1.395          -DE/DX =    0.0                 !
 ! A1    A(2,1,3)              110.9561         -DE/DX =    0.0                 !
 ! A2    A(2,1,4)              109.1236         -DE/DX =    0.0                 !
 ! A3    A(2,1,5)              110.5665         -DE/DX =    0.0                 !
 ! A4    A(3,1,4)              109.9931         -DE/DX =    0.0                 !
 ! A5    A(3,1,5)              107.0296         -DE/DX =    0.0                 !
 ! A6    A(4,1,5)              109.1398         -DE/DX =    0.0                 !
 ! A7    A(1,2,6)              119.6956         -DE/DX =    0.0                 !
 ! A8    A(1,2,7)              122.3479         -DE/DX =    0.0                 !
 ! A9    A(6,2,7)              117.8849         -DE/DX =    0.0                 !
 ! A10   A(2,6,8)              116.3255         -DE/DX =    0.0                 !
 ! A11   A(2,6,9)              107.8453         -DE/DX =    0.0                 !
 ! A12   A(2,6,10)             108.6841         -DE/DX =    0.0                 !
 ! A13   A(8,6,9)              108.3216         -DE/DX =    0.0001              !
 ! A14   A(8,6,10)             107.5268         -DE/DX =   -0.0001              !
 ! A15   A(9,6,10)             107.8608         -DE/DX =    0.0                 !
 ! A16   A(6,8,11)             112.4097         -DE/DX =    0.0                 !
 ! A17   A(6,8,12)             111.2222         -DE/DX =    0.0                 !
 ! A18   A(6,8,13)             113.0639         -DE/DX =    0.0                 !
 ! A19   A(11,8,12)            106.9009         -DE/DX =    0.0                 !
 ! A20   A(11,8,13)            106.4892         -DE/DX =    0.0                 !
 ! A21   A(12,8,13)            106.3316         -DE/DX =    0.0                 !
 ! D1    D(3,1,2,6)            -50.62           -DE/DX =    0.0                 !
 ! D2    D(3,1,2,7)            126.2354         -DE/DX =    0.0                 !
 ! D3    D(4,1,2,6)           -171.9727         -DE/DX =    0.0                 !
 ! D4    D(4,1,2,7)              4.8826         -DE/DX =    0.0                 !
 ! D5    D(5,1,2,6)             67.9777         -DE/DX =    0.0                 !
 ! D6    D(5,1,2,7)           -115.167          -DE/DX =    0.0                 !
 ! D7    D(1,2,6,8)            -40.2166         -DE/DX =    0.0001              !
 ! D8    D(1,2,6,9)           -162.0696         -DE/DX =    0.0001              !
 ! D9    D(1,2,6,10)            81.2507         -DE/DX =    0.0001              !
 ! D10   D(7,2,6,8)            142.7889         -DE/DX =    0.0001              !
 ! D11   D(7,2,6,9)             20.9359         -DE/DX =    0.0                 !
 ! D12   D(7,2,6,10)           -95.7438         -DE/DX =    0.0                 !
 ! D13   D(2,6,8,11)           -51.3128         -DE/DX =    0.0                 !
 ! D14   D(2,6,8,12)          -171.1458         -DE/DX =    0.0                 !
 ! D15   D(2,6,8,13)            69.3029         -DE/DX =    0.0                 !
 ! D16   D(9,6,8,11)            70.2886         -DE/DX =    0.0                 !
 ! D17   D(9,6,8,12)           -49.5443         -DE/DX =    0.0                 !
 ! D18   D(9,6,8,13)          -169.0957         -DE/DX =    0.0                 !
 ! D19   D(10,6,8,11)         -173.391          -DE/DX =    0.0                 !
 ! D20   D(10,6,8,12)           66.776          -DE/DX =    0.0                 !
 ! D21   D(10,6,8,13)          -52.7754         -DE/DX =    0.0                 !
 --------------------------------------------------------------------------------
 Lowest energy point so far.  Saving SCF results.
 GradGradGradGradGradGradGradGradGradGradGradGradGradGradGradGradGradGrad

 Largest change from initial coordinates is atom    3       0.000 Angstoms.
 Leave Link  103 at Wed May 26 09:20:55 2021, MaxMem=  2147483648 cpu:         0.1
 (Enter /opt/cluster/programs/g09_d.01/g09/l202.exe)
                          Input orientation:                          
 ---------------------------------------------------------------------
 Center     Atomic      Atomic             Coordinates (Angstroms)
 Number     Number       Type             X           Y           Z
 ---------------------------------------------------------------------
      1          6           0        1.740580    1.257937   -0.033838
      2          6           0        1.531307   -0.226968   -0.096552
      3          1           0        1.424037    1.737663   -0.965602
      4          1           0        2.795474    1.462507    0.151129
      5          1           0        1.142730    1.697173    0.772415
      6          6           0        0.173609   -0.783194   -0.528161
      7          8           0        2.437796   -1.031978    0.134786
      8          6           0       -1.036192   -0.066269   -0.004515
      9          1           0        0.121215   -1.825385   -0.206112
     10          1           0        0.119170   -0.766434   -1.623058
     11          9           0       -0.997035    0.101687    1.377192
     12          9           0       -2.200771   -0.767471   -0.293434
     13          9           0       -1.197841    1.205924   -0.553609
 ---------------------------------------------------------------------
                    Distance matrix (angstroms):
                    1          2          3          4          5
     1  C    0.000000
     2  C    1.500890   0.000000
     3  H    1.094770   2.150937   0.000000
     4  H    1.090350   2.124568   1.789871   0.000000
     5  H    1.095626   2.146722   1.761101   1.781187   0.000000
     6  C    2.620299   1.529385   2.847744   3.518350   2.963598
     7  O    2.399636   1.234213   3.147931   2.520051   3.087399
     8  C    3.076499   2.574169   3.198529   4.128322   2.908788
     9  H    3.486961   2.134315   3.869041   4.253177   3.795975
    10  H    3.041820   2.148342   2.899212   3.908775   3.585432
    11  F    3.289750   2.944902   3.745222   4.211673   2.736773
    12  F    4.438909   3.776150   4.457212   5.489344   4.288298
    13  F    2.984491   3.116140   2.706793   4.063134   2.734582
                    6          7          8          9         10
     6  C    0.000000
     7  O    2.372327   0.000000
     8  C    1.500602   3.608406   0.000000
     9  H    1.092073   2.472297   2.115354   0.000000
    10  H    1.096378   2.921738   2.108263   1.768931   0.000000
    11  F    2.404952   3.824504   1.392428   2.733302   3.316783
    12  F    2.386006   4.665795   1.389749   2.553121   2.673953
    13  F    2.416219   4.324344   1.395030   3.324078   2.601622
                   11         12         13
    11  F    0.000000
    12  F    2.235041   0.000000
    13  F    2.233306   2.228867   0.000000
 Stoichiometry    C4H5F3O
 Framework group  C1[X(C4H5F3O)]
 Deg. of freedom    33
 Full point group                 C1      NOp   1
 RotChk:  IX=0 Diff= 2.86D-16
 Largest Abelian subgroup         C1      NOp   1
 Largest concise Abelian subgroup C1      NOp   1
                         Standard orientation:                         
 ---------------------------------------------------------------------
 Center     Atomic      Atomic             Coordinates (Angstroms)
 Number     Number       Type             X           Y           Z
 ---------------------------------------------------------------------
      1          6           0        1.740580    1.257937   -0.033838
      2          6           0        1.531307   -0.226968   -0.096552
      3          1           0        1.424037    1.737663   -0.965602
      4          1           0        2.795474    1.462507    0.151129
      5          1           0        1.142730    1.697173    0.772415
      6          6           0        0.173609   -0.783194   -0.528161
      7          8           0        2.437796   -1.031978    0.134786
      8          6           0       -1.036192   -0.066269   -0.004515
      9          1           0        0.121215   -1.825385   -0.206112
     10          1           0        0.119170   -0.766434   -1.623058
     11          9           0       -0.997035    0.101687    1.377192
     12          9           0       -2.200771   -0.767471   -0.293434
     13          9           0       -1.197841    1.205924   -0.553609
 ---------------------------------------------------------------------
 Rotational constants (GHZ):      3.4548927      1.3544315      1.2130994
 Leave Link  202 at Wed May 26 09:20:56 2021, MaxMem=  2147483648 cpu:         0.0
 (Enter /opt/cluster/programs/g09_d.01/g09/l9999.exe)
 1\1\GINC-NODE12\FOpt\RwB97XD\6-31+G\C4H5F3O1\BOITTIER\26-May-2021\0\\#
 p wB97XD/6-31+G Opt=ModRedun\\N.pdb\\0,1\C,1.74058,1.257937,-0.033838\
 C,1.531307,-0.226968,-0.096552\H,1.424037,1.737663,-0.965602\H,2.79547
 4,1.462507,0.151129\H,1.14273,1.697173,0.772415\C,0.173609,-0.783194,-
 0.528161\O,2.437796,-1.031978,0.134786\C,-1.036192,-0.066269,-0.004515
 \H,0.121215,-1.825385,-0.206112\H,0.11917,-0.766434,-1.623058\F,-0.997
 035,0.101687,1.377192\F,-2.200771,-0.767471,-0.293434\F,-1.197841,1.20
 5924,-0.553609\\Version=ES64L-G09RevD.01\State=1-A\HF=-529.9278757\RMS
 D=4.433e-09\RMSF=6.888e-05\Dipole=0.0793624,0.4019177,-0.6427464\Quadr
 upole=-5.5853463,2.4043747,3.1809717,4.8789538,-0.9338239,1.067475\PG=
 C01 [X(C4H5F3O1)]\\@


 THE MEEK SHALL INHERIT THE EARTH.
 (THE REST OF US WILL ESCAPE TO THE STARS)
 Job cpu time:       0 days  0 hours  0 minutes 50.7 seconds.
 File lengths (MBytes):  RWF=      7 Int=      0 D2E=      0 Chk=      3 Scr=      1
 Normal termination of Gaussian 09 at Wed May 26 09:20:56 2021.
