N.pdb                                                                   
FOpt      RwB97XD                                                     6-31+G              
Number of atoms                            I               13
Info1-9                                    I   N=           9
          24          24           0           0           0         100
           2          18        -802
Charge                                     I                0
Multiplicity                               I                1
Number of electrons                        I               64
Number of alpha electrons                  I               32
Number of beta electrons                   I               32
Number of basis functions                  I              114
Number of independent functions            I              114
Number of point charges in /Mol/           I                0
Number of translation vectors              I                0
Atomic numbers                             I   N=          13
           6           6           1           1           1           6
           8           6           1           1           9           9
           9
Nuclear charges                            R   N=          13
  6.00000000E+00  6.00000000E+00  1.00000000E+00  1.00000000E+00  1.00000000E+00
  6.00000000E+00  8.00000000E+00  6.00000000E+00  1.00000000E+00  1.00000000E+00
  9.00000000E+00  9.00000000E+00  9.00000000E+00
Current cartesian coordinates              R   N=          39
  3.28921951E+00  2.37715642E+00 -6.39445529E-02  2.89375086E+00 -4.28907361E-01
 -1.82456838E-01  2.69103993E+00  3.28370718E+00 -1.82472333E+00  5.28268027E+00
  2.76373770E+00  2.85592421E-01  2.15944674E+00  3.20719217E+00  1.45965281E+00
  3.28073464E-01 -1.48002217E+00 -9.98079644E-01  4.60676681E+00 -1.95015580E+00
  2.54708627E-01 -1.95811910E+00 -1.25230261E-01 -8.53211349E-03  2.29063153E-01
 -3.44947774E+00 -3.89495233E-01  2.25198663E-01 -1.44835036E+00 -3.06713512E+00
 -1.88412309E+00  1.92160581E-01  2.60251571E+00 -4.15885447E+00 -1.45031000E+00
 -5.54509898E-01 -2.26359144E+00  2.27886610E+00 -1.04616939E+00
Force Field                                I                0
Int Atom Types                             I   N=          13
           0           0           0           0           0           0
           0           0           0           0           0           0
           0
MM charges                                 R   N=          13
  0.00000000E+00  0.00000000E+00  0.00000000E+00  0.00000000E+00  0.00000000E+00
  0.00000000E+00  0.00000000E+00  0.00000000E+00  0.00000000E+00  0.00000000E+00
  0.00000000E+00  0.00000000E+00  0.00000000E+00
Integer atomic weights                     I   N=          13
          12          12           1           1           1          12
          16          12           1           1          19          19
          19
Real atomic weights                        R   N=          13
  1.20000000E+01  1.20000000E+01  1.00782504E+00  1.00782504E+00  1.00782504E+00
  1.20000000E+01  1.59949146E+01  1.20000000E+01  1.00782504E+00  1.00782504E+00
  1.89984032E+01  1.89984032E+01  1.89984032E+01
Atom fragment info                         I   N=          13
           0           0           0           0           0           0
           0           0           0           0           0           0
           0
Atom residue num                           I   N=          13
           0           0           0           0           0           0
           0           0           0           0           0           0
           0
Nuclear spins                              I   N=          13
           0           0           1           1           1           0
           0           0           1           1           1           1
           1
Nuclear ZEff                               R   N=          13
 -3.60000000E+00 -3.60000000E+00 -1.00000000E+00 -1.00000000E+00 -1.00000000E+00
 -3.60000000E+00 -5.60000000E+00 -3.60000000E+00 -1.00000000E+00 -1.00000000E+00
 -6.75000000E+00 -6.75000000E+00 -6.75000000E+00
Nuclear ZNuc                               R   N=          13
  6.00000000E+00  6.00000000E+00  1.00000000E+00  1.00000000E+00  1.00000000E+00
  6.00000000E+00  8.00000000E+00  6.00000000E+00  1.00000000E+00  1.00000000E+00
  9.00000000E+00  9.00000000E+00  9.00000000E+00
Nuclear QMom                               R   N=          13
  0.00000000E+00  0.00000000E+00  0.00000000E+00  0.00000000E+00  0.00000000E+00
  0.00000000E+00  0.00000000E+00  0.00000000E+00  0.00000000E+00  0.00000000E+00
  0.00000000E+00  0.00000000E+00  0.00000000E+00
Nuclear GFac                               R   N=          13
  0.00000000E+00  0.00000000E+00  2.79284600E+00  2.79284600E+00  2.79284600E+00
  0.00000000E+00  0.00000000E+00  0.00000000E+00  2.79284600E+00  2.79284600E+00
  2.62886700E+00  2.62886700E+00  2.62886700E+00
MicOpt                                     I   N=          13
          -1          -1          -1          -1          -1          -1
          -1          -1          -1          -1          -1          -1
          -1
Number of contracted shells                I               42
Number of primitive shells                 I              108
Pure/Cartesian d shells                    I                1
Pure/Cartesian f shells                    I                0
Highest angular momentum                   I                1
Largest degree of contraction              I                6
Shell types                                I   N=          42
           0          -1          -1          -1           0          -1
          -1          -1           0           0           0           0
           0           0           0          -1          -1          -1
           0          -1          -1          -1           0          -1
          -1          -1           0           0           0           0
           0          -1          -1          -1           0          -1
          -1          -1           0          -1          -1          -1
Number of primitives per shell             I   N=          42
           6           3           1           1           6           3
           1           1           3           1           3           1
           3           1           6           3           1           1
           6           3           1           1           6           3
           1           1           3           1           3           1
           6           3           1           1           6           3
           1           1           6           3           1           1
Shell to atom map                          I   N=          42
           1           1           1           1           2           2
           2           2           3           3           4           4
           5           5           6           6           6           6
           7           7           7           7           8           8
           8           8           9           9          10          10
          11          11          11          11          12          12
          12          12          13          13          13          13
Primitive exponents                        R   N=         108
  3.04752488E+03  4.57369518E+02  1.03948685E+02  2.92101553E+01  9.28666296E+00
  3.16392696E+00  7.86827235E+00  1.88128854E+00  5.44249258E-01  1.68714478E-01
  4.38000000E-02  3.04752488E+03  4.57369518E+02  1.03948685E+02  2.92101553E+01
  9.28666296E+00  3.16392696E+00  7.86827235E+00  1.88128854E+00  5.44249258E-01
  1.68714478E-01  4.38000000E-02  1.87311370E+01  2.82539436E+00  6.40121692E-01
  1.61277759E-01  1.87311370E+01  2.82539436E+00  6.40121692E-01  1.61277759E-01
  1.87311370E+01  2.82539436E+00  6.40121692E-01  1.61277759E-01  3.04752488E+03
  4.57369518E+02  1.03948685E+02  2.92101553E+01  9.28666296E+00  3.16392696E+00
  7.86827235E+00  1.88128854E+00  5.44249258E-01  1.68714478E-01  4.38000000E-02
  5.48467166E+03  8.25234946E+02  1.88046958E+02  5.29645000E+01  1.68975704E+01
  5.79963534E+00  1.55396162E+01  3.59993359E+00  1.01376175E+00  2.70005823E-01
  8.45000000E-02  3.04752488E+03  4.57369518E+02  1.03948685E+02  2.92101553E+01
  9.28666296E+00  3.16392696E+00  7.86827235E+00  1.88128854E+00  5.44249258E-01
  1.68714478E-01  4.38000000E-02  1.87311370E+01  2.82539436E+00  6.40121692E-01
  1.61277759E-01  1.87311370E+01  2.82539436E+00  6.40121692E-01  1.61277759E-01
  7.00171309E+03  1.05136609E+03  2.39285690E+02  6.73974453E+01  2.15199573E+01
  7.40310130E+00  2.08479528E+01  4.80830834E+00  1.34406986E+00  3.58151393E-01
  1.07600000E-01  7.00171309E+03  1.05136609E+03  2.39285690E+02  6.73974453E+01
  2.15199573E+01  7.40310130E+00  2.08479528E+01  4.80830834E+00  1.34406986E+00
  3.58151393E-01  1.07600000E-01  7.00171309E+03  1.05136609E+03  2.39285690E+02
  6.73974453E+01  2.15199573E+01  7.40310130E+00  2.08479528E+01  4.80830834E+00
  1.34406986E+00  3.58151393E-01  1.07600000E-01
Contraction coefficients                   R   N=         108
  1.83473713E-03  1.40373228E-02  6.88426223E-02  2.32184443E-01  4.67941348E-01
  3.62311985E-01 -1.19332420E-01 -1.60854152E-01  1.14345644E+00  1.00000000E+00
  1.00000000E+00  1.83473713E-03  1.40373228E-02  6.88426223E-02  2.32184443E-01
  4.67941348E-01  3.62311985E-01 -1.19332420E-01 -1.60854152E-01  1.14345644E+00
  1.00000000E+00  1.00000000E+00  3.34946043E-02  2.34726953E-01  8.13757326E-01
  1.00000000E+00  3.34946043E-02  2.34726953E-01  8.13757326E-01  1.00000000E+00
  3.34946043E-02  2.34726953E-01  8.13757326E-01  1.00000000E+00  1.83473713E-03
  1.40373228E-02  6.88426223E-02  2.32184443E-01  4.67941348E-01  3.62311985E-01
 -1.19332420E-01 -1.60854152E-01  1.14345644E+00  1.00000000E+00  1.00000000E+00
  1.83107443E-03  1.39501722E-02  6.84450781E-02  2.32714336E-01  4.70192898E-01
  3.58520853E-01 -1.10777550E-01 -1.48026263E-01  1.13076702E+00  1.00000000E+00
  1.00000000E+00  1.83473713E-03  1.40373228E-02  6.88426223E-02  2.32184443E-01
  4.67941348E-01  3.62311985E-01 -1.19332420E-01 -1.60854152E-01  1.14345644E+00
  1.00000000E+00  1.00000000E+00  3.34946043E-02  2.34726953E-01  8.13757326E-01
  1.00000000E+00  3.34946043E-02  2.34726953E-01  8.13757326E-01  1.00000000E+00
  1.81961690E-03  1.39160796E-02  6.84053245E-02  2.33185760E-01  4.71267439E-01
  3.56618546E-01 -1.08506975E-01 -1.46451658E-01  1.12868858E+00  1.00000000E+00
  1.00000000E+00  1.81961690E-03  1.39160796E-02  6.84053245E-02  2.33185760E-01
  4.71267439E-01  3.56618546E-01 -1.08506975E-01 -1.46451658E-01  1.12868858E+00
  1.00000000E+00  1.00000000E+00  1.81961690E-03  1.39160796E-02  6.84053245E-02
  2.33185760E-01  4.71267439E-01  3.56618546E-01 -1.08506975E-01 -1.46451658E-01
  1.12868858E+00  1.00000000E+00  1.00000000E+00
P(S=P) Contraction coefficients            R   N=         108
  0.00000000E+00  0.00000000E+00  0.00000000E+00  0.00000000E+00  0.00000000E+00
  0.00000000E+00  6.89990666E-02  3.16423961E-01  7.44308291E-01  1.00000000E+00
  1.00000000E+00  0.00000000E+00  0.00000000E+00  0.00000000E+00  0.00000000E+00
  0.00000000E+00  0.00000000E+00  6.89990666E-02  3.16423961E-01  7.44308291E-01
  1.00000000E+00  1.00000000E+00  0.00000000E+00  0.00000000E+00  0.00000000E+00
  0.00000000E+00  0.00000000E+00  0.00000000E+00  0.00000000E+00  0.00000000E+00
  0.00000000E+00  0.00000000E+00  0.00000000E+00  0.00000000E+00  0.00000000E+00
  0.00000000E+00  0.00000000E+00  0.00000000E+00  0.00000000E+00  0.00000000E+00
  6.89990666E-02  3.16423961E-01  7.44308291E-01  1.00000000E+00  1.00000000E+00
  0.00000000E+00  0.00000000E+00  0.00000000E+00  0.00000000E+00  0.00000000E+00
  0.00000000E+00  7.08742682E-02  3.39752839E-01  7.27158577E-01  1.00000000E+00
  1.00000000E+00  0.00000000E+00  0.00000000E+00  0.00000000E+00  0.00000000E+00
  0.00000000E+00  0.00000000E+00  6.89990666E-02  3.16423961E-01  7.44308291E-01
  1.00000000E+00  1.00000000E+00  0.00000000E+00  0.00000000E+00  0.00000000E+00
  0.00000000E+00  0.00000000E+00  0.00000000E+00  0.00000000E+00  0.00000000E+00
  0.00000000E+00  0.00000000E+00  0.00000000E+00  0.00000000E+00  0.00000000E+00
  0.00000000E+00  7.16287242E-02  3.45912103E-01  7.22469956E-01  1.00000000E+00
  1.00000000E+00  0.00000000E+00  0.00000000E+00  0.00000000E+00  0.00000000E+00
  0.00000000E+00  0.00000000E+00  7.16287242E-02  3.45912103E-01  7.22469956E-01
  1.00000000E+00  1.00000000E+00  0.00000000E+00  0.00000000E+00  0.00000000E+00
  0.00000000E+00  0.00000000E+00  0.00000000E+00  7.16287242E-02  3.45912103E-01
  7.22469956E-01  1.00000000E+00  1.00000000E+00
Coordinates of each shell                  R   N=         126
  3.28921984E+00  2.37715629E+00 -6.39447005E-02  3.28921984E+00  2.37715629E+00
 -6.39447005E-02  3.28921984E+00  2.37715629E+00 -6.39447005E-02  3.28921984E+00
  2.37715629E+00 -6.39447005E-02  2.89375097E+00 -4.28907464E-01 -1.82456985E-01
  2.89375097E+00 -4.28907464E-01 -1.82456985E-01  2.89375097E+00 -4.28907464E-01
 -1.82456985E-01  2.89375097E+00 -4.28907464E-01 -1.82456985E-01  2.69104033E+00
  3.28370709E+00 -1.82472348E+00  2.69104033E+00  3.28370709E+00 -1.82472348E+00
  5.28268063E+00  2.76373741E+00  2.85592273E-01  5.28268063E+00  2.76373741E+00
  2.85592273E-01  2.15944714E+00  3.20719212E+00  1.45965266E+00  2.15944714E+00
  3.20719212E+00  1.45965266E+00  3.28073499E-01 -1.48002208E+00 -9.98079792E-01
  3.28073499E-01 -1.48002208E+00 -9.98079792E-01  3.28073499E-01 -1.48002208E+00
 -9.98079792E-01  3.28073499E-01 -1.48002208E+00 -9.98079792E-01  4.60676681E+00
 -1.95015603E+00  2.54708479E-01  4.60676681E+00 -1.95015603E+00  2.54708479E-01
  4.60676681E+00 -1.95015603E+00  2.54708479E-01  4.60676681E+00 -1.95015603E+00
  2.54708479E-01 -1.95811896E+00 -1.25229993E-01 -8.53226112E-03 -1.95811896E+00
 -1.25229993E-01 -8.53226112E-03 -1.95811896E+00 -1.25229993E-01 -8.53226112E-03
 -1.95811896E+00 -1.25229993E-01 -8.53226112E-03  2.29063037E-01 -3.44947764E+00
 -3.89495380E-01  2.29063037E-01 -3.44947764E+00 -3.89495380E-01  2.25198700E-01
 -1.44835026E+00 -3.06713527E+00  2.25198700E-01 -1.44835026E+00 -3.06713527E+00
 -1.88412293E+00  1.92160844E-01  2.60251556E+00 -1.88412293E+00  1.92160844E-01
  2.60251556E+00 -1.88412293E+00  1.92160844E-01  2.60251556E+00 -1.88412293E+00
  1.92160844E-01  2.60251556E+00 -4.15885443E+00 -1.45030957E+00 -5.54510046E-01
 -4.15885443E+00 -1.45030957E+00 -5.54510046E-01 -4.15885443E+00 -1.45030957E+00
 -5.54510046E-01 -4.15885443E+00 -1.45030957E+00 -5.54510046E-01 -2.26359112E+00
  2.27886639E+00 -1.04616954E+00 -2.26359112E+00  2.27886639E+00 -1.04616954E+00
 -2.26359112E+00  2.27886639E+00 -1.04616954E+00 -2.26359112E+00  2.27886639E+00
 -1.04616954E+00
Constraint Structure                       R   N=          39
  3.28921984E+00  2.37715629E+00 -6.39447005E-02  2.89375097E+00 -4.28907464E-01
 -1.82456985E-01  2.69104033E+00  3.28370709E+00 -1.82472348E+00  5.28268063E+00
  2.76373741E+00  2.85592273E-01  2.15944714E+00  3.20719212E+00  1.45965266E+00
  3.28073499E-01 -1.48002208E+00 -9.98079792E-01  4.60676681E+00 -1.95015603E+00
  2.54708479E-01 -1.95811896E+00 -1.25229993E-01 -8.53226112E-03  2.29063037E-01
 -3.44947764E+00 -3.89495380E-01  2.25198700E-01 -1.44835026E+00 -3.06713527E+00
 -1.88412293E+00  1.92160844E-01  2.60251556E+00 -4.15885443E+00 -1.45030957E+00
 -5.54510046E-01 -2.26359112E+00  2.27886639E+00 -1.04616954E+00
Num ILSW                                   I              100
ILSW                                       I   N=         100
           0           1           0           0           2           0
           0           0           0           0        4639          -1
           0           0           0           0           2           0
           0           0           0           0           1           0
           1           0           0           0           0           0
           0           0      100000           0          -1           0
           0           0           0           0           0           0
           0           0           0           1           0           0
           0           0           1           0           0           0
           0           0         121          41           0           0
           0           0          58           0           0           0
           0           0           0          13           0           0
           0           0           0           0           0           0
           0           0           0           0           0           0
           0           0           0           0           0           0
           0           0           0           0           0           0
           0           0           0           0
Num RLSW                                   I               41
RLSW                                       R   N=          41
  1.00000000E+00  1.00000000E+00  1.00000000E+00  1.00000000E+00  1.00000000E+00
  0.00000000E+00  2.00000000E-01  2.22036000E-01  0.00000000E+00  7.77964000E-01
  0.00000000E+00  2.00000000E-01  0.00000000E+00  0.00000000E+00  1.00000000E+00
  0.00000000E+00  0.00000000E+00  1.00000000E+00  0.00000000E+00  0.00000000E+00
  0.00000000E+00  0.00000000E+00  1.00000000E+00  0.00000000E+00  0.00000000E+00
  0.00000000E+00  0.00000000E+00  1.00000000E+00  0.00000000E+00  0.00000000E+00
  0.00000000E+00  0.00000000E+00  1.00000000E+00  0.00000000E+00  0.00000000E+00
  0.00000000E+00  0.00000000E+00  0.00000000E+00  1.00000000E+00  1.00000000E+00
  0.00000000E+00
MxBond                                     I                4
NBond                                      I   N=          13
           4           3           1           1           1           4
           1           4           1           1           1           1
           1
IBond                                      I   N=          52
           2           3           4           5           1           6
           7           0           1           0           0           0
           1           0           0           0           1           0
           0           0           2           8           9          10
           2           0           0           0           6          11
          12          13           6           0           0           0
           6           0           0           0           8           0
           0           0           8           0           0           0
           8           0           0           0
RBond                                      R   N=          52
  1.00000000E+00  1.00000000E+00  1.00000000E+00  1.00000000E+00  1.00000000E+00
  1.00000000E+00  2.00000000E+00  0.00000000E+00  1.00000000E+00  0.00000000E+00
  0.00000000E+00  0.00000000E+00  1.00000000E+00  0.00000000E+00  0.00000000E+00
  0.00000000E+00  1.00000000E+00  0.00000000E+00  0.00000000E+00  0.00000000E+00
  1.00000000E+00  1.00000000E+00  1.00000000E+00  1.00000000E+00  2.00000000E+00
  0.00000000E+00  0.00000000E+00  0.00000000E+00  1.00000000E+00  1.00000000E+00
  1.00000000E+00  1.00000000E+00  1.00000000E+00  0.00000000E+00  0.00000000E+00
  0.00000000E+00  1.00000000E+00  0.00000000E+00  0.00000000E+00  0.00000000E+00
  1.00000000E+00  0.00000000E+00  0.00000000E+00  0.00000000E+00  1.00000000E+00
  0.00000000E+00  0.00000000E+00  0.00000000E+00  1.00000000E+00  0.00000000E+00
  0.00000000E+00  0.00000000E+00
Virial Ratio                               R      2.005191310288268E+00
SCF Energy                                 R     -5.299278757058316E+02
Total Energy                               R     -5.299278757058316E+02
RMS Force                                  R      6.888045197752205E-05
RMS Density                                R      4.432793269117777E-09
External E-field                           R   N=          35
  0.00000000E+00  0.00000000E+00  0.00000000E+00  0.00000000E+00  0.00000000E+00
  0.00000000E+00  0.00000000E+00  0.00000000E+00  0.00000000E+00  0.00000000E+00
  0.00000000E+00  0.00000000E+00  0.00000000E+00  0.00000000E+00  0.00000000E+00
  0.00000000E+00  0.00000000E+00  0.00000000E+00  0.00000000E+00  0.00000000E+00
  0.00000000E+00  0.00000000E+00  0.00000000E+00  0.00000000E+00  0.00000000E+00
  0.00000000E+00  0.00000000E+00  0.00000000E+00  0.00000000E+00  0.00000000E+00
  0.00000000E+00  0.00000000E+00  0.00000000E+00  0.00000000E+00  0.00000000E+00
IOpCl                                      I                0
IROHF                                      I                0
Alpha Orbital Energies                     R   N=         114
 -2.48923129E+01 -2.48922851E+01 -2.48910069E+01 -1.93033293E+01 -1.05957344E+01
 -1.04393462E+01 -1.03638791E+01 -1.03208219E+01 -1.44029093E+00 -1.35544420E+00
 -1.35479852E+00 -1.19499866E+00 -9.53081947E-01 -8.72653510E-01 -8.01883758E-01
 -7.10926885E-01 -7.03973295E-01 -6.92682301E-01 -6.42765250E-01 -5.97440159E-01
 -5.84933738E-01 -5.76849603E-01 -5.69730190E-01 -5.53183107E-01 -5.42620761E-01
 -5.37550912E-01 -5.27111258E-01 -5.20771153E-01 -5.04938164E-01 -4.96242481E-01
 -4.62520910E-01 -3.69952404E-01  1.28916846E-02  6.20633104E-02  8.06829368E-02
  9.33323690E-02  1.01190168E-01  1.07113471E-01  1.11687577E-01  1.19241699E-01
  1.27567472E-01  1.34436771E-01  1.36451777E-01  1.58766475E-01  1.67683280E-01
  1.71605345E-01  1.77477390E-01  1.79148235E-01  1.83756693E-01  1.95758503E-01
  2.10993104E-01  2.19929489E-01  2.58850874E-01  2.65494352E-01  2.79216770E-01
  2.89962475E-01  3.12515053E-01  3.34543813E-01  3.43784210E-01  3.46910898E-01
  3.63291701E-01  3.72295448E-01  3.83695434E-01  3.88976140E-01  3.95151350E-01
  4.09288814E-01  4.12838192E-01  4.30046731E-01  4.33601285E-01  4.40927634E-01
  4.48851112E-01  4.52601333E-01  4.58862330E-01  4.94772273E-01  5.13084455E-01
  5.26340971E-01  5.37184246E-01  7.10137079E-01  7.34456804E-01  7.55702363E-01
  7.70493989E-01  8.07004350E-01  8.31475259E-01  8.49734281E-01  8.71424858E-01
  9.05686043E-01  9.45302586E-01  9.62309884E-01  1.04181909E+00  1.10352699E+00
  1.15446022E+00  1.16821318E+00  1.21559614E+00  1.22295566E+00  1.23696984E+00
  1.34933534E+00  1.39843161E+00  1.44098895E+00  1.46546961E+00  1.51222908E+00
  1.56230708E+00  1.59382489E+00  1.64484306E+00  1.67565750E+00  1.69261800E+00
  1.73370805E+00  1.80093725E+00  1.82215192E+00  1.83664311E+00  1.85035878E+00
  1.98378176E+00  2.29810682E+00  2.33228273E+00  2.66556911E+00
Alpha MO coefficients                      R   N=       12996
  5.67938800E-06  1.30889799E-04 -1.60752499E-04 -6.26155945E-05  2.14040879E-05
  9.82345178E-04  4.82592962E-04 -1.38075841E-04  8.69905850E-05  1.35047535E-02
 -1.86126014E-03 -2.84627446E-03  5.07817552E-04  1.18114825E-05  2.69685242E-04
 -1.63556849E-04  8.54966137E-05  3.49658027E-05  1.15422279E-03 -8.88857600E-06
 -1.35693379E-03 -1.89730978E-04 -8.35627207E-03  4.52584360E-04 -5.48980623E-03
 -1.03565702E-03  4.69146247E-05 -1.07524965E-04 -3.49936387E-05 -6.43603014E-04
  1.82784483E-04 -6.88883638E-04  1.00099994E-04  4.92185648E-04  2.72055894E-04
 -2.01984854E-04 -6.57672024E-05 -3.38030966E-03  3.16027245E-05 -3.83542873E-04
 -1.49400243E-03  1.97843485E-02 -6.84516104E-03  3.71068973E-03  1.78171717E-03
  6.07818524E-06  6.16462410E-05 -8.61306776E-06  2.64359441E-05 -2.90483559E-05
 -6.04629369E-04  3.07668852E-04 -1.81500033E-04  1.82628809E-04 -6.26059632E-04
 -2.68856618E-04  3.05597871E-04  1.76540395E-04 -2.39279523E-04 -1.07813706E-03
 -1.93937271E-04  4.29421188E-04  5.16007956E-04  8.72975883E-03 -4.42442548E-04
  1.03541679E-03  1.62359720E-03 -2.97074515E-02 -7.30584679E-03  1.94094654E-03
  2.16414589E-03  2.28340090E-04  7.37098665E-04  2.20721942E-05  8.28601773E-05
  8.76330143E-01  2.48253967E-02  1.21541390E-05 -1.37723574E-04 -1.27980910E-03
 -1.54733974E-02 -2.89085510E-05  1.34202494E-04  2.93491883E-03  9.02936022E-03
  7.84593014E-04 -6.13485102E-04 -1.73052962E-03  6.99998008E-03  5.74873561E-04
  3.80809403E-05  3.46353995E-05  3.18368267E-05 -1.70975752E-03 -8.25262845E-04
 -7.57179063E-04 -5.44547576E-04 -1.29381160E-03 -3.84786350E-04 -7.51360336E-04
 -6.93684159E-04  4.71326763E-01  1.35836780E-02  1.06869742E-04 -6.31702178E-04
  2.89737001E-04 -9.22621632E-03 -2.94201008E-04  1.72615151E-03 -1.15654053E-03
  5.07492093E-03  4.08357207E-04 -8.69177255E-04 -4.46786754E-04  5.53451965E-05
  4.64538927E-04 -1.11126202E-04  7.09116973E-05 -2.87063530E-05 -2.53303376E-03
  1.34530461E-03  7.99175535E-04  2.55594412E-04 -4.41764221E-03  7.92047346E-04
  1.13049185E-03  1.05803626E-05 -3.21190454E-05 -2.69126406E-04  1.56703854E-05
 -5.81684784E-05 -2.05135390E-05  1.69482588E-03 -8.97829387E-04  1.88614377E-03
 -2.90002965E-04  1.29912038E-02 -2.88603204E-03  4.97209589E-04 -2.98419079E-04
  2.16203430E-04  8.78885752E-05 -1.55636163E-05 -5.05469538E-04  1.40150800E-04
  4.85861010E-04  4.50936116E-05  2.43845914E-04  7.90846205E-06  3.12245529E-05
 -1.20682464E-04 -1.89469930E-03  6.78632027E-04 -2.28752207E-03  1.32268296E-03
 -4.44416720E-03 -2.52156679E-03 -6.27750654E-04 -5.79891241E-04 -4.72174709E-06
 -3.71217402E-05 -1.22646045E-05  1.65714040E-05 -8.94077663E-06  6.81093602E-04
 -1.37477413E-04 -4.77052711E-05  1.54713737E-06 -5.49420143E-04  3.35208697E-04
  5.19739674E-05 -8.05165432E-05 -8.22403776E-05 -3.58738001E-04 -1.05749769E-04
  5.62777746E-04 -5.99143885E-04  3.40211479E-03 -8.96020151E-05  7.71123437E-04
 -1.10087824E-03 -4.78453007E-03 -1.17663465E-03  1.00952030E-04  1.12642515E-03
 -2.46136989E-04 -5.37404737E-04  3.47395906E-04  4.08265758E-04 -4.71313120E-01
 -1.29327533E-02  9.66119225E-06  8.57302522E-05  6.42451800E-04  6.63581252E-03
  3.84690924E-05 -3.46810872E-04 -4.79144251E-04 -6.12890575E-03 -4.01769732E-05
 -5.35036300E-04  2.36857251E-03  3.82611853E-03  2.65534210E-04  2.19745955E-05
  2.32843801E-05 -1.23393224E-05 -7.36630016E-04 -3.09705323E-04 -4.74292470E-04
  2.34680783E-04 -4.09216499E-04  3.34123054E-06 -6.49669032E-04  5.94604020E-04
  8.76308245E-01  2.44814427E-02  1.85897472E-04 -1.13055482E-03  4.84501360E-04
 -1.40757226E-02 -3.78657662E-04  1.92792838E-03 -6.92512920E-04  9.87294917E-03
  9.98794759E-04 -2.53746466E-03  1.66154112E-03  7.63343445E-06  3.07008646E-05
  3.63042609E-05  4.04599262E-05  3.14271342E-05 -9.87523145E-04  2.07827933E-04
  3.79421046E-04 -2.97208213E-04  9.34794044E-04  6.46023148E-04 -2.85676499E-04
  1.44784645E-05 -5.35163856E-06 -1.14013669E-04  8.48701221E-05 -5.90395666E-05
 -4.67584090E-05 -1.04277684E-03 -5.72847957E-04  1.68619342E-03  4.55615928E-04
 -7.04029944E-04 -1.11296050E-03 -1.32878570E-03 -3.93935475E-04  2.26599290E-05
 -1.95467683E-04  1.38307461E-05  2.40553860E-05  5.00695943E-07  4.71743257E-04
  6.36613617E-05  2.39945321E-04  8.64993563E-05 -5.68169435E-05 -8.41386081E-05
 -2.09608105E-03  2.74384150E-03 -4.19541816E-04  9.81215302E-05  1.18046594E-02
 -2.79000324E-03  1.86534808E-03  1.41228335E-03 -9.20221533E-06 -1.18344836E-04
  9.71122489E-06 -9.75053508E-06  2.14194120E-05  9.68825678E-04 -3.08013331E-04
  1.64475146E-04 -2.28986468E-04  2.31159105E-04  2.91678584E-04  3.20025946E-04
  3.14608930E-05 -2.04829541E-04 -1.02961564E-03 -6.15436353E-04 -3.37655360E-04
 -1.07632626E-04  8.90043030E-03 -1.85286485E-03 -7.37612789E-04 -5.57700781E-04
 -1.39742708E-02 -1.93476758E-03  2.81892646E-03  1.43151610E-03  1.96813810E-04
 -5.42136200E-04  2.82774254E-04 -2.81485182E-04 -4.31033219E-03  1.34378546E-04
 -3.52453053E-05 -2.47432144E-05 -2.06994670E-05 -9.95749621E-04  4.89706622E-04
  3.35026907E-04  8.27834322E-04 -2.02099803E-03  4.00419405E-04  4.03147865E-04
  1.17911893E-03  9.95008081E-01  2.79273348E-02  1.23857688E-03  7.40721117E-04
  2.96352725E-04 -1.65586637E-02 -2.52236250E-03 -1.58256976E-03 -6.23098476E-04
  8.80918778E-03  1.87825850E-03  1.03821512E-03  4.88862013E-04 -6.63586362E-03
  1.38672614E-04 -2.47507969E-05 -2.72961436E-05 -1.05863654E-05 -1.31447764E-03
  3.12356168E-04  9.72581783E-04 -1.87268901E-04 -1.74268589E-03  6.12807531E-04
  1.14374296E-03 -1.61334429E-04 -3.11611340E-05 -4.45752735E-04 -3.42384250E-05
  1.06584462E-04 -8.96799688E-06  3.48184298E-03 -2.32514025E-03 -1.04216330E-03
 -6.00730308E-04  1.40662444E-02 -3.13048271E-04 -3.58241682E-03 -1.74168559E-04
  2.27644675E-04  3.94068353E-04 -7.08761728E-05  1.64009066E-04  1.78123633E-05
  7.66760569E-03  6.36278455E-03 -8.35750367E-03  1.65058148E-03 -2.78476993E-02
  6.42339059E-04 -2.21031194E-03  5.02517388E-04 -1.67490457E-04 -5.40373146E-04
  1.09488232E-04  3.38937606E-04 -9.40871466E-05 -5.20677827E-04 -1.13232140E-05
 -3.38980449E-04 -6.78215527E-05 -1.36598662E-04  7.73273870E-05  8.40938495E-04
 -1.96941806E-03  2.92093088E-03 -1.46802049E-03  6.42747123E-03  3.02070090E-03
  1.26263493E-03 -8.62002163E-04  9.95245414E-01  2.98556115E-02 -1.69280134E-03
  1.43436789E-03 -4.34718349E-04 -2.40419649E-02  4.66754847E-03 -3.65273917E-03
  1.15113820E-03  7.98381530E-03 -8.08542402E-04  4.73185796E-04 -3.07325502E-05
 -2.55228122E-05 -2.95700730E-04 -1.99793457E-04 -1.48958025E-05 -9.44409760E-05
 -4.60199092E-04  9.09722687E-04  9.39332652E-04  2.44588440E-03  3.36033236E-03
  8.90682142E-04 -1.07246769E-03  7.13613848E-04  1.72242500E-04  1.23048444E-03
 -1.00680606E-04 -1.08519130E-03  5.46952373E-06  6.40866983E-05 -1.58679884E-05
  1.76660877E-05 -3.20690535E-05 -5.31887948E-04 -6.34831804E-06 -7.98561552E-05
  3.81821603E-04 -1.62112612E-03  3.86787387E-04  1.32258360E-04  6.39232140E-04
 -4.91959047E-06 -1.02832628E-04 -3.03659156E-05 -3.09498071E-05  2.33209736E-05
  5.24387386E-04  2.84459364E-04  2.13625855E-04 -1.49503978E-04  9.48035803E-04
  3.02119459E-04  2.29144566E-04  6.03042150E-05 -9.74316293E-07  5.26136079E-06
  2.79196281E-05 -5.01804550E-06  3.70326837E-05  1.06659759E-04 -1.55187381E-04
 -3.33223492E-05 -2.45454099E-04 -2.83044715E-04 -4.37222959E-04 -9.87532547E-05