O.pdb                                                                   
FOpt      RwB97XD                                                     6-31+G              
Number of atoms                            I               11
Info1-9                                    I   N=           9
          22          22           0           0           0         100
           2          18        -802
Charge                                     I                0
Multiplicity                               I                1
Number of electrons                        I               40
Number of alpha electrons                  I               20
Number of beta electrons                   I               20
Number of basis functions                  I               77
Number of independent functions            I               77
Number of point charges in /Mol/           I                0
Number of translation vectors              I                0
Atomic numbers                             I   N=          11
           6           6           1           1           1           8
           8           6           1           1           1
Nuclear charges                            R   N=          11
  6.00000000E+00  6.00000000E+00  1.00000000E+00  1.00000000E+00  1.00000000E+00
  8.00000000E+00  8.00000000E+00  6.00000000E+00  1.00000000E+00  1.00000000E+00
  1.00000000E+00
Current cartesian coordinates              R   N=          33
 -1.47873024E+00  2.50329143E+00 -7.21309882E-02 -1.12847649E+00 -3.23045269E-01
 -2.58497055E-02 -4.62276967E-01  3.42514350E+00  1.47749735E+00 -3.48549475E+00
  2.92235859E+00  1.15821173E-01 -7.70735046E-01  3.28191165E+00 -1.85273111E+00
  1.25229515E+00 -1.21768839E+00 -6.02100903E-01 -2.84803816E+00 -1.83716222E+00
  2.81368741E-01  3.49054510E+00  9.84155989E-02  3.10321235E-01  3.65649670E+00
  1.98094191E+00 -5.29008186E-01  5.07036394E+00 -1.06992050E+00 -2.91898579E-01
  3.45755991E+00  2.26399184E-01  2.37213339E+00
Force Field                                I                0
Int Atom Types                             I   N=          11
           0           0           0           0           0           0
           0           0           0           0           0
MM charges                                 R   N=          11
  0.00000000E+00  0.00000000E+00  0.00000000E+00  0.00000000E+00  0.00000000E+00
  0.00000000E+00  0.00000000E+00  0.00000000E+00  0.00000000E+00  0.00000000E+00
  0.00000000E+00
Integer atomic weights                     I   N=          11
          12          12           1           1           1          16
          16          12           1           1           1
Real atomic weights                        R   N=          11
  1.20000000E+01  1.20000000E+01  1.00782504E+00  1.00782504E+00  1.00782504E+00
  1.59949146E+01  1.59949146E+01  1.20000000E+01  1.00782504E+00  1.00782504E+00
  1.00782504E+00
Atom fragment info                         I   N=          11
           0           0           0           0           0           0
           0           0           0           0           0
Atom residue num                           I   N=          11
           0           0           0           0           0           0
           0           0           0           0           0
Nuclear spins                              I   N=          11
           0           0           1           1           1           0
           0           0           1           1           1
Nuclear ZEff                               R   N=          11
 -3.60000000E+00 -3.60000000E+00 -1.00000000E+00 -1.00000000E+00 -1.00000000E+00
 -5.60000000E+00 -5.60000000E+00 -3.60000000E+00 -1.00000000E+00 -1.00000000E+00
 -1.00000000E+00
Nuclear ZNuc                               R   N=          11
  6.00000000E+00  6.00000000E+00  1.00000000E+00  1.00000000E+00  1.00000000E+00
  8.00000000E+00  8.00000000E+00  6.00000000E+00  1.00000000E+00  1.00000000E+00
  1.00000000E+00
Nuclear QMom                               R   N=          11
  0.00000000E+00  0.00000000E+00  0.00000000E+00  0.00000000E+00  0.00000000E+00
  0.00000000E+00  0.00000000E+00  0.00000000E+00  0.00000000E+00  0.00000000E+00
  0.00000000E+00
Nuclear GFac                               R   N=          11
  0.00000000E+00  0.00000000E+00  2.79284600E+00  2.79284600E+00  2.79284600E+00
  0.00000000E+00  0.00000000E+00  0.00000000E+00  2.79284600E+00  2.79284600E+00
  2.79284600E+00
MicOpt                                     I   N=          11
          -1          -1          -1          -1          -1          -1
          -1          -1          -1          -1          -1
Number of contracted shells                I               32
Number of primitive shells                 I               79
Pure/Cartesian d shells                    I                1
Pure/Cartesian f shells                    I                0
Highest angular momentum                   I                1
Largest degree of contraction              I                6
Shell types                                I   N=          32
           0          -1          -1          -1           0          -1
          -1          -1           0           0           0           0
           0           0           0          -1          -1          -1
           0          -1          -1          -1           0          -1
          -1          -1           0           0           0           0
           0           0
Number of primitives per shell             I   N=          32
           6           3           1           1           6           3
           1           1           3           1           3           1
           3           1           6           3           1           1
           6           3           1           1           6           3
           1           1           3           1           3           1
           3           1
Shell to atom map                          I   N=          32
           1           1           1           1           2           2
           2           2           3           3           4           4
           5           5           6           6           6           6
           7           7           7           7           8           8
           8           8           9           9          10          10
          11          11
Primitive exponents                        R   N=          79
  3.04752488E+03  4.57369518E+02  1.03948685E+02  2.92101553E+01  9.28666296E+00
  3.16392696E+00  7.86827235E+00  1.88128854E+00  5.44249258E-01  1.68714478E-01
  4.38000000E-02  3.04752488E+03  4.57369518E+02  1.03948685E+02  2.92101553E+01
  9.28666296E+00  3.16392696E+00  7.86827235E+00  1.88128854E+00  5.44249258E-01
  1.68714478E-01  4.38000000E-02  1.87311370E+01  2.82539436E+00  6.40121692E-01
  1.61277759E-01  1.87311370E+01  2.82539436E+00  6.40121692E-01  1.61277759E-01
  1.87311370E+01  2.82539436E+00  6.40121692E-01  1.61277759E-01  5.48467166E+03
  8.25234946E+02  1.88046958E+02  5.29645000E+01  1.68975704E+01  5.79963534E+00
  1.55396162E+01  3.59993359E+00  1.01376175E+00  2.70005823E-01  8.45000000E-02
  5.48467166E+03  8.25234946E+02  1.88046958E+02  5.29645000E+01  1.68975704E+01
  5.79963534E+00  1.55396162E+01  3.59993359E+00  1.01376175E+00  2.70005823E-01
  8.45000000E-02  3.04752488E+03  4.57369518E+02  1.03948685E+02  2.92101553E+01
  9.28666296E+00  3.16392696E+00  7.86827235E+00  1.88128854E+00  5.44249258E-01
  1.68714478E-01  4.38000000E-02  1.87311370E+01  2.82539436E+00  6.40121692E-01
  1.61277759E-01  1.87311370E+01  2.82539436E+00  6.40121692E-01  1.61277759E-01
  1.87311370E+01  2.82539436E+00  6.40121692E-01  1.61277759E-01
Contraction coefficients                   R   N=          79
  1.83473713E-03  1.40373228E-02  6.88426223E-02  2.32184443E-01  4.67941348E-01
  3.62311985E-01 -1.19332420E-01 -1.60854152E-01  1.14345644E+00  1.00000000E+00
  1.00000000E+00  1.83473713E-03  1.40373228E-02  6.88426223E-02  2.32184443E-01
  4.67941348E-01  3.62311985E-01 -1.19332420E-01 -1.60854152E-01  1.14345644E+00
  1.00000000E+00  1.00000000E+00  3.34946043E-02  2.34726953E-01  8.13757326E-01
  1.00000000E+00  3.34946043E-02  2.34726953E-01  8.13757326E-01  1.00000000E+00
  3.34946043E-02  2.34726953E-01  8.13757326E-01  1.00000000E+00  1.83107443E-03
  1.39501722E-02  6.84450781E-02  2.32714336E-01  4.70192898E-01  3.58520853E-01
 -1.10777550E-01 -1.48026263E-01  1.13076702E+00  1.00000000E+00  1.00000000E+00
  1.83107443E-03  1.39501722E-02  6.84450781E-02  2.32714336E-01  4.70192898E-01
  3.58520853E-01 -1.10777550E-01 -1.48026263E-01  1.13076702E+00  1.00000000E+00
  1.00000000E+00  1.83473713E-03  1.40373228E-02  6.88426223E-02  2.32184443E-01
  4.67941348E-01  3.62311985E-01 -1.19332420E-01 -1.60854152E-01  1.14345644E+00
  1.00000000E+00  1.00000000E+00  3.34946043E-02  2.34726953E-01  8.13757326E-01
  1.00000000E+00  3.34946043E-02  2.34726953E-01  8.13757326E-01  1.00000000E+00
  3.34946043E-02  2.34726953E-01  8.13757326E-01  1.00000000E+00
P(S=P) Contraction coefficients            R   N=          79
  0.00000000E+00  0.00000000E+00  0.00000000E+00  0.00000000E+00  0.00000000E+00
  0.00000000E+00  6.89990666E-02  3.16423961E-01  7.44308291E-01  1.00000000E+00
  1.00000000E+00  0.00000000E+00  0.00000000E+00  0.00000000E+00  0.00000000E+00
  0.00000000E+00  0.00000000E+00  6.89990666E-02  3.16423961E-01  7.44308291E-01
  1.00000000E+00  1.00000000E+00  0.00000000E+00  0.00000000E+00  0.00000000E+00
  0.00000000E+00  0.00000000E+00  0.00000000E+00  0.00000000E+00  0.00000000E+00
  0.00000000E+00  0.00000000E+00  0.00000000E+00  0.00000000E+00  0.00000000E+00
  0.00000000E+00  0.00000000E+00  0.00000000E+00  0.00000000E+00  0.00000000E+00
  7.08742682E-02  3.39752839E-01  7.27158577E-01  1.00000000E+00  1.00000000E+00
  0.00000000E+00  0.00000000E+00  0.00000000E+00  0.00000000E+00  0.00000000E+00
  0.00000000E+00  7.08742682E-02  3.39752839E-01  7.27158577E-01  1.00000000E+00
  1.00000000E+00  0.00000000E+00  0.00000000E+00  0.00000000E+00  0.00000000E+00
  0.00000000E+00  0.00000000E+00  6.89990666E-02  3.16423961E-01  7.44308291E-01
  1.00000000E+00  1.00000000E+00  0.00000000E+00  0.00000000E+00  0.00000000E+00
  0.00000000E+00  0.00000000E+00  0.00000000E+00  0.00000000E+00  0.00000000E+00
  0.00000000E+00  0.00000000E+00  0.00000000E+00  0.00000000E+00
Coordinates of each shell                  R   N=          96
 -1.47873024E+00  2.50329143E+00 -7.21309882E-02 -1.47873024E+00  2.50329143E+00
 -7.21309882E-02 -1.47873024E+00  2.50329143E+00 -7.21309882E-02 -1.47873024E+00
  2.50329143E+00 -7.21309882E-02 -1.12847649E+00 -3.23045269E-01 -2.58497055E-02
 -1.12847649E+00 -3.23045269E-01 -2.58497055E-02 -1.12847649E+00 -3.23045269E-01
 -2.58497055E-02 -1.12847649E+00 -3.23045269E-01 -2.58497055E-02 -4.62276967E-01
  3.42514350E+00  1.47749735E+00 -4.62276967E-01  3.42514350E+00  1.47749735E+00
 -3.48549475E+00  2.92235859E+00  1.15821173E-01 -3.48549475E+00  2.92235859E+00
  1.15821173E-01 -7.70735046E-01  3.28191165E+00 -1.85273111E+00 -7.70735046E-01
  3.28191165E+00 -1.85273111E+00  1.25229515E+00 -1.21768839E+00 -6.02100903E-01
  1.25229515E+00 -1.21768839E+00 -6.02100903E-01  1.25229515E+00 -1.21768839E+00
 -6.02100903E-01  1.25229515E+00 -1.21768839E+00 -6.02100903E-01 -2.84803816E+00
 -1.83716222E+00  2.81368741E-01 -2.84803816E+00 -1.83716222E+00  2.81368741E-01
 -2.84803816E+00 -1.83716222E+00  2.81368741E-01 -2.84803816E+00 -1.83716222E+00
  2.81368741E-01  3.49054510E+00  9.84155989E-02  3.10321235E-01  3.49054510E+00
  9.84155989E-02  3.10321235E-01  3.49054510E+00  9.84155989E-02  3.10321235E-01
  3.49054510E+00  9.84155989E-02  3.10321235E-01  3.65649670E+00  1.98094191E+00
 -5.29008186E-01  3.65649670E+00  1.98094191E+00 -5.29008186E-01  5.07036394E+00
 -1.06992050E+00 -2.91898579E-01  5.07036394E+00 -1.06992050E+00 -2.91898579E-01
  3.45755991E+00  2.26399184E-01  2.37213339E+00  3.45755991E+00  2.26399184E-01
  2.37213339E+00
Constraint Structure                       R   N=          33
 -1.47873024E+00  2.50329143E+00 -7.21309882E-02 -1.12847649E+00 -3.23045269E-01
 -2.58497055E-02 -4.62276967E-01  3.42514350E+00  1.47749735E+00 -3.48549475E+00
  2.92235859E+00  1.15821173E-01 -7.70735046E-01  3.28191165E+00 -1.85273111E+00
  1.25229515E+00 -1.21768839E+00 -6.02100903E-01 -2.84803816E+00 -1.83716222E+00
  2.81368741E-01  3.49054510E+00  9.84155989E-02  3.10321235E-01  3.65649670E+00
  1.98094191E+00 -5.29008186E-01  5.07036394E+00 -1.06992050E+00 -2.91898579E-01
  3.45755991E+00  2.26399184E-01  2.37213339E+00
Num ILSW                                   I              100
ILSW                                       I   N=         100
           0           1           0           0           2           0
           0           0           0           0        4639          -1
           0           0           0           0           2           0
           0           0           0           0           1           0
           1           0           0           0           0           0
           0           0      100000           0          -1           0
           0           0           0           0           0           0
           0           0           0           1           0           0
           0           0           1           0           0           0
           0           0         121          41           0           0
           0           0          58           0           0           0
           0           0           0          11           0           0
           0           0           0           0           0           0
           0           0           0           0           0           0
           0           0           0           0           0           0
           0           0           0           0           0           0
           0           0           0           0
Num RLSW                                   I               41
RLSW                                       R   N=          41
  1.00000000E+00  1.00000000E+00  1.00000000E+00  1.00000000E+00  1.00000000E+00
  0.00000000E+00  2.00000000E-01  2.22036000E-01  0.00000000E+00  7.77964000E-01
  0.00000000E+00  2.00000000E-01  0.00000000E+00  0.00000000E+00  1.00000000E+00
  0.00000000E+00  0.00000000E+00  1.00000000E+00  0.00000000E+00  0.00000000E+00
  0.00000000E+00  0.00000000E+00  1.00000000E+00  0.00000000E+00  0.00000000E+00
  0.00000000E+00  0.00000000E+00  1.00000000E+00  0.00000000E+00  0.00000000E+00
  0.00000000E+00  0.00000000E+00  1.00000000E+00  0.00000000E+00  0.00000000E+00
  0.00000000E+00  0.00000000E+00  0.00000000E+00  1.00000000E+00  1.00000000E+00
  0.00000000E+00
MxBond                                     I                4
NBond                                      I   N=          11
           4           3           1           1           1           2
           1           4           1           1           1
IBond                                      I   N=          44
           2           3           4           5           1           6
           7           0           1           0           0           0
           1           0           0           0           1           0
           0           0           2           8           0           0
           2           0           0           0           6           9
          10          11           8           0           0           0
           8           0           0           0           8           0
           0           0
RBond                                      R   N=          44
  1.00000000E+00  1.00000000E+00  1.00000000E+00  1.00000000E+00  1.00000000E+00
  1.50000000E+00  2.00000000E+00  0.00000000E+00  1.00000000E+00  0.00000000E+00
  0.00000000E+00  0.00000000E+00  1.00000000E+00  0.00000000E+00  0.00000000E+00
  0.00000000E+00  1.00000000E+00  0.00000000E+00  0.00000000E+00  0.00000000E+00
  1.50000000E+00  1.00000000E+00  0.00000000E+00  0.00000000E+00  2.00000000E+00
  0.00000000E+00  0.00000000E+00  0.00000000E+00  1.00000000E+00  1.00000000E+00
  1.00000000E+00  1.00000000E+00  1.00000000E+00  0.00000000E+00  0.00000000E+00
  0.00000000E+00  1.00000000E+00  0.00000000E+00  0.00000000E+00  0.00000000E+00
  1.00000000E+00  0.00000000E+00  0.00000000E+00  0.00000000E+00
Virial Ratio                               R      2.005726788010864E+00
SCF Energy                                 R     -2.682053201124483E+02
Total Energy                               R     -2.682053201124483E+02
RMS Force                                  R      2.152867578719232E-03
RMS Density                                R      3.476530094093953E-09
External E-field                           R   N=          35
  0.00000000E+00  0.00000000E+00  0.00000000E+00  0.00000000E+00  0.00000000E+00
  0.00000000E+00  0.00000000E+00  0.00000000E+00  0.00000000E+00  0.00000000E+00
  0.00000000E+00  0.00000000E+00  0.00000000E+00  0.00000000E+00  0.00000000E+00
  0.00000000E+00  0.00000000E+00  0.00000000E+00  0.00000000E+00  0.00000000E+00
  0.00000000E+00  0.00000000E+00  0.00000000E+00  0.00000000E+00  0.00000000E+00
  0.00000000E+00  0.00000000E+00  0.00000000E+00  0.00000000E+00  0.00000000E+00
  0.00000000E+00  0.00000000E+00  0.00000000E+00  0.00000000E+00  0.00000000E+00
IOpCl                                      I                0
IROHF                                      I                0
Alpha Orbital Energies                     R   N=          77
 -1.93185227E+01 -1.92759370E+01 -1.04524226E+01 -1.03697981E+01 -1.03212830E+01
 -1.21687090E+00 -1.14002074E+00 -8.72117640E-01 -8.37098943E-01 -6.71135179E-01
 -6.04535766E-01 -5.90112286E-01 -5.75726894E-01 -5.37843255E-01 -5.18006045E-01
 -5.08087436E-01 -4.77062201E-01 -4.28689212E-01 -3.86509913E-01 -3.63754465E-01
  5.09629839E-02  6.36502330E-02  7.67110964E-02  9.15450840E-02  9.51318095E-02
  1.19871667E-01  1.25539648E-01  1.29060595E-01  1.43877374E-01  1.48287317E-01
  1.67032535E-01  1.71071327E-01  1.93510634E-01  2.11297261E-01  2.34835841E-01
  2.64855723E-01  2.71424675E-01  2.93816213E-01  2.98586513E-01  3.13654716E-01
  3.37257067E-01  3.49463914E-01  3.65174180E-01  3.70917781E-01  3.91425930E-01
  3.96018370E-01  4.14518135E-01  4.33892753E-01  4.46042225E-01  4.57147939E-01
  5.62727898E-01  6.73937262E-01  7.25451360E-01  7.38019280E-01  7.40448857E-01
  7.82583740E-01  8.07933632E-01  8.52907330E-01  9.33961427E-01  9.50607070E-01
  1.07626070E+00  1.09070849E+00  1.11281583E+00  1.15989173E+00  1.16353972E+00
  1.21449510E+00  1.24716508E+00  1.27680738E+00  1.33787048E+00  1.37376282E+00
  1.40286469E+00  1.44410714E+00  1.46460925E+00  1.50603697E+00  1.65576437E+00
  1.91517818E+00  2.02209512E+00
Alpha MO coefficients                      R   N=        5929
 -2.28357315E-06 -2.49453611E-04 -5.37227200E-05  1.37526214E-04  1.44620301E-05
  5.06470837E-04 -1.78226846E-03  6.02856042E-05  3.01817058E-04  1.60791308E-02
  1.80727030E-03 -3.86146478E-03 -4.88392644E-05  8.26785391E-05  3.26215547E-04
  3.99611753E-04 -8.11553953E-05 -4.99592766E-05  1.96123469E-03  5.29127722E-03
 -4.29097921E-04 -1.00160704E-03 -1.99955912E-02 -2.61483384E-03 -5.07761999E-03
  4.50340905E-04  2.02674466E-04 -5.78027988E-04 -1.80871960E-04 -8.68341660E-04
  1.32613645E-04 -3.65228586E-04  9.95232009E-01  2.97994219E-02 -3.03417137E-04
  1.63882464E-03  9.30458260E-04 -2.13582512E-02  1.14980402E-03 -3.11821836E-03
 -1.68814975E-03  1.01782256E-02 -3.93887994E-04  1.46440219E-03  3.16675193E-04
 -4.83855012E-04 -3.18077550E-04 -5.08621717E-05 -9.11297443E-05  7.16400213E-06
  1.45422111E-03 -1.91299666E-04  1.00060947E-03  2.22237870E-05  1.34528307E-03
  3.09397827E-04  7.81114104E-04  8.21984060E-05 -1.27116939E-05 -3.57244167E-05
 -6.40252077E-04 -2.54926856E-04 -1.67182377E-04  3.61919893E-03 -9.67135689E-04
 -6.03965250E-04 -4.80288868E-04 -2.38994226E-05  7.55078998E-04  1.01287988E-04
  5.02158602E-04 -3.40899256E-04 -8.97078194E-04 -2.19918389E-04 -1.10824791E-03
 -2.98029786E-04 -8.11321988E-04 -1.92165610E-05 -3.39612510E-04  3.42107382E-05
  1.15419208E-04 -3.33939058E-05  2.85823967E-03  2.22397937E-03 -8.85047665E-04
 -6.48659880E-05  1.00642659E-02 -7.82498860E-04 -2.67678096E-03  2.31020916E-04
  2.28048433E-04  2.47023239E-04  1.64476694E-05  1.81705116E-04  3.73888375E-05
  8.29444977E-03 -6.12631370E-03 -7.62005075E-03  9.09728607E-04 -1.24761777E-02
  3.42227141E-03 -2.28055182E-03 -5.35083670E-04 -8.65528743E-05 -6.55529301E-04
  1.40320509E-04  2.51507423E-04 -1.31606657E-04 -2.78473253E-04  4.76867345E-04
 -2.06720558E-04  1.07555232E-04 -9.80044880E-05 -3.21462052E-05  2.34486786E-04
  3.95904948E-04  1.11753721E-03 -8.43979278E-05 -1.79708100E-03  2.07518632E-03
  3.44989230E-04 -5.32961138E-04  9.95235594E-01  2.98388332E-02  1.72002198E-03
  1.50022697E-03 -3.18069418E-04 -2.37010352E-02 -4.54727494E-03 -3.67223378E-03
  8.55155495E-04  7.83346724E-03  6.11475641E-04  5.21874497E-04 -8.85028470E-05
 -4.01684237E-05 -4.35023486E-04  1.51093353E-04 -6.90582399E-06  3.50681730E-05
  7.85648977E-04 -7.75250162E-04  4.84330204E-04  4.23426533E-04 -8.21872338E-04
  1.69951881E-04  1.72784472E-04  3.57720399E-04 -2.78840257E-05 -5.61519043E-04
  8.53033088E-05 -5.36194375E-06 -1.12419087E-04 -3.05654106E-04  7.20094378E-04
 -8.02349061E-04  1.43419561E-04  2.83568553E-04 -8.15602216E-06  6.82481472E-03
 -8.13987327E-04 -2.65097450E-03  1.48755596E-06  1.04899946E-02  1.00722589E-03
 -1.68137769E-03  1.44011452E-04  9.95558692E-01  3.69023465E-02  8.74508900E-05
 -1.18364601E-03 -1.55597139E-04 -3.45532631E-02 -3.71783377E-04 -7.94851855E-04
  5.01860477E-04 -1.95191281E-02 -3.40213064E-03 -3.91035204E-03  3.12920389E-04
 -1.50135579E-04 -3.27265452E-04 -1.45978721E-04 -1.83765431E-03 -1.30752505E-04
 -6.39811084E-04  4.26484707E-05  4.20473996E-04  1.59151585E-04 -9.82380190E-05
 -6.97633406E-05 -9.62786780E-05  6.07025160E-04  1.28105566E-04  9.93401485E-06
  1.16512006E-02 -5.24362858E-03  4.33431754E-03  1.26632224E-03 -1.48623484E-04
 -1.61839709E-05 -3.77731183E-04 -3.36898204E-04  7.60564373E-05  5.92341262E-04
 -3.62092030E-04  2.45116708E-05 -2.20658535E-06  8.92408059E-03  3.67484934E-03
  3.91571757E-03 -6.46510920E-04 -4.26106714E-05 -1.65622824E-04  7.28048621E-05
 -9.42916928E-06 -6.35178520E-05 -8.01236961E-04  1.83877348E-05  8.10964987E-04
  8.85074354E-04  4.78228997E-03 -1.35999468E-03 -9.51679232E-04 -4.39202544E-04
  7.06235314E-05 -1.46816315E-03  6.84001014E-05  1.01389795E-03 -1.55756374E-04
 -1.08242723E-03 -1.78549778E-04 -2.09759757E-04 -2.10435785E-04  1.18195709E-04
 -9.38406433E-06 -8.31343392E-04 -3.87256187E-04  5.13780402E-04 -8.40156878E-05
  1.40116588E-02  5.66098797E-04 -2.99192456E-03  4.08772566E-04  2.81267296E-06
 -1.89343847E-04 -9.05011331E-05 -4.21653308E-05  2.03216417E-05 -2.78253760E-03
  2.15629349E-03  2.44982320E-03 -3.84566876E-04 -9.12775901E-03  2.12137384E-03
 -6.26647943E-03 -8.92140890E-04 -1.34082035E-04  2.52304800E-04  8.56098672E-06
 -4.12855427E-04  1.12709582E-04 -8.96320570E-04  4.96861451E-05  4.18226451E-04
 -3.93452572E-05  2.76828066E-05 -8.76204044E-05  8.20515713E-04  1.85340882E-04
 -2.49533091E-04  4.95747696E-04  1.36710400E-02  7.49973272E-03  4.83073269E-03
  2.33526742E-03 -2.54722909E-05 -3.45012177E-04 -3.81252789E-05 -5.74114741E-06
  5.45317791E-05  2.35329915E-03  9.77537225E-04  5.19378851E-04 -3.82243519E-04
  3.89374250E-03  1.18319375E-03  1.33968076E-03 -3.72503843E-04  9.95540420E-01
  3.72072963E-02 -1.04720873E-03 -4.51541870E-04 -3.76564821E-04 -3.57547035E-02
  2.96836301E-03  1.34756951E-03  9.67901306E-04 -1.16809639E-02  3.71297553E-03
  1.32552961E-03  1.09089151E-03 -5.42378953E-04  5.70262203E-03 -4.83442921E-04
  5.11895437E-03 -5.75373315E-04  6.06839975E-03  9.95479340E-01  3.75930705E-02
  2.90155991E-04 -1.99483776E-04  1.03360877E-05 -3.91669704E-02 -9.34177624E-04
  3.57778527E-03 -9.55234645E-06 -1.18889502E-02 -2.07531744E-04  2.42835029E-03
  3.78483555E-05 -7.15026277E-04 -8.82216406E-04  1.27819416E-04 -7.08416818E-04
  3.97160099E-05  6.83617432E-03 -1.57806030E-03  8.68298389E-03 -6.85432719E-05
  9.49518560E-03 -8.13404682E-04  2.72902935E-03 -5.13483476E-05 -5.14280578E-04
  7.84997313E-03 -4.87880239E-04  7.06265816E-03 -5.24960513E-04  7.94559855E-03
 -6.79961866E-06 -2.72269798E-04  1.71275983E-04 -9.50052930E-05 -3.28093893E-05
  4.69221826E-04 -1.17838111E-03 -2.83786390E-04  1.75437648E-04  2.66172600E-03
 -1.41375374E-04  3.79291538E-04  4.16416302E-04 -8.94996898E-06 -2.58327108E-04
 -1.01011706E-04 -6.50513167E-05  1.13191877E-05  8.16075328E-04  9.99772099E-04
 -3.43125049E-04 -1.32965919E-04  1.95753551E-03  1.13096933E-03  5.93176083E-04
 -1.37006298E-04  1.54904828E-04 -3.02342376E-04  1.90849190E-04 -1.94857787E-04
 -3.51428534E-05  3.47926593E-04 -8.46689682E-04  4.41364198E-04 -1.40521171E-05
 -1.42709311E-03  9.51144810E-04 -1.38520139E-04  2.22430878E-04 -3.51084952E-04
  7.81336574E-04  2.69984109E-05  4.08833410E-04 -1.64672479E-05 -3.31435916E-04
 -1.86961665E-02  3.52483973E-02  3.97957186E-03 -2.62246119E-02 -4.83005536E-05
  3.34859866E-03  4.71952497E-03  5.29117710E-03 -1.23811014E-03 -1.58505107E-01
 -3.84498231E-03  3.84703141E-02 -3.38643905E-03 -1.21151689E-01  2.48657438E-01
 -4.30763521E-03 -1.01727226E-01 -2.79826647E-03  4.01032135E-02  3.03598619E-03
  4.98103418E-02  1.51670894E-03  1.71516898E-01 -9.88137274E-03  5.87676692E-02
  3.90164344E-03  4.92101669E-03  6.86234688E-04  5.85190376E-03  4.69097434E-03
  5.65081556E-03 -8.61173203E-04 -1.46465839E-01  3.14103256E-01 -4.66364316E-02
  6.64768192E-02  4.52923333E-02  3.47873509E-01 -2.30033160E-02  4.55274906E-02
  3.13417200E-02 -3.94425480E-02 -4.84062807E-03 -2.35037364E-02 -5.49601572E-03
 -1.18276987E-01  2.59128449E-01  9.63129847E-02  7.56096214E-02 -1.76538927E-02
  2.50770888E-01  3.90719893E-02  2.79687616E-02 -7.14368780E-03 -1.63497555E-02
  2.03039958E-03 -1.03271297E-02 -1.99055351E-03 -3.93623110E-02  7.61040157E-02
 -4.85866370E-02 -2.31285011E-02 -1.60795976E-02  2.42360505E-02  9.79976080E-03
  1.85881053E-03  3.53867443E-05  1.41275743E-02 -1.03952678E-02 -1.99571718E-03
 -4.35479796E-03  1.26374035E-02  3.65921648E-03  1.07373107E-02  1.35668391E-03
  1.29519252E-02  3.98841728E-03 -3.60454900E-03  8.67156349E-03 -1.18862502E-02
 -7.88779532E-03  2.37865841E-03 -1.67565354E-02 -2.74148094E-02  7.91584432E-03
  2.36287808E-03  7.20614920E-02  1.28234541E-02 -1.51020103E-02  3.49000403E-04
 -4.35797620E-02  9.41788826E-02 -2.08632796E-01 -8.59952871E-02  3.81139206E-02
  4.28677859E-03  7.57471194E-02  4.67336706E-02 -1.33568868E-02 -8.36299964E-02
 -2.05257087E-02 -3.37224662E-02 -9.55326580E-04  7.14009758E-04  1.77680630E-03
  3.56396624E-03 -8.25210504E-03  3.03089843E-04 -1.03032942E-04  1.38381431E-01
 -2.98785129E-01 -1.31561202E-02 -7.36857708E-02 -3.92570087E-02 -3.48943155E-01
 -6.32230223E-04 -5.66760759E-02 -2.69117830E-02  1.01650326E-02  5.68275608E-03
  4.39238972E-03  3.30005373E-03 -1.52482032E-01  3.34799886E-01  9.57921671E-02
  9.75357266E-02 -1.68769110E-02  3.49730399E-01  4.12392785E-02  4.27503062E-02
 -8.02572227E-03  3.19447512E-02  1.33046995E-02  1.86715174E-02  2.79344354E-04
  5.24180218E-02 -9.61827686E-02  5.71432369E-02  2.99621618E-02  2.14040430E-02
 -5.38143780E-02  3.57587192E-03 -1.08838532E-02 -7.74307027E-03 -1.17437919E-03
  4.15028530E-03  1.40172705E-03  1.62304914E-03 -1.68841427E-02  5.84548220E-03
 -1.75469265E-02 -7.46995236E-03 -1.65992554E-02  5.95915376E-03 -1.75940992E-01
  3.29365627E-01  1.48576881E-02 -4.36788642E-02 -1.07064958E-03  3.45293905E-01
  9.93979535E-03 -7.55940363E-03 -1.21478481E-03  1.26815746E-01  1.74329039E-03
 -3.21287213E-02  1.33409838E-03 -7.37231567E-02  1.55521846E-01  4.58031369E-02
  1.79397679E-01 -1.86595329E-02  1.09677998E-01  6.84669606E-03  2.42059746E-02
 -1.45584766E-03 -8.30953139E-02  2.55817705E-02 -2.69567630E-02 -3.26397759E-03
  1.07724780E-01  4.06544272E-03  1.01792552E-01  4.48736280E-03  1.08333287E-01
  2.60053245E-03  2.36448385E-02 -5.38121771E-02 -9.86661435E-02  2.43719853E-02
 -1.28679489E-02 -6.74537847E-02 -4.54190070E-02  5.60170879E-03 -7.85836284E-03
  3.39122656E-03  1.93002093E-02  2.70938997E-03  1.83714079E-03  4.94731018E-02
 -1.14506104E-01 -2.09324755E-02  1.53555480E-02  1.06439395E-03 -1.20244021E-01
 -4.55665348E-03  5.74261196E-03 -5.10937564E-04 -6.47610978E-05 -6.87390206E-03
 -4.72995579E-03  3.82954248E-04  5.51274311E-02 -1.09749686E-01  7.65247148E-03
  2.79748464E-02  1.04106046E-02 -9.95013690E-02 -7.25737307E-03  6.16857188E-03
  1.14603992E-03 -3.73524925E-02  1.15496058E-02  4.74554320E-03  4.81417415E-03
 -2.48279811E-02 -2.83694607E-03 -3.93160273E-02 -4.42177751E-03 -3.05097579E-02
 -4.04967560E-03 -6.31444377E-02  1.15863736E-01 -6.60740905E-03  9.10485415E-03
  7.08469767E-03  1.41182748E-01  6.74454984E-04 -4.00684251E-03  2.43154995E-03
  5.73673651E-02  6.15681819E-03 -1.49729439E-02 -2.23747055E-03  2.98063902E-02
 -6.92879629E-02 -1.39591417E-01  9.31715135E-02  4.46225482E-02 -6.01251154E-02
  6.76503911E-03  7.11064728E-03  4.10904425E-03 -1.02450579E-01 -1.76176737E-02
 -8.23018239E-03  5.44678337E-03  4.74847971E-02  5.49644100E-03  4.50783645E-02
  7.54110123E-03  4.10658960E-02  2.65053455E-03  4.60737535E-02 -1.05012135E-01
  2.30158529E-01  2.68567691E-02  1.71260361E-02 -1.48894507E-01  9.99560457E-02
  3.08743941E-03  2.66169017E-03 -3.84757763E-02 -3.37204690E-02 -8.86211068E-03
 -6.33407041E-03 -2.31741565E-02  5.16603062E-02 -2.86151317E-02  2.86312412E-02
  1.04599578E-02  7.01423090E-02 -7.60226676E-03  1.81579016E-02  3.45715883E-03
  1.54349649E-02 -7.26892226E-05  4.56664115E-03  2.30977649E-06 -1.68748268E-01
  3.28437011E-01  2.04628137E-02  2.52389926E-03  2.39224781E-04  3.56823743E-01
 -6.80460046E-04  9.24472343E-03  3.58730438E-03  7.25398800E-02 -2.14764209E-02