 Entering Gaussian System, Link 0=/opt/cluster/programs/g09_d.01/g09//g09
 Input=/home/unibas/boittier/RDKit_G2/L.pdb/SCAN_1_2_3_4_S_17_20.0/14_SCAN_1_2_3_4_F/14_SCAN_L.pdb.com
 Output=/scratch/boittier/14_SCAN_L.pdb/14_SCAN_L.pdb.out
 Initial command:
 /opt/cluster/programs/g09_d.01/g09/l1.exe "/scratch/boittier/14_SCAN_L.pdb/Gau-185299.inp" -scrdir="/scratch/boittier/14_SCAN_L.pdb/"
 Entering Link 1 = /opt/cluster/programs/g09_d.01/g09/l1.exe PID=    185300.
  
 Copyright (c) 1988,1990,1992,1993,1995,1998,2003,2009,2013,
            Gaussian, Inc.  All Rights Reserved.
  
 This is part of the Gaussian(R) 09 program.  It is based on
 the Gaussian(R) 03 system (copyright 2003, Gaussian, Inc.),
 the Gaussian(R) 98 system (copyright 1998, Gaussian, Inc.),
 the Gaussian(R) 94 system (copyright 1995, Gaussian, Inc.),
 the Gaussian 92(TM) system (copyright 1992, Gaussian, Inc.),
 the Gaussian 90(TM) system (copyright 1990, Gaussian, Inc.),
 the Gaussian 88(TM) system (copyright 1988, Gaussian, Inc.),
 the Gaussian 86(TM) system (copyright 1986, Carnegie Mellon
 University), and the Gaussian 82(TM) system (copyright 1983,
 Carnegie Mellon University). Gaussian is a federally registered
 trademark of Gaussian, Inc.
  
 This software contains proprietary and confidential information,
 including trade secrets, belonging to Gaussian, Inc.
  
 This software is provided under written license and may be
 used, copied, transmitted, or stored only in accord with that
 written license.
  
 The following legend is applicable only to US Government
 contracts under FAR:
  
                    RESTRICTED RIGHTS LEGEND
  
 Use, reproduction and disclosure by the US Government is
 subject to restrictions as set forth in subparagraphs (a)
 and (c) of the Commercial Computer Software - Restricted
 Rights clause in FAR 52.227-19.
  
 Gaussian, Inc.
 340 Quinnipiac St., Bldg. 40, Wallingford CT 06492
  
  
 ---------------------------------------------------------------
 Warning -- This program may not be used in any manner that
 competes with the business of Gaussian, Inc. or will provide
 assistance to any competitor of Gaussian, Inc.  The licensee
 of this program is prohibited from giving any competitor of
 Gaussian, Inc. access to this program.  By using this program,
 the user acknowledges that Gaussian, Inc. is engaged in the
 business of creating and licensing software in the field of
 computational chemistry and represents and warrants to the
 licensee that it is not a competitor of Gaussian, Inc. and that
 it will not use this program in any manner prohibited above.
 ---------------------------------------------------------------
  

 Cite this work as:
 Gaussian 09, Revision D.01,
 M. J. Frisch, G. W. Trucks, H. B. Schlegel, G. E. Scuseria, 
 M. A. Robb, J. R. Cheeseman, G. Scalmani, V. Barone, B. Mennucci, 
 G. A. Petersson, H. Nakatsuji, M. Caricato, X. Li, H. P. Hratchian, 
 A. F. Izmaylov, J. Bloino, G. Zheng, J. L. Sonnenberg, M. Hada, 
 M. Ehara, K. Toyota, R. Fukuda, J. Hasegawa, M. Ishida, T. Nakajima, 
 Y. Honda, O. Kitao, H. Nakai, T. Vreven, J. A. Montgomery, Jr., 
 J. E. Peralta, F. Ogliaro, M. Bearpark, J. J. Heyd, E. Brothers, 
 K. N. Kudin, V. N. Staroverov, T. Keith, R. Kobayashi, J. Normand, 
 K. Raghavachari, A. Rendell, J. C. Burant, S. S. Iyengar, J. Tomasi, 
 M. Cossi, N. Rega, J. M. Millam, M. Klene, J. E. Knox, J. B. Cross, 
 V. Bakken, C. Adamo, J. Jaramillo, R. Gomperts, R. E. Stratmann, 
 O. Yazyev, A. J. Austin, R. Cammi, C. Pomelli, J. W. Ochterski, 
 R. L. Martin, K. Morokuma, V. G. Zakrzewski, G. A. Voth, 
 P. Salvador, J. J. Dannenberg, S. Dapprich, A. D. Daniels, 
 O. Farkas, J. B. Foresman, J. V. Ortiz, J. Cioslowski, 
 and D. J. Fox, Gaussian, Inc., Wallingford CT, 2013.
 
 ******************************************
 Gaussian 09:  ES64L-G09RevD.01 24-Apr-2013
                12-May-2021 
 ******************************************
 %chk=/home/unibas/boittier/RDKit_G2/L.pdb/SCAN_1_2_3_4_S_17_20.0/14_SCAN_1_2_3_4
 _F/L.pdb.chk
 %nproc=8
 Will use up to    8 processors via shared memory.
 %mem=16GB
 -----------------------------
 #p wB97XD/6-31+G Opt=ModRedun
 -----------------------------
 1/14=-1,18=120,19=15,26=3,38=1/1,3;
 2/9=110,12=2,17=6,18=5,40=1/2;
 3/5=1,6=6,7=10,11=2,16=1,25=1,30=1,71=1,74=-58/1,2,3;
 4//1;
 5/5=2,38=5/2;
 6/7=2,8=2,9=2,10=2,28=1/1;
 7//1,2,3,16;
 1/14=-1,18=20,19=15,26=3/3(2);
 2/9=110/2;
 99//99;
 2/9=110/2;
 3/5=1,6=6,7=10,11=2,16=1,25=1,30=1,71=1,74=-58/1,2,3;
 4/5=5,16=3,69=1/1;
 5/5=2,38=5/2;
 7//1,2,3,16;
 1/14=-1,18=20,19=15,26=3/3(-5);
 2/9=110/2;
 6/7=2,8=2,9=2,10=2,19=2,28=1/1;
 99/9=1/99;
 Leave Link    1 at Wed May 12 11:58:23 2021, MaxMem=  2147483648 cpu:         0.3
 (Enter /opt/cluster/programs/g09_d.01/g09/l101.exe)
 -----
 L.pdb
 -----
 Symbolic Z-matrix:
 Charge =  0 Multiplicity = 1
 C                     1.67273   0.31426  -0.08796 
 C                     0.61492  -0.50102   0.0225 
 C                    -0.74548  -0.03482   0.42301 
 O                    -1.65892   0.17663  -0.38791 
 H                    -0.92047   0.14593   1.49877 
 H                     2.63322  -0.04996  -0.43923 
 H                     1.61683   1.37114   0.16148 
 H                     0.68883  -1.55064  -0.26305 
 
 The following ModRedundant input section has been read:
 D       1       2       3       4 F                                           
 
 NAtoms=      8 NQM=        8 NQMF=       0 NMMI=      0 NMMIF=      0
                NMic=       0 NMicF=      0.
                    Isotopes and Nuclear Properties:
 (Nuclear quadrupole moments (NQMom) in fm**2, nuclear magnetic moments (NMagM)
  in nuclear magnetons)

  Atom         1           2           3           4           5           6           7           8
 IAtWgt=          12          12          12          16           1           1           1           1
 AtmWgt=  12.0000000  12.0000000  12.0000000  15.9949146   1.0078250   1.0078250   1.0078250   1.0078250
 NucSpn=           0           0           0           0           1           1           1           1
 AtZEff=   0.0000000   0.0000000   0.0000000   0.0000000   0.0000000   0.0000000   0.0000000   0.0000000
 NQMom=    0.0000000   0.0000000   0.0000000   0.0000000   0.0000000   0.0000000   0.0000000   0.0000000
 NMagM=    0.0000000   0.0000000   0.0000000   0.0000000   2.7928460   2.7928460   2.7928460   2.7928460
 AtZNuc=   6.0000000   6.0000000   6.0000000   8.0000000   1.0000000   1.0000000   1.0000000   1.0000000
 Leave Link  101 at Wed May 12 11:58:24 2021, MaxMem=  2147483648 cpu:         4.1
 (Enter /opt/cluster/programs/g09_d.01/g09/l103.exe)

 GradGradGradGradGradGradGradGradGradGradGradGradGradGradGradGradGradGrad
 Berny optimization.
 Initialization pass.
                           ----------------------------
                           !    Initial Parameters    !
                           ! (Angstroms and Degrees)  !
 --------------------------                            --------------------------
 ! Name  Definition              Value          Derivative Info.                !
 --------------------------------------------------------------------------------
 ! R1    R(1,2)                  1.3401         estimate D2E/DX2                !
 ! R2    R(1,6)                  1.0856         estimate D2E/DX2                !
 ! R3    R(1,7)                  1.0874         estimate D2E/DX2                !
 ! R4    R(2,3)                  1.4928         estimate D2E/DX2                !
 ! R5    R(2,8)                  1.0903         estimate D2E/DX2                !
 ! R6    R(3,4)                  1.2396         estimate D2E/DX2                !
 ! R7    R(3,5)                  1.1048         estimate D2E/DX2                !
 ! A1    A(2,1,6)              121.3949         estimate D2E/DX2                !
 ! A2    A(2,1,7)              122.1298         estimate D2E/DX2                !
 ! A3    A(6,1,7)              116.4743         estimate D2E/DX2                !
 ! A4    A(1,2,3)              123.4676         estimate D2E/DX2                !
 ! A5    A(1,2,8)              120.7029         estimate D2E/DX2                !
 ! A6    A(3,2,8)              115.6396         estimate D2E/DX2                !
 ! A7    A(2,3,4)              123.3168         estimate D2E/DX2                !
 ! A8    A(2,3,5)              117.1733         estimate D2E/DX2                !
 ! A9    A(4,3,5)              119.4962         estimate D2E/DX2                !
 ! D1    D(6,1,2,3)           -176.2862         estimate D2E/DX2                !
 ! D2    D(6,1,2,8)             -1.516          estimate D2E/DX2                !
 ! D3    D(7,1,2,3)              3.3412         estimate D2E/DX2                !
 ! D4    D(7,1,2,8)            178.1114         estimate D2E/DX2                !
 ! D5    D(1,2,3,4)            100.001          Frozen                          !
 ! D6    D(1,2,3,5)            -78.6464         estimate D2E/DX2                !
 ! D7    D(8,2,3,4)            -75.0118         estimate D2E/DX2                !
 ! D8    D(8,2,3,5)            106.3408         estimate D2E/DX2                !
 --------------------------------------------------------------------------------
 Trust Radius=3.00D-01 FncErr=1.00D-07 GrdErr=1.00D-06
 Number of steps in this run=     34 maximum allowed number of steps=    100.
 GradGradGradGradGradGradGradGradGradGradGradGradGradGradGradGradGradGrad

 Leave Link  103 at Wed May 12 11:58:24 2021, MaxMem=  2147483648 cpu:         0.1
 (Enter /opt/cluster/programs/g09_d.01/g09/l202.exe)
                          Input orientation:                          
 ---------------------------------------------------------------------
 Center     Atomic      Atomic             Coordinates (Angstroms)
 Number     Number       Type             X           Y           Z
 ---------------------------------------------------------------------
      1          6           0        1.672730    0.314257   -0.087955
      2          6           0        0.614915   -0.501022    0.022497
      3          6           0       -0.745484   -0.034816    0.423013
      4          8           0       -1.658923    0.176628   -0.387912
      5          1           0       -0.920467    0.145930    1.498770
      6          1           0        2.633223   -0.049964   -0.439234
      7          1           0        1.616831    1.371140    0.161477
      8          1           0        0.688832   -1.550644   -0.263049
 ---------------------------------------------------------------------
                    Distance matrix (angstroms):
                    1          2          3          4          5
     1  C    0.000000
     2  C    1.340094   0.000000
     3  C    2.496137   1.492798   0.000000
     4  O    3.347959   2.407900   1.239628   0.000000
     5  H    3.044783   2.226056   1.104781   2.026284   0.000000
     6  H    1.085634   2.119013   3.487027   4.298429   4.052523
     7  H    1.087356   2.127943   2.761457   3.529766   3.118874
     8  H    2.115790   1.090278   2.196743   2.917364   2.927834
                    6          7          8
     6  H    0.000000
     7  H    1.847551   0.000000
     8  H    2.462466   3.094871   0.000000
 Stoichiometry    C3H4O
 Framework group  C1[X(C3H4O)]
 Deg. of freedom    18
 Full point group                 C1      NOp   1
 Largest Abelian subgroup         C1      NOp   1
 Largest concise Abelian subgroup C1      NOp   1
                         Standard orientation:                         
 ---------------------------------------------------------------------
 Center     Atomic      Atomic             Coordinates (Angstroms)
 Number     Number       Type             X           Y           Z
 ---------------------------------------------------------------------
      1          6           0       -1.672730   -0.314257   -0.087955
      2          6           0       -0.614915    0.501022    0.022497
      3          6           0        0.745484    0.034816    0.423013
      4          8           0        1.658923   -0.176628   -0.387912
      5          1           0        0.920467   -0.145930    1.498770
      6          1           0       -2.633223    0.049964   -0.439234
      7          1           0       -1.616831   -1.371140    0.161477
      8          1           0       -0.688832    1.550644   -0.263049
 ---------------------------------------------------------------------
 Rotational constants (GHZ):     31.2449787      4.7516868      4.6406535
 Leave Link  202 at Wed May 12 11:58:24 2021, MaxMem=  2147483648 cpu:         0.0
 (Enter /opt/cluster/programs/g09_d.01/g09/l301.exe)
 Standard basis: 6-31+G (6D, 7F)
 Ernie: Thresh=  0.10000D-02 Tol=  0.10000D-05 Strict=F.
 There are    60 symmetry adapted cartesian basis functions of A   symmetry.
 There are    60 symmetry adapted basis functions of A   symmetry.
    60 basis functions,   120 primitive gaussians,    60 cartesian basis functions
    15 alpha electrons       15 beta electrons
       nuclear repulsion energy       102.2097136812 Hartrees.
 IExCor= 4639 DFT=T Ex+Corr=wB97XD ExCW=0 ScaHFX=  1.000000
 ScaDFX=  1.000000  1.000000  1.000000  1.000000 ScalE2=  1.000000  1.000000
 IRadAn=      0 IRanWt=     -1 IRanGd=            0 ICorTp=0 IEmpDi=121
  HFx wShort=  0.000000 wLong=  0.200000 cFull=  0.222036 cShort=  0.000000 cLong=  0.777964
  DFx wShort=  0.000000 wLong=  0.200000 cFull=  0.000000 cShort=  0.000000 cLong=  1.000000
 NAtoms=    8 NActive=    8 NUniq=    8 SFac= 1.00D+00 NAtFMM=   60 NAOKFM=F Big=F
 Integral buffers will be    131072 words long.
 Raffenetti 2 integral format.
 Two-electron integral symmetry is turned on.
 R6Disp:  Grimme-D2 Dispersion energy=       -0.0017850208 Hartrees.
 Nuclear repulsion after empirical dispersion term =      102.2079286604 Hartrees.
 Leave Link  301 at Wed May 12 11:58:24 2021, MaxMem=  2147483648 cpu:         0.3
 (Enter /opt/cluster/programs/g09_d.01/g09/l302.exe)
 NPDir=0 NMtPBC=     1 NCelOv=     1 NCel=       1 NClECP=     1 NCelD=      1
         NCelK=      1 NCelE2=     1 NClLst=     1 CellRange=     0.0.
 One-electron integrals computed using PRISM.
 NBasis=    60 RedAO= T EigKep=  1.35D-04  NBF=    60
 NBsUse=    60 1.00D-06 EigRej= -1.00D+00 NBFU=    60
 Precomputing XC quadrature grid using
 IXCGrd= 4 IRadAn=           0 IRanWt=          -1 IRanGd=           0 AccXCQ= 0.00D+00.
 Generated NRdTot=       0 NPtTot=           0 NUsed=           0 NTot=          32
 NSgBfM=    60    60    60    60    60 MxSgAt=     8 MxSgA2=     8.
 Leave Link  302 at Wed May 12 11:58:24 2021, MaxMem=  2147483648 cpu:         0.8
 (Enter /opt/cluster/programs/g09_d.01/g09/l303.exe)
 DipDrv:  MaxL=1.
 Leave Link  303 at Wed May 12 11:58:24 2021, MaxMem=  2147483648 cpu:         0.2
 (Enter /opt/cluster/programs/g09_d.01/g09/l401.exe)
 ExpMin= 4.38D-02 ExpMax= 5.48D+03 ExpMxC= 8.25D+02 IAcc=2 IRadAn=         4 AccDes= 0.00D+00
 Harris functional with IExCor= 4639 and IRadAn=       4 diagonalized for initial guess.
 HarFok:  IExCor= 4639 AccDes= 0.00D+00 IRadAn=         4 IDoV= 1 UseB2=F ITyADJ=14
 ICtDFT=  3500011 ScaDFX=  1.000000  1.000000  1.000000  1.000000
 FoFCou: FMM=F IPFlag=           0 FMFlag=      100000 FMFlg1=           0
         NFxFlg=           0 DoJE=T BraDBF=F KetDBF=T FulRan=T
         wScrn=  0.000000 ICntrl=     500 IOpCl=  0 I1Cent=   200000004 NGrid=           0
         NMat0=    1 NMatS0=      1 NMatT0=    0 NMatD0=    1 NMtDS0=    0 NMtDT0=    0
 Petite list used in FoFCou.
 Harris En= -183.740492048316    
 JPrj=0 DoOrth=F DoCkMO=F.
 Leave Link  401 at Wed May 12 11:58:24 2021, MaxMem=  2147483648 cpu:         1.0
 (Enter /opt/cluster/programs/g09_d.01/g09/l502.exe)
 Closed shell SCF:
 Using DIIS extrapolation, IDIIS=  1040.
 Integral symmetry usage will be decided dynamically.
 Keep R1 ints in memory in canonical form, NReq=4262490.
 IVT=       30290 IEndB=       30290 NGot=  2147483648 MDV=  2144102629
 LenX=  2144102629 LenY=  2144098588
 Requested convergence on RMS density matrix=1.00D-08 within 128 cycles.
 Requested convergence on MAX density matrix=1.00D-06.
 Requested convergence on             energy=1.00D-06.
 No special actions if energy rises.
 FoFCou: FMM=F IPFlag=           0 FMFlag=           0 FMFlg1=           0
         NFxFlg=           0 DoJE=F BraDBF=F KetDBF=F FulRan=T
         wScrn=  0.000000 ICntrl=     600 IOpCl=  0 I1Cent=           0 NGrid=           0
         NMat0=    1 NMatS0=   1830 NMatT0=    0 NMatD0=    1 NMtDS0=    0 NMtDT0=    0
 Symmetry not used in FoFCou.

 Cycle   1  Pass 1  IDiag  1:
 E= -191.740338684054    
 DIIS: error= 2.26D-02 at cycle   1 NSaved=   1.
 NSaved= 1 IEnMin= 1 EnMin= -191.740338684054     IErMin= 1 ErrMin= 2.26D-02
 ErrMax= 2.26D-02  0.00D+00 EMaxC= 1.00D-01 BMatC= 7.51D-02 BMatP= 7.51D-02
 IDIUse=3 WtCom= 7.74D-01 WtEn= 2.26D-01
 Coeff-Com:  0.100D+01
 Coeff-En:   0.100D+01
 Coeff:      0.100D+01
 Gap=     0.430 Goal=   None    Shift=    0.000
 GapD=    0.430 DampG=2.000 DampE=0.500 DampFc=1.0000 IDamp=-1.
 RMSDP=9.78D-03 MaxDP=1.13D-01              OVMax= 7.85D-02

 Cycle   2  Pass 1  IDiag  1:
 E= -191.754928099455     Delta-E=       -0.014589415402 Rises=F Damp=F
 DIIS: error= 2.22D-02 at cycle   2 NSaved=   2.
 NSaved= 2 IEnMin= 2 EnMin= -191.754928099455     IErMin= 2 ErrMin= 2.22D-02
 ErrMax= 2.22D-02  0.00D+00 EMaxC= 1.00D-01 BMatC= 3.32D-02 BMatP= 7.51D-02
 IDIUse=3 WtCom= 7.78D-01 WtEn= 2.22D-01
 Coeff-Com:  0.378D+00 0.622D+00
 Coeff-En:   0.362D+00 0.638D+00
 Coeff:      0.374D+00 0.626D+00
 Gap=     0.406 Goal=   None    Shift=    0.000
 RMSDP=3.73D-03 MaxDP=5.62D-02 DE=-1.46D-02 OVMax= 7.04D-02

 Cycle   3  Pass 1  IDiag  1:
 E= -191.776484300972     Delta-E=       -0.021556201517 Rises=F Damp=F
 DIIS: error= 9.02D-03 at cycle   3 NSaved=   3.
 NSaved= 3 IEnMin= 3 EnMin= -191.776484300972     IErMin= 3 ErrMin= 9.02D-03
 ErrMax= 9.02D-03  0.00D+00 EMaxC= 1.00D-01 BMatC= 7.69D-03 BMatP= 3.32D-02
 IDIUse=3 WtCom= 9.10D-01 WtEn= 9.02D-02
 Coeff-Com:  0.662D-01 0.332D+00 0.602D+00
 Coeff-En:   0.000D+00 0.142D+00 0.858D+00
 Coeff:      0.602D-01 0.315D+00 0.625D+00
 Gap=     0.369 Goal=   None    Shift=    0.000
 RMSDP=1.62D-03 MaxDP=2.25D-02 DE=-2.16D-02 OVMax= 3.24D-02

 Cycle   4  Pass 1  IDiag  1:
 E= -191.781730415292     Delta-E=       -0.005246114320 Rises=F Damp=F
 DIIS: error= 3.46D-03 at cycle   4 NSaved=   4.
 NSaved= 4 IEnMin= 4 EnMin= -191.781730415292     IErMin= 4 ErrMin= 3.46D-03
 ErrMax= 3.46D-03  0.00D+00 EMaxC= 1.00D-01 BMatC= 8.52D-04 BMatP= 7.69D-03
 IDIUse=3 WtCom= 9.65D-01 WtEn= 3.46D-02
 Coeff-Com: -0.411D-02 0.894D-01 0.324D+00 0.591D+00
 Coeff-En:   0.000D+00 0.000D+00 0.562D-01 0.944D+00
 Coeff:     -0.397D-02 0.863D-01 0.314D+00 0.603D+00
 Gap=     0.364 Goal=   None    Shift=    0.000
 RMSDP=6.20D-04 MaxDP=6.14D-03 DE=-5.25D-03 OVMax= 9.35D-03

 Cycle   5  Pass 1  IDiag  1:
 E= -191.782440529660     Delta-E=       -0.000710114367 Rises=F Damp=F
 DIIS: error= 9.33D-04 at cycle   5 NSaved=   5.
 NSaved= 5 IEnMin= 5 EnMin= -191.782440529660     IErMin= 5 ErrMin= 9.33D-04
 ErrMax= 9.33D-04  0.00D+00 EMaxC= 1.00D-01 BMatC= 2.71D-05 BMatP= 8.52D-04
 IDIUse=3 WtCom= 9.91D-01 WtEn= 9.33D-03
 Coeff-Com: -0.461D-02 0.219D-01 0.110D+00 0.264D+00 0.609D+00
 Coeff-En:   0.000D+00 0.000D+00 0.000D+00 0.000D+00 0.100D+01
 Coeff:     -0.456D-02 0.217D-01 0.109D+00 0.262D+00 0.613D+00
 Gap=     0.364 Goal=   None    Shift=    0.000
 RMSDP=1.39D-04 MaxDP=1.49D-03 DE=-7.10D-04 OVMax= 2.62D-03

 Cycle   6  Pass 1  IDiag  1:
 E= -191.782468589644     Delta-E=       -0.000028059984 Rises=F Damp=F
 DIIS: error= 1.44D-04 at cycle   6 NSaved=   6.
 NSaved= 6 IEnMin= 6 EnMin= -191.782468589644     IErMin= 6 ErrMin= 1.44D-04
 ErrMax= 1.44D-04  0.00D+00 EMaxC= 1.00D-01 BMatC= 1.51D-06 BMatP= 2.71D-05
 IDIUse=3 WtCom= 9.99D-01 WtEn= 1.44D-03
 Coeff-Com: -0.610D-04-0.122D-01-0.322D-01-0.417D-01 0.135D+00 0.951D+00
 Coeff-En:   0.000D+00 0.000D+00 0.000D+00 0.000D+00 0.000D+00 0.100D+01
 Coeff:     -0.609D-04-0.122D-01-0.322D-01-0.416D-01 0.135D+00 0.952D+00
 Gap=     0.365 Goal=   None    Shift=    0.000
 RMSDP=1.16D-04 MaxDP=1.61D-03 DE=-2.81D-05 OVMax= 8.86D-04

 Cycle   7  Pass 1  IDiag  1:
 E= -191.782471432650     Delta-E=       -0.000002843006 Rises=F Damp=F
 DIIS: error= 3.87D-05 at cycle   7 NSaved=   7.
 NSaved= 7 IEnMin= 7 EnMin= -191.782471432650     IErMin= 7 ErrMin= 3.87D-05
 ErrMax= 3.87D-05  0.00D+00 EMaxC= 1.00D-01 BMatC= 9.81D-08 BMatP= 1.51D-06
 IDIUse=1 WtCom= 1.00D+00 WtEn= 0.00D+00
 Coeff-Com:  0.305D-03-0.456D-02-0.157D-01-0.247D-01-0.346D-02 0.244D+00
 Coeff-Com:  0.804D+00
 Coeff:      0.305D-03-0.456D-02-0.157D-01-0.247D-01-0.346D-02 0.244D+00
 Coeff:      0.804D+00
 Gap=     0.365 Goal=   None    Shift=    0.000
 RMSDP=1.70D-05 MaxDP=1.70D-04 DE=-2.84D-06 OVMax= 2.67D-04

 Cycle   8  Pass 1  IDiag  1:
 E= -191.782471639990     Delta-E=       -0.000000207341 Rises=F Damp=F
 DIIS: error= 2.00D-05 at cycle   8 NSaved=   8.
 NSaved= 8 IEnMin= 8 EnMin= -191.782471639990     IErMin= 8 ErrMin= 2.00D-05
 ErrMax= 2.00D-05  0.00D+00 EMaxC= 1.00D-01 BMatC= 8.48D-09 BMatP= 9.81D-08
 IDIUse=1 WtCom= 1.00D+00 WtEn= 0.00D+00
 Coeff-Com: -0.206D-04 0.152D-02 0.380D-02 0.627D-02-0.190D-01-0.121D+00
 Coeff-Com:  0.896D-02 0.112D+01
 Coeff:     -0.206D-04 0.152D-02 0.380D-02 0.627D-02-0.190D-01-0.121D+00
 Coeff:      0.896D-02 0.112D+01
 Gap=     0.365 Goal=   None    Shift=    0.000
 RMSDP=6.40D-06 MaxDP=3.71D-05 DE=-2.07D-07 OVMax= 1.77D-04

 Cycle   9  Pass 1  IDiag  1:
 E= -191.782471675955     Delta-E=       -0.000000035964 Rises=F Damp=F
 DIIS: error= 5.94D-06 at cycle   9 NSaved=   9.
 NSaved= 9 IEnMin= 9 EnMin= -191.782471675955     IErMin= 9 ErrMin= 5.94D-06
 ErrMax= 5.94D-06  0.00D+00 EMaxC= 1.00D-01 BMatC= 4.26D-10 BMatP= 8.48D-09
 IDIUse=1 WtCom= 1.00D+00 WtEn= 0.00D+00
 Coeff-Com: -0.187D-04 0.111D-03 0.634D-03 0.108D-02 0.387D-02 0.144D-02
 Coeff-Com: -0.639D-01-0.173D+00 0.123D+01
 Coeff:     -0.187D-04 0.111D-03 0.634D-03 0.108D-02 0.387D-02 0.144D-02
 Coeff:     -0.639D-01-0.173D+00 0.123D+01
 Gap=     0.365 Goal=   None    Shift=    0.000
 RMSDP=2.56D-06 MaxDP=2.87D-05 DE=-3.60D-08 OVMax= 6.22D-05

 Cycle  10  Pass 1  IDiag  1:
 E= -191.782471679457     Delta-E=       -0.000000003503 Rises=F Damp=F
 DIIS: error= 2.04D-06 at cycle  10 NSaved=  10.
 NSaved=10 IEnMin=10 EnMin= -191.782471679457     IErMin=10 ErrMin= 2.04D-06
 ErrMax= 2.04D-06  0.00D+00 EMaxC= 1.00D-01 BMatC= 4.75D-11 BMatP= 4.26D-10
 IDIUse=1 WtCom= 1.00D+00 WtEn= 0.00D+00
 Coeff-Com:  0.764D-05-0.141D-03-0.498D-03-0.811D-03-0.127D-03 0.769D-02
 Coeff-Com:  0.233D-01-0.619D-02-0.497D+00 0.147D+01
 Coeff:      0.764D-05-0.141D-03-0.498D-03-0.811D-03-0.127D-03 0.769D-02
 Coeff:      0.233D-01-0.619D-02-0.497D+00 0.147D+01
 Gap=     0.365 Goal=   None    Shift=    0.000
 RMSDP=8.31D-07 MaxDP=7.08D-06 DE=-3.50D-09 OVMax= 2.86D-05

 Cycle  11  Pass 1  IDiag  1:
 E= -191.782471679960     Delta-E=       -0.000000000503 Rises=F Damp=F
 DIIS: error= 6.16D-07 at cycle  11 NSaved=  11.
 NSaved=11 IEnMin=11 EnMin= -191.782471679960     IErMin=11 ErrMin= 6.16D-07
 ErrMax= 6.16D-07  0.00D+00 EMaxC= 1.00D-01 BMatC= 5.81D-12 BMatP= 4.75D-11
 IDIUse=1 WtCom= 1.00D+00 WtEn= 0.00D+00
 Coeff-Com: -0.173D-05 0.473D-04 0.157D-03 0.205D-03-0.255D-03-0.364D-02
 Coeff-Com: -0.436D-02 0.181D-01 0.102D+00-0.660D+00 0.155D+01
 Coeff:     -0.173D-05 0.473D-04 0.157D-03 0.205D-03-0.255D-03-0.364D-02
 Coeff:     -0.436D-02 0.181D-01 0.102D+00-0.660D+00 0.155D+01
 Gap=     0.365 Goal=   None    Shift=    0.000
 RMSDP=2.90D-07 MaxDP=2.59D-06 DE=-5.03D-10 OVMax= 1.10D-05

 Cycle  12  Pass 1  IDiag  1:
 E= -191.782471680012     Delta-E=       -0.000000000052 Rises=F Damp=F
 DIIS: error= 1.20D-07 at cycle  12 NSaved=  12.
 NSaved=12 IEnMin=12 EnMin= -191.782471680012     IErMin=12 ErrMin= 1.20D-07
 ErrMax= 1.20D-07  0.00D+00 EMaxC= 1.00D-01 BMatC= 1.87D-13 BMatP= 5.81D-12
 IDIUse=1 WtCom= 1.00D+00 WtEn= 0.00D+00
 Coeff-Com:  0.109D-06-0.559D-05-0.147D-04-0.802D-05 0.967D-04 0.739D-03
 Coeff-Com: -0.174D-03-0.566D-02 0.268D-02 0.109D+00-0.477D+00 0.137D+01
 Coeff:      0.109D-06-0.559D-05-0.147D-04-0.802D-05 0.967D-04 0.739D-03
 Coeff:     -0.174D-03-0.566D-02 0.268D-02 0.109D+00-0.477D+00 0.137D+01
 Gap=     0.365 Goal=   None    Shift=    0.000
 RMSDP=6.28D-08 MaxDP=7.32D-07 DE=-5.17D-11 OVMax= 1.72D-06

 Cycle  13  Pass 1  IDiag  1:
 E= -191.782471680014     Delta-E=       -0.000000000002 Rises=F Damp=F
 DIIS: error= 1.75D-08 at cycle  13 NSaved=  13.
 NSaved=13 IEnMin=13 EnMin= -191.782471680014     IErMin=13 ErrMin= 1.75D-08
 ErrMax= 1.75D-08  0.00D+00 EMaxC= 1.00D-01 BMatC= 1.11D-14 BMatP= 1.87D-13
 IDIUse=1 WtCom= 1.00D+00 WtEn= 0.00D+00
 Coeff-Com:  0.245D-07-0.148D-06-0.204D-05-0.389D-05-0.208D-04-0.687D-04
 Coeff-Com:  0.159D-03 0.779D-03-0.360D-02-0.794D-02 0.780D-01-0.397D+00
 Coeff-Com:  0.133D+01
 Coeff:      0.245D-07-0.148D-06-0.204D-05-0.389D-05-0.208D-04-0.687D-04
 Coeff:      0.159D-03 0.779D-03-0.360D-02-0.794D-02 0.780D-01-0.397D+00
 Coeff:      0.133D+01
 Gap=     0.365 Goal=   None    Shift=    0.000
 RMSDP=1.12D-08 MaxDP=1.23D-07 DE=-2.10D-12 OVMax= 1.95D-07

 Cycle  14  Pass 1  IDiag  1:
 E= -191.782471680014     Delta-E=        0.000000000000 Rises=F Damp=F
 DIIS: error= 2.06D-09 at cycle  14 NSaved=  14.
 NSaved=14 IEnMin=13 EnMin= -191.782471680014     IErMin=14 ErrMin= 2.06D-09
 ErrMax= 2.06D-09  0.00D+00 EMaxC= 1.00D-01 BMatC= 1.88D-16 BMatP= 1.11D-14
 IDIUse=1 WtCom= 1.00D+00 WtEn= 0.00D+00
 Coeff-Com: -0.981D-08 0.157D-06 0.854D-06 0.128D-05 0.152D-05-0.198D-05
 Coeff-Com: -0.384D-04-0.240D-04 0.759D-03-0.991D-03-0.566D-02 0.572D-01
 Coeff-Com: -0.313D+00 0.126D+01
 Coeff:     -0.981D-08 0.157D-06 0.854D-06 0.128D-05 0.152D-05-0.198D-05
 Coeff:     -0.384D-04-0.240D-04 0.759D-03-0.991D-03-0.566D-02 0.572D-01
 Coeff:     -0.313D+00 0.126D+01
 Gap=     0.365 Goal=   None    Shift=    0.000
 RMSDP=1.55D-09 MaxDP=1.29D-08 DE= 2.27D-13 OVMax= 2.71D-08

 SCF Done:  E(RwB97XD) =  -191.782471680     A.U. after   14 cycles
            NFock= 14  Conv=0.16D-08     -V/T= 2.0061
 KE= 1.906252406414D+02 PE=-6.517704477884D+02 EE= 1.671548068066D+02
 Leave Link  502 at Wed May 12 11:58:25 2021, MaxMem=  2147483648 cpu:         9.3
 (Enter /opt/cluster/programs/g09_d.01/g09/l601.exe)
 Copying SCF densities to generalized density rwf, IOpCl= 0 IROHF=0.

 **********************************************************************

            Population analysis using the SCF density.

 **********************************************************************

 Orbital symmetries:
       Occupied  (A) (A) (A) (A) (A) (A) (A) (A) (A) (A) (A) (A)
                 (A) (A) (A)
       Virtual   (A) (A) (A) (A) (A) (A) (A) (A) (A) (A) (A) (A)
                 (A) (A) (A) (A) (A) (A) (A) (A) (A) (A) (A) (A)
                 (A) (A) (A) (A) (A) (A) (A) (A) (A) (A) (A) (A)
                 (A) (A) (A) (A) (A) (A) (A) (A) (A)
 The electronic state is 1-A.
 Alpha  occ. eigenvalues --  -19.29802 -10.41442 -10.33301 -10.32644  -1.17696
 Alpha  occ. eigenvalues --   -0.90980  -0.76207  -0.67104  -0.59610  -0.56596
 Alpha  occ. eigenvalues --   -0.53772  -0.48990  -0.46785  -0.37753  -0.35574
 Alpha virt. eigenvalues --    0.00884   0.05016   0.07567   0.08585   0.09089
 Alpha virt. eigenvalues --    0.11023   0.12442   0.13228   0.14721   0.16686
 Alpha virt. eigenvalues --    0.17079   0.17779   0.19451   0.22495   0.27610
 Alpha virt. eigenvalues --    0.28134   0.29779   0.31009   0.32545   0.33511
 Alpha virt. eigenvalues --    0.36902   0.39836   0.43907   0.45392   0.50311
 Alpha virt. eigenvalues --    0.69178   0.72133   0.75584   0.78565   0.80726
 Alpha virt. eigenvalues --    0.85799   0.88769   0.89645   1.01322   1.05183
 Alpha virt. eigenvalues --    1.09460   1.12112   1.13593   1.23486   1.26885
 Alpha virt. eigenvalues --    1.31502   1.32866   1.38641   1.46609   1.88869
          Condensed to atoms (all electrons):
               1          2          3          4          5          6
     1  C    5.006919   0.584978   0.022111  -0.024394  -0.002582   0.367180
     2  C    0.584978   5.226957   0.241411  -0.103247  -0.085983  -0.017991
     3  C    0.022111   0.241411   5.068656   0.294482   0.361083   0.006583
     4  O   -0.024394  -0.103247   0.294482   8.276037  -0.073938  -0.000344
     5  H   -0.002582  -0.085983   0.361083  -0.073938   0.612244  -0.000123
     6  H    0.367180  -0.017991   0.006583  -0.000344  -0.000123   0.467609
     7  H    0.387899  -0.054573   0.010664   0.000300   0.000281  -0.022992
     8  H    0.001706   0.342346  -0.019119  -0.001167   0.001233  -0.004417
               7          8
     1  C    0.387899   0.001706
     2  C   -0.054573   0.342346
     3  C    0.010664  -0.019119
     4  O    0.000300  -0.001167
     5  H    0.000281   0.001233
     6  H   -0.022992  -0.004417
     7  H    0.472666   0.002512
     8  H    0.002512   0.441112
 Mulliken charges:
               1
     1  C   -0.343817
     2  C   -0.133899
     3  C    0.014129
     4  O   -0.367730
     5  H    0.187785
     6  H    0.204495
     7  H    0.203244
     8  H    0.235794
 Sum of Mulliken charges =   0.00000
 Mulliken charges with hydrogens summed into heavy atoms:
               1
     1  C    0.063921
     2  C    0.101894
     3  C    0.201914
     4  O   -0.367730
 Electronic spatial extent (au):  <R**2>=            293.9026
 Charge=              0.0000 electrons
 Dipole moment (field-independent basis, Debye):
    X=             -2.6763    Y=              0.5190    Z=              1.6130  Tot=              3.1676
 Quadrupole moment (field-independent basis, Debye-Ang):
   XX=            -27.2498   YY=            -21.9671   ZZ=            -25.2259
   XY=              1.2047   XZ=              3.4878   YZ=             -0.9642
 Traceless Quadrupole moment (field-independent basis, Debye-Ang):
   XX=             -2.4356   YY=              2.8472   ZZ=             -0.4116
   XY=              1.2047   XZ=              3.4878   YZ=             -0.9642
 Octapole moment (field-independent basis, Debye-Ang**2):
  XXX=            -11.4394  YYY=              0.3158  ZZZ=              1.3922  XYY=              0.1412
  XXY=              0.8654  XXZ=              0.5938  XZZ=              3.7137  YZZ=             -0.3957
  YYZ=             -0.7007  XYZ=              0.6883
 Hexadecapole moment (field-independent basis, Debye-Ang**3):
 XXXX=           -285.7555 YYYY=            -47.6450 ZZZZ=            -48.7535 XXXY=              3.0630
 XXXZ=             10.7385 YYYX=              0.2656 YYYZ=             -1.9677 ZZZX=              1.7269
 ZZZY=             -0.8137 XXYY=            -54.2508 XXZZ=            -57.9346 YYZZ=            -17.6733
 XXYZ=             -1.9877 YYXZ=             -0.1568 ZZXY=             -0.5351
 N-N= 1.022079286604D+02 E-N=-6.517704477809D+02  KE= 1.906252406414D+02
 No NMR shielding tensors so no spin-rotation constants.
 Leave Link  601 at Wed May 12 11:58:25 2021, MaxMem=  2147483648 cpu:         0.6
 (Enter /opt/cluster/programs/g09_d.01/g09/l701.exe)
 Compute integral first derivatives.
 ... and contract with generalized density number  0.
 R6Disp: Adding Grimme-D2 dispersion energy 1st derivatives to the gradient.
 Leave Link  701 at Wed May 12 11:58:25 2021, MaxMem=  2147483648 cpu:         0.6
 (Enter /opt/cluster/programs/g09_d.01/g09/l702.exe)
 L702 exits ... SP integral derivatives will be done elsewhere.
 Leave Link  702 at Wed May 12 11:58:25 2021, MaxMem=  2147483648 cpu:         0.2
 (Enter /opt/cluster/programs/g09_d.01/g09/l703.exe)
 Compute integral first derivatives, UseDBF=F ICtDFT=           0.
 Integral derivatives from FoFJK, PRISM(SPDF).
 Calling FoFJK, ICntrl=      2127 FMM=F ISym2X=0 I1Cent= 0 IOpClX= 0 NMat=1 NMatS=1 NMatT=0.
 FoFJK:  IHMeth= 1 ICntrl=    2127 DoSepK=T KAlg= 0 I1Cent=   0 FoldK=F
 IRaf=         1 NMat=   1 IRICut=       1 DoRegI=T DoRafI=F ISym2E= 0.
 FoFCou: FMM=F IPFlag=           0 FMFlag=      100000 FMFlg1=         800
         NFxFlg=           0 DoJE=F BraDBF=F KetDBF=F FulRan=T
         wScrn=  0.000000 ICntrl=    2527 IOpCl=  0 I1Cent=           0 NGrid=           0
         NMat0=    1 NMatS0=      1 NMatT0=    0 NMatD0=    1 NMtDS0=    0 NMtDT0=    0
 Symmetry not used in FoFCou.
 Leave Link  703 at Wed May 12 11:58:26 2021, MaxMem=  2147483648 cpu:         2.5
 (Enter /opt/cluster/programs/g09_d.01/g09/l716.exe)
 Dipole        =-1.05294056D+00 2.04200639D-01 6.34611917D-01
 ***** Axes restored to original set *****
 -------------------------------------------------------------------
 Center     Atomic                   Forces (Hartrees/Bohr)
 Number     Number              X              Y              Z
 -------------------------------------------------------------------
      1        6          -0.002918197   -0.002590613    0.003397876
      2        6           0.001158962    0.001433013   -0.005320856
      3        6          -0.003430657    0.005963473   -0.002661261
      4        8           0.006165862   -0.004517341    0.005934791
      5        1           0.000144135   -0.000388642   -0.001831922
      6        1          -0.000776558   -0.000305892    0.000242092
      7        1          -0.000481067   -0.000442135   -0.000180196
      8        1           0.000137520    0.000848135    0.000419477
 -------------------------------------------------------------------
 Cartesian Forces:  Max     0.006165862 RMS     0.002973481
 Leave Link  716 at Wed May 12 11:58:26 2021, MaxMem=  2147483648 cpu:         0.2
 (Enter /opt/cluster/programs/g09_d.01/g09/l103.exe)

 GradGradGradGradGradGradGradGradGradGradGradGradGradGradGradGradGradGrad
 Berny optimization.
 FormGI is forming the generalized inverse of G from B-inverse, IUseBI=4.
 Internal  Forces:  Max     0.009194909 RMS     0.002504238
 Search for a local minimum.
 Step number   1 out of a maximum of   34
 All quantities printed in internal units (Hartrees-Bohrs-Radians)
 RMS Force = .23649D-02 SwitMx=.10000D-02 MixMth= 1
 Mixed Optimization -- RFO/linear search
 Second derivative matrix not updated -- first step.
 ITU=  0
     Eigenvalues ---    0.00862   0.01728   0.02881   0.02881   0.15961
     Eigenvalues ---    0.16000   0.16000   0.16000   0.22001   0.22009
     Eigenvalues ---    0.33145   0.33159   0.34781   0.35120   0.35322
     Eigenvalues ---    0.57184   0.871901000.000001000.000001000.00000
     Eigenvalues --- 1000.000001000.000001000.000001000.00000
 RFO step:  Lambda=-2.06324162D-04 EMin= 8.62384305D-03
 Linear search not attempted -- first point.
 Iteration  1 RMS(Cart)=  0.00870742 RMS(Int)=  0.00003349
 Iteration  2 RMS(Cart)=  0.00003247 RMS(Int)=  0.00000630
 Iteration  3 RMS(Cart)=  0.00000000 RMS(Int)=  0.00000630
 Iteration  1 RMS(Cart)=  0.00000036 RMS(Int)=  0.00000026
 ITry= 1 IFail=0 DXMaxC= 2.14D-02 DCOld= 1.00D+10 DXMaxT= 3.00D-01 DXLimC= 3.00D+00 Rises=F
 Variable       Old X    -DE/DX   Delta X   Delta X   Delta X     New X
                                 (Linear)    (Quad)   (Total)
    R1        2.53241  -0.00562   0.00000  -0.00982  -0.00982   2.52259
    R2        2.05155  -0.00066   0.00000  -0.00187  -0.00187   2.04968
    R3        2.05480  -0.00045   0.00000  -0.00128  -0.00128   2.05352
    R4        2.82098  -0.00190   0.00000  -0.00573  -0.00573   2.81525
    R5        2.06033  -0.00092   0.00000  -0.00263  -0.00263   2.05770
    R6        2.34256  -0.00919   0.00000  -0.01054  -0.01054   2.33201
    R7        2.08773  -0.00187   0.00000  -0.00564  -0.00564   2.08210
    A1        2.11874  -0.00045   0.00000  -0.00283  -0.00283   2.11591
    A2        2.13157  -0.00025   0.00000  -0.00157  -0.00157   2.13000
    A3        2.03286   0.00070   0.00000   0.00438   0.00438   2.03724
    A4        2.15492  -0.00111   0.00000  -0.00503  -0.00504   2.14987
    A5        2.10666   0.00053   0.00000   0.00194   0.00192   2.10858
    A6        2.01829   0.00070   0.00000   0.00385   0.00384   2.02213
    A7        2.15228  -0.00077   0.00000  -0.00356  -0.00357   2.14871
    A8        2.04506   0.00054   0.00000   0.00264   0.00263   2.04769
    A9        2.08560   0.00029   0.00000   0.00109   0.00108   2.08668
    D1       -3.07678  -0.00091   0.00000  -0.00799  -0.00798  -3.08476
    D2       -0.02646   0.00076   0.00000   0.00265   0.00264  -0.02382
    D3        0.05831  -0.00099   0.00000  -0.01068  -0.01068   0.04764
    D4        3.10863   0.00068   0.00000  -0.00005  -0.00005   3.10858
    D5        1.74535   0.00368   0.00000   0.00000   0.00000   1.74535
    D6       -1.37264   0.00067   0.00000  -0.00861  -0.00861  -1.38125
    D7       -1.30920   0.00209   0.00000  -0.01008  -0.01008  -1.31928
    D8        1.85600  -0.00091   0.00000  -0.01868  -0.01869   1.83731
         Item               Value     Threshold  Converged?
 Maximum Force            0.009195     0.000450     NO 
 RMS     Force            0.002365     0.000300     NO 
 Maximum Displacement     0.021371     0.001800     NO 
 RMS     Displacement     0.008713     0.001200     NO 
 Predicted change in Energy=-1.032591D-04
 Lowest energy point so far.  Saving SCF results.
 GradGradGradGradGradGradGradGradGradGradGradGradGradGradGradGradGradGrad

 Leave Link  103 at Wed May 12 11:58:26 2021, MaxMem=  2147483648 cpu:         0.0
 (Enter /opt/cluster/programs/g09_d.01/g09/l202.exe)
                          Input orientation:                          
 ---------------------------------------------------------------------
 Center     Atomic      Atomic             Coordinates (Angstroms)
 Number     Number       Type             X           Y           Z
 ---------------------------------------------------------------------
      1          6           0        1.667517    0.313311   -0.088077
      2          6           0        0.614902   -0.500537    0.019627
      3          6           0       -0.740387   -0.031509    0.422866
      4          8           0       -1.647614    0.183334   -0.385626
      5          1           0       -0.917714    0.139192    1.496820
      6          1           0        2.628054   -0.052411   -0.434591
      7          1           0        1.606375    1.370338    0.156507
      8          1           0        0.690525   -1.550207   -0.259919
 ---------------------------------------------------------------------
                    Distance matrix (angstroms):
                    1          2          3          4          5
     1  C    0.000000
     2  C    1.334896   0.000000
     3  C    2.485551   1.489764   0.000000
     4  O    3.330994   2.398101   1.234049   0.000000
     5  H    3.037373   2.222670   1.101799   2.019481   0.000000
     6  H    1.084646   2.111850   3.475926   4.282442   4.042218
     7  H    1.086676   2.121775   2.746528   3.505900   3.111782
     8  H    2.111100   1.088886   2.195483   2.913393   2.920040
                    6          7          8
     6  H    0.000000
     7  H    1.848631   0.000000
     8  H    2.455183   3.088976   0.000000
 Stoichiometry    C3H4O
 Framework group  C1[X(C3H4O)]
 Deg. of freedom    18
 Full point group                 C1      NOp   1
 RotChk:  IX=0 Diff= 1.71D-02
 Largest Abelian subgroup         C1      NOp   1
 Largest concise Abelian subgroup C1      NOp   1
                         Standard orientation:                         
 ---------------------------------------------------------------------
 Center     Atomic      Atomic             Coordinates (Angstroms)
 Number     Number       Type             X           Y           Z
 ---------------------------------------------------------------------
      1          6           0       -1.664180   -0.316537   -0.082755
      2          6           0       -0.613552    0.501208    0.014303
      3          6           0        0.743324    0.040426    0.421691
      4          8           0        1.650318   -0.181615   -0.385116
      5          1           0        0.922124   -0.117151    1.497405
      6          1           0       -2.625986    0.042623   -0.432598
      7          1           0       -1.600093   -1.370448    0.174207
      8          1           0       -0.692136    1.547314   -0.277518
 ---------------------------------------------------------------------
 Rotational constants (GHZ):     31.2979452      4.7959460      4.6803287
 Leave Link  202 at Wed May 12 11:58:26 2021, MaxMem=  2147483648 cpu:         0.2
 (Enter /opt/cluster/programs/g09_d.01/g09/l301.exe)
 Standard basis: 6-31+G (6D, 7F)
 Ernie: Thresh=  0.10000D-02 Tol=  0.10000D-05 Strict=F.
 There are    60 symmetry adapted cartesian basis functions of A   symmetry.
 There are    60 symmetry adapted basis functions of A   symmetry.
    60 basis functions,   120 primitive gaussians,    60 cartesian basis functions
    15 alpha electrons       15 beta electrons
       nuclear repulsion energy       102.5642581236 Hartrees.
 IExCor= 4639 DFT=T Ex+Corr=wB97XD ExCW=0 ScaHFX=  1.000000
 ScaDFX=  1.000000  1.000000  1.000000  1.000000 ScalE2=  1.000000  1.000000
 IRadAn=      0 IRanWt=     -1 IRanGd=            0 ICorTp=0 IEmpDi=121
  HFx wShort=  0.000000 wLong=  0.200000 cFull=  0.222036 cShort=  0.000000 cLong=  0.777964
  DFx wShort=  0.000000 wLong=  0.200000 cFull=  0.000000 cShort=  0.000000 cLong=  1.000000
 NAtoms=    8 NActive=    8 NUniq=    8 SFac= 1.00D+00 NAtFMM=   60 NAOKFM=F Big=F
 Integral buffers will be    131072 words long.
 Raffenetti 2 integral format.
 Two-electron integral symmetry is turned on.
 R6Disp:  Grimme-D2 Dispersion energy=       -0.0017864140 Hartrees.
 Nuclear repulsion after empirical dispersion term =      102.5624717095 Hartrees.
 Leave Link  301 at Wed May 12 11:58:26 2021, MaxMem=  2147483648 cpu:         0.3
 (Enter /opt/cluster/programs/g09_d.01/g09/l302.exe)
 NPDir=0 NMtPBC=     1 NCelOv=     1 NCel=       1 NClECP=     1 NCelD=      1
         NCelK=      1 NCelE2=     1 NClLst=     1 CellRange=     0.0.
 One-electron integrals computed using PRISM.
 NBasis=    60 RedAO= T EigKep=  1.32D-04  NBF=    60
 NBsUse=    60 1.00D-06 EigRej= -1.00D+00 NBFU=    60
 Precomputing XC quadrature grid using
 IXCGrd= 4 IRadAn=           0 IRanWt=          -1 IRanGd=           0 AccXCQ= 0.00D+00.
 Generated NRdTot=       0 NPtTot=           0 NUsed=           0 NTot=          32
 NSgBfM=    60    60    60    60    60 MxSgAt=     8 MxSgA2=     8.
 Leave Link  302 at Wed May 12 11:58:26 2021, MaxMem=  2147483648 cpu:         0.8
 (Enter /opt/cluster/programs/g09_d.01/g09/l303.exe)
 DipDrv:  MaxL=1.
 Leave Link  303 at Wed May 12 11:58:26 2021, MaxMem=  2147483648 cpu:         0.2
 (Enter /opt/cluster/programs/g09_d.01/g09/l401.exe)
 Initial guess from the checkpoint file:  "/home/unibas/boittier/RDKit_G2/L.pdb/SCAN_1_2_3_4_S_17_20.0/14_SCAN_1_2_3_4_F/L.pdb.chk"
 B after Tr=     0.000000    0.000000    0.000000
         Rot=    0.999977    0.006788   -0.000333   -0.000457 Ang=   0.78 deg.
 Guess basis will be translated and rotated to current coordinates.
 JPrj=2 DoOrth=T DoCkMO=T.
 Generating alternative initial guess.
 ExpMin= 4.38D-02 ExpMax= 5.48D+03 ExpMxC= 8.25D+02 IAcc=2 IRadAn=         4 AccDes= 0.00D+00
 Harris functional with IExCor= 4639 and IRadAn=       4 diagonalized for initial guess.
 HarFok:  IExCor= 4639 AccDes= 0.00D+00 IRadAn=         4 IDoV= 1 UseB2=F ITyADJ=14
 ICtDFT=  3500011 ScaDFX=  1.000000  1.000000  1.000000  1.000000
 FoFCou: FMM=F IPFlag=           0 FMFlag=      100000 FMFlg1=           0
         NFxFlg=           0 DoJE=T BraDBF=F KetDBF=T FulRan=T
         wScrn=  0.000000 ICntrl=     500 IOpCl=  0 I1Cent=   200000004 NGrid=           0
         NMat0=    1 NMatS0=      1 NMatT0=    0 NMatD0=    1 NMtDS0=    0 NMtDT0=    0
 Petite list used in FoFCou.
 Harris En= -183.738041384492    
 Leave Link  401 at Wed May 12 11:58:26 2021, MaxMem=  2147483648 cpu:         1.4
 (Enter /opt/cluster/programs/g09_d.01/g09/l502.exe)
 Closed shell SCF:
 Using DIIS extrapolation, IDIIS=  1040.
 Integral symmetry usage will be decided dynamically.
 Keep R1 ints in memory in canonical form, NReq=4262490.
 IVT=       30290 IEndB=       30290 NGot=  2147483648 MDV=  2144102629
 LenX=  2144102629 LenY=  2144098588
 Requested convergence on RMS density matrix=1.00D-08 within 128 cycles.
 Requested convergence on MAX density matrix=1.00D-06.
 Requested convergence on             energy=1.00D-06.
 No special actions if energy rises.
 FoFCou: FMM=F IPFlag=           0 FMFlag=           0 FMFlg1=           0
         NFxFlg=           0 DoJE=F BraDBF=F KetDBF=F FulRan=T
         wScrn=  0.000000 ICntrl=     600 IOpCl=  0 I1Cent=           0 NGrid=           0
         NMat0=    1 NMatS0=   1830 NMatT0=    0 NMatD0=    1 NMtDS0=    0 NMtDT0=    0
 Symmetry not used in FoFCou.

 Cycle   1  Pass 1  IDiag  1:
 E= -191.782510263183    
 DIIS: error= 3.65D-04 at cycle   1 NSaved=   1.
 NSaved= 1 IEnMin= 1 EnMin= -191.782510263183     IErMin= 1 ErrMin= 3.65D-04
 ErrMax= 3.65D-04  0.00D+00 EMaxC= 1.00D-01 BMatC= 3.38D-05 BMatP= 3.38D-05
 IDIUse=3 WtCom= 9.96D-01 WtEn= 3.65D-03
 Coeff-Com:  0.100D+01
 Coeff-En:   0.100D+01
 Coeff:      0.100D+01
 Gap=     0.612 Goal=   None    Shift=    0.000
 RMSDP=1.88D-04 MaxDP=1.38D-03              OVMax= 2.11D-03

 Cycle   2  Pass 1  IDiag  1:
 E= -191.782559236948     Delta-E=       -0.000048973764 Rises=F Damp=F
 DIIS: error= 2.15D-04 at cycle   2 NSaved=   2.
 NSaved= 2 IEnMin= 2 EnMin= -191.782559236948     IErMin= 2 ErrMin= 2.15D-04
 ErrMax= 2.15D-04  0.00D+00 EMaxC= 1.00D-01 BMatC= 3.49D-06 BMatP= 3.38D-05
 IDIUse=3 WtCom= 9.98D-01 WtEn= 2.15D-03
 Coeff-Com:  0.890D-01 0.911D+00
 Coeff-En:   0.000D+00 0.100D+01
 Coeff:      0.888D-01 0.911D+00
 Gap=     0.366 Goal=   None    Shift=    0.000
 RMSDP=7.08D-05 MaxDP=5.86D-04 DE=-4.90D-05 OVMax= 9.50D-04

 Cycle   3  Pass 1  IDiag  1:
 E= -191.782563045435     Delta-E=       -0.000003808487 Rises=F Damp=F
 DIIS: error= 1.26D-04 at cycle   3 NSaved=   3.
 NSaved= 3 IEnMin= 3 EnMin= -191.782563045435     IErMin= 3 ErrMin= 1.26D-04
 ErrMax= 1.26D-04  0.00D+00 EMaxC= 1.00D-01 BMatC= 2.23D-06 BMatP= 3.49D-06
 IDIUse=3 WtCom= 9.99D-01 WtEn= 1.26D-03
 Coeff-Com: -0.430D-01 0.434D+00 0.609D+00
 Coeff-En:   0.000D+00 0.000D+00 0.100D+01
 Coeff:     -0.430D-01 0.433D+00 0.610D+00
 Gap=     0.366 Goal=   None    Shift=    0.000
 RMSDP=3.26D-05 MaxDP=3.81D-04 DE=-3.81D-06 OVMax= 5.87D-04

 Cycle   4  Pass 1  IDiag  1:
 E= -191.782565022981     Delta-E=       -0.000001977546 Rises=F Damp=F
 DIIS: error= 7.47D-05 at cycle   4 NSaved=   4.
 NSaved= 4 IEnMin= 4 EnMin= -191.782565022981     IErMin= 4 ErrMin= 7.47D-05
 ErrMax= 7.47D-05  0.00D+00 EMaxC= 1.00D-01 BMatC= 4.60D-07 BMatP= 2.23D-06
 IDIUse=1 WtCom= 1.00D+00 WtEn= 0.00D+00
 Coeff-Com: -0.418D-01 0.108D+00 0.340D+00 0.594D+00
 Coeff:     -0.418D-01 0.108D+00 0.340D+00 0.594D+00
 Gap=     0.366 Goal=   None    Shift=    0.000
 RMSDP=1.39D-05 MaxDP=1.62D-04 DE=-1.98D-06 OVMax= 2.16D-04

 Cycle   5  Pass 1  IDiag  1:
 E= -191.782565469492     Delta-E=       -0.000000446511 Rises=F Damp=F
 DIIS: error= 1.96D-05 at cycle   5 NSaved=   5.
 NSaved= 5 IEnMin= 5 EnMin= -191.782565469492     IErMin= 5 ErrMin= 1.96D-05
 ErrMax= 1.96D-05  0.00D+00 EMaxC= 1.00D-01 BMatC= 1.33D-08 BMatP= 4.60D-07
 IDIUse=1 WtCom= 1.00D+00 WtEn= 0.00D+00
 Coeff-Com:  0.663D-02-0.610D-01-0.815D-01 0.228D-02 0.113D+01
 Coeff:      0.663D-02-0.610D-01-0.815D-01 0.228D-02 0.113D+01
 Gap=     0.366 Goal=   None    Shift=    0.000
 RMSDP=8.45D-06 MaxDP=1.14D-04 DE=-4.47D-07 OVMax= 1.66D-04

 Cycle   6  Pass 1  IDiag  1:
 E= -191.782565524010     Delta-E=       -0.000000054518 Rises=F Damp=F
 DIIS: error= 8.34D-06 at cycle   6 NSaved=   6.
 NSaved= 6 IEnMin= 6 EnMin= -191.782565524010     IErMin= 6 ErrMin= 8.34D-06
 ErrMax= 8.34D-06  0.00D+00 EMaxC= 1.00D-01 BMatC= 3.24D-09 BMatP= 1.33D-08
 IDIUse=1 WtCom= 1.00D+00 WtEn= 0.00D+00
 Coeff-Com:  0.565D-02-0.327D-01-0.569D-01-0.473D-01 0.465D+00 0.666D+00
 Coeff:      0.565D-02-0.327D-01-0.569D-01-0.473D-01 0.465D+00 0.666D+00
 Gap=     0.366 Goal=   None    Shift=    0.000
 RMSDP=2.01D-06 MaxDP=2.37D-05 DE=-5.45D-08 OVMax= 4.26D-05

 Cycle   7  Pass 1  IDiag  1:
 E= -191.782565530494     Delta-E=       -0.000000006483 Rises=F Damp=F
 DIIS: error= 3.50D-06 at cycle   7 NSaved=   7.
 NSaved= 7 IEnMin= 7 EnMin= -191.782565530494     IErMin= 7 ErrMin= 3.50D-06
 ErrMax= 3.50D-06  0.00D+00 EMaxC= 1.00D-01 BMatC= 3.72D-10 BMatP= 3.24D-09
 IDIUse=1 WtCom= 1.00D+00 WtEn= 0.00D+00
 Coeff-Com: -0.278D-03 0.717D-02 0.742D-02-0.141D-01-0.168D+00 0.133D+00
 Coeff-Com:  0.103D+01
 Coeff:     -0.278D-03 0.717D-02 0.742D-02-0.141D-01-0.168D+00 0.133D+00
 Coeff:      0.103D+01
 Gap=     0.366 Goal=   None    Shift=    0.000
 RMSDP=1.35D-06 MaxDP=1.34D-05 DE=-6.48D-09 OVMax= 3.85D-05

 Cycle   8  Pass 1  IDiag  1:
 E= -191.782565532414     Delta-E=       -0.000000001920 Rises=F Damp=F
 DIIS: error= 1.56D-06 at cycle   8 NSaved=   8.
 NSaved= 8 IEnMin= 8 EnMin= -191.782565532414     IErMin= 8 ErrMin= 1.56D-06
 ErrMax= 1.56D-06  0.00D+00 EMaxC= 1.00D-01 BMatC= 4.58D-11 BMatP= 3.72D-10
 IDIUse=1 WtCom= 1.00D+00 WtEn= 0.00D+00
 Coeff-Com: -0.646D-03 0.416D-02 0.654D-02 0.511D-02-0.693D-01-0.549D-01
 Coeff-Com:  0.111D+00 0.998D+00
 Coeff:     -0.646D-03 0.416D-02 0.654D-02 0.511D-02-0.693D-01-0.549D-01
 Coeff:      0.111D+00 0.998D+00
 Gap=     0.366 Goal=   None    Shift=    0.000
 RMSDP=4.45D-07 MaxDP=3.86D-06 DE=-1.92D-09 OVMax= 1.69D-05

 Cycle   9  Pass 1  IDiag  1:
 E= -191.782565532696     Delta-E=       -0.000000000282 Rises=F Damp=F
 DIIS: error= 6.91D-07 at cycle   9 NSaved=   9.
 NSaved= 9 IEnMin= 9 EnMin= -191.782565532696     IErMin= 9 ErrMin= 6.91D-07
 ErrMax= 6.91D-07  0.00D+00 EMaxC= 1.00D-01 BMatC= 1.01D-11 BMatP= 4.58D-11
 IDIUse=1 WtCom= 1.00D+00 WtEn= 0.00D+00
 Coeff-Com: -0.729D-05-0.122D-02-0.939D-03 0.489D-02 0.314D-01-0.396D-01
 Coeff-Com: -0.247D+00 0.175D+00 0.108D+01
 Coeff:     -0.729D-05-0.122D-02-0.939D-03 0.489D-02 0.314D-01-0.396D-01
 Coeff:     -0.247D+00 0.175D+00 0.108D+01
 Gap=     0.366 Goal=   None    Shift=    0.000
 RMSDP=2.78D-07 MaxDP=2.35D-06 DE=-2.82D-10 OVMax= 1.06D-05

 Cycle  10  Pass 1  IDiag  1:
 E= -191.782565532765     Delta-E=       -0.000000000069 Rises=F Damp=F
 DIIS: error= 2.09D-07 at cycle  10 NSaved=  10.
 NSaved=10 IEnMin=10 EnMin= -191.782565532765     IErMin=10 ErrMin= 2.09D-07
 ErrMax= 2.09D-07  0.00D+00 EMaxC= 1.00D-01 BMatC= 7.60D-13 BMatP= 1.01D-11
 IDIUse=1 WtCom= 1.00D+00 WtEn= 0.00D+00
 Coeff-Com:  0.774D-04-0.311D-03-0.541D-03-0.180D-02 0.354D-02 0.141D-01
 Coeff-Com:  0.272D-01-0.152D+00-0.188D+00 0.130D+01
 Coeff:      0.774D-04-0.311D-03-0.541D-03-0.180D-02 0.354D-02 0.141D-01
 Coeff:      0.272D-01-0.152D+00-0.188D+00 0.130D+01
 Gap=     0.366 Goal=   None    Shift=    0.000
 RMSDP=9.60D-08 MaxDP=7.72D-07 DE=-6.92D-11 OVMax= 3.60D-06

 Cycle  11  Pass 1  IDiag  1:
 E= -191.782565532772     Delta-E=       -0.000000000008 Rises=F Damp=F
 DIIS: error= 3.98D-08 at cycle  11 NSaved=  11.
 NSaved=11 IEnMin=11 EnMin= -191.782565532772     IErMin=11 ErrMin= 3.98D-08
 ErrMax= 3.98D-08  0.00D+00 EMaxC= 1.00D-01 BMatC= 3.42D-14 BMatP= 7.60D-13
 IDIUse=1 WtCom= 1.00D+00 WtEn= 0.00D+00
 Coeff-Com: -0.157D-04 0.137D-03 0.159D-03 0.128D-03-0.269D-02-0.552D-03
 Coeff-Com:  0.878D-02 0.249D-01-0.300D-01-0.299D+00 0.130D+01
 Coeff:     -0.157D-04 0.137D-03 0.159D-03 0.128D-03-0.269D-02-0.552D-03
 Coeff:      0.878D-02 0.249D-01-0.300D-01-0.299D+00 0.130D+01
 Gap=     0.366 Goal=   None    Shift=    0.000
 RMSDP=2.20D-08 MaxDP=1.94D-07 DE=-7.56D-12 OVMax= 6.45D-07

 Cycle  12  Pass 1  IDiag  1:
 E= -191.782565532772     Delta-E=        0.000000000000 Rises=F Damp=F
 DIIS: error= 5.28D-09 at cycle  12 NSaved=  12.
 NSaved=12 IEnMin=11 EnMin= -191.782565532772     IErMin=12 ErrMin= 5.28D-09
 ErrMax= 5.28D-09  0.00D+00 EMaxC= 1.00D-01 BMatC= 1.51D-15 BMatP= 3.42D-14
 IDIUse=1 WtCom= 1.00D+00 WtEn= 0.00D+00
 Coeff-Com:  0.154D-05-0.288D-04-0.277D-04 0.438D-04 0.682D-03-0.286D-03
 Coeff-Com: -0.436D-02-0.312D-03 0.175D-01 0.357D-01-0.415D+00 0.137D+01
 Coeff:      0.154D-05-0.288D-04-0.277D-04 0.438D-04 0.682D-03-0.286D-03
 Coeff:     -0.436D-02-0.312D-03 0.175D-01 0.357D-01-0.415D+00 0.137D+01
 Gap=     0.366 Goal=   None    Shift=    0.000
 RMSDP=4.92D-09 MaxDP=4.60D-08 DE= 1.71D-13 OVMax= 1.09D-07

 SCF Done:  E(RwB97XD) =  -191.782565533     A.U. after   12 cycles
            NFock= 12  Conv=0.49D-08     -V/T= 2.0058
 KE= 1.906768059307D+02 PE=-6.525192928688D+02 EE= 1.674974496958D+02
 Leave Link  502 at Wed May 12 11:58:27 2021, MaxMem=  2147483648 cpu:         8.1
 (Enter /opt/cluster/programs/g09_d.01/g09/l701.exe)
 Compute integral first derivatives.
 ... and contract with generalized density number  0.
 R6Disp: Adding Grimme-D2 dispersion energy 1st derivatives to the gradient.
 Leave Link  701 at Wed May 12 11:58:27 2021, MaxMem=  2147483648 cpu:         0.6
 (Enter /opt/cluster/programs/g09_d.01/g09/l702.exe)
 L702 exits ... SP integral derivatives will be done elsewhere.
 Leave Link  702 at Wed May 12 11:58:27 2021, MaxMem=  2147483648 cpu:         0.2
 (Enter /opt/cluster/programs/g09_d.01/g09/l703.exe)
 Compute integral first derivatives, UseDBF=F ICtDFT=           0.
 Integral derivatives from FoFJK, PRISM(SPDF).
 Calling FoFJK, ICntrl=      2127 FMM=F ISym2X=0 I1Cent= 0 IOpClX= 0 NMat=1 NMatS=1 NMatT=0.
 FoFJK:  IHMeth= 1 ICntrl=    2127 DoSepK=T KAlg= 0 I1Cent=   0 FoldK=F
 IRaf=         1 NMat=   1 IRICut=       1 DoRegI=T DoRafI=F ISym2E= 0.
 FoFCou: FMM=F IPFlag=           0 FMFlag=      100000 FMFlg1=         800
         NFxFlg=           0 DoJE=F BraDBF=F KetDBF=F FulRan=T
         wScrn=  0.000000 ICntrl=    2527 IOpCl=  0 I1Cent=           0 NGrid=           0
         NMat0=    1 NMatS0=      1 NMatT0=    0 NMatD0=    1 NMtDS0=    0 NMtDT0=    0
 Symmetry not used in FoFCou.
 Leave Link  703 at Wed May 12 11:58:28 2021, MaxMem=  2147483648 cpu:         2.5
 (Enter /opt/cluster/programs/g09_d.01/g09/l716.exe)
 Dipole        =-1.04047370D+00 2.16162386D-01 6.32357843D-01
 ***** Axes restored to original set *****
 -------------------------------------------------------------------
 Center     Atomic                   Forces (Hartrees/Bohr)
 Number     Number              X              Y              Z
 -------------------------------------------------------------------
      1        6           0.001392304    0.000165091    0.002419706
      2        6          -0.001388744   -0.001210677   -0.003598701
      3        6           0.000172982    0.003232734    0.000150748
      4        8          -0.000463830   -0.002468349    0.000680285
      5        1           0.000225596    0.000213713    0.000206989
      6        1           0.000084843    0.000086566   -0.000067534
      7        1           0.000004092    0.000009467    0.000019484
      8        1          -0.000027242   -0.000028545    0.000189022
 -------------------------------------------------------------------
 Cartesian Forces:  Max     0.003598701 RMS     0.001317132
 Leave Link  716 at Wed May 12 11:58:28 2021, MaxMem=  2147483648 cpu:         0.2
 (Enter /opt/cluster/programs/g09_d.01/g09/l103.exe)

 GradGradGradGradGradGradGradGradGradGradGradGradGradGradGradGradGradGrad
 Berny optimization.
 Using GEDIIS/GDIIS optimizer.
 FormGI is forming the generalized inverse of G from B-inverse, IUseBI=4.
 Internal  Forces:  Max     0.003136369 RMS     0.000875992
 Search for a local minimum.
 Step number   2 out of a maximum of   34
 All quantities printed in internal units (Hartrees-Bohrs-Radians)
 RMS Force = .33185D-03 SwitMx=.10000D-02 MixMth= 2
 Mixed Optimization -- En-DIIS/RFO-DIIS
 Update second derivatives using D2CorX and points    1    2
 DE= -9.39D-05 DEPred=-1.03D-04 R= 9.09D-01
 TightC=F SS=  1.41D+00  RLast= 3.30D-02 DXNew= 5.0454D-01 9.8964D-02
 Trust test= 9.09D-01 RLast= 3.30D-02 DXMaxT set to 3.00D-01
 ITU=  1  0
 Use linear search instead of GDIIS.
     Eigenvalues ---    0.00907   0.01661   0.02881   0.02900   0.15916
     Eigenvalues ---    0.15972   0.16000   0.16173   0.21768   0.22407
     Eigenvalues ---    0.33032   0.34296   0.34791   0.35126   0.35396
     Eigenvalues ---    0.62700   0.802371000.000001000.000001000.00000
     Eigenvalues --- 1000.000001000.000001000.000001000.00000
 RFO step:  Lambda=-1.67816427D-05 EMin= 9.07273065D-03
 Quartic linear search produced a step of -0.07387.
 Iteration  1 RMS(Cart)=  0.00730400 RMS(Int)=  0.00008507
 Iteration  2 RMS(Cart)=  0.00006554 RMS(Int)=  0.00003726
 Iteration  3 RMS(Cart)=  0.00000000 RMS(Int)=  0.00003726
 Iteration  1 RMS(Cart)=  0.00000026 RMS(Int)=  0.00000019
 ITry= 1 IFail=0 DXMaxC= 2.23D-02 DCOld= 1.00D+10 DXMaxT= 3.00D-01 DXLimC= 3.00D+00 Rises=F
 Variable       Old X    -DE/DX   Delta X   Delta X   Delta X     New X
                                 (Linear)    (Quad)   (Total)
    R1        2.52259   0.00113   0.00073   0.00032   0.00104   2.52363
    R2        2.04968   0.00007   0.00014  -0.00010   0.00003   2.04972
    R3        2.05352   0.00001   0.00009  -0.00017  -0.00008   2.05344
    R4        2.81525   0.00065   0.00042   0.00094   0.00137   2.81661
    R5        2.05770  -0.00002   0.00019  -0.00046  -0.00027   2.05743
    R6        2.33201  -0.00053   0.00078  -0.00219  -0.00141   2.33060
    R7        2.08210   0.00020   0.00042  -0.00031   0.00011   2.08220
    A1        2.11591   0.00013   0.00021   0.00034   0.00055   2.11646
    A2        2.13000  -0.00006   0.00012  -0.00060  -0.00048   2.12952
    A3        2.03724  -0.00007  -0.00032   0.00026  -0.00007   2.03717
    A4        2.14987  -0.00003   0.00037  -0.00086  -0.00050   2.14937
    A5        2.10858   0.00020  -0.00014   0.00111   0.00096   2.10954
    A6        2.02213  -0.00008  -0.00028   0.00038   0.00009   2.02222
    A7        2.14871   0.00038   0.00026   0.00095   0.00110   2.14982
    A8        2.04769  -0.00039  -0.00019  -0.00173  -0.00203   2.04567
    A9        2.08668   0.00003  -0.00008   0.00044   0.00026   2.08694
    D1       -3.08476  -0.00066   0.00059  -0.00361  -0.00302  -3.08778
    D2       -0.02382   0.00076  -0.00020   0.00608   0.00589  -0.01793
    D3        0.04764  -0.00066   0.00079  -0.00419  -0.00340   0.04424
    D4        3.10858   0.00075   0.00000   0.00551   0.00551   3.11409
    D5        1.74535   0.00314   0.00000   0.00000   0.00000   1.74535
    D6       -1.38125   0.00090   0.00064   0.02658   0.02721  -1.35403
    D7       -1.31928   0.00178   0.00074  -0.00929  -0.00854  -1.32782
    D8        1.83731  -0.00046   0.00138   0.01730   0.01868   1.85599
         Item               Value     Threshold  Converged?
 Maximum Force            0.001130     0.000450     NO 
 RMS     Force            0.000332     0.000300     NO 
 Maximum Displacement     0.022335     0.001800     NO 
 RMS     Displacement     0.007312     0.001200     NO 
 Predicted change in Energy=-8.793109D-06
 Lowest energy point so far.  Saving SCF results.
 GradGradGradGradGradGradGradGradGradGradGradGradGradGradGradGradGradGrad

 Leave Link  103 at Wed May 12 11:58:28 2021, MaxMem=  2147483648 cpu:         0.0
 (Enter /opt/cluster/programs/g09_d.01/g09/l202.exe)
                          Input orientation:                          
 ---------------------------------------------------------------------
 Center     Atomic      Atomic             Coordinates (Angstroms)
 Number     Number       Type             X           Y           Z
 ---------------------------------------------------------------------
      1          6           0        1.666305    0.312659   -0.086701
      2          6           0        0.614024   -0.503240    0.015455
      3          6           0       -0.742179   -0.037291    0.421852
      4          8           0       -1.649730    0.182618   -0.383769
      5          1           0       -0.909736    0.151011    1.494489
      6          1           0        2.628218   -0.049889   -0.432793
      7          1           0        1.602808    1.368528    0.162063
      8          1           0        0.691947   -1.552889   -0.262988
 ---------------------------------------------------------------------
                    Distance matrix (angstroms):
                    1          2          3          4          5
     1  C    0.000000
     2  C    1.335449   0.000000
     3  C    2.486341   1.490488   0.000000
     4  O    3.331854   2.398825   1.233302   0.000000
     5  H    3.026926   2.222033   1.101855   2.019021   0.000000
     6  H    1.084664   2.112683   3.477089   4.284542   4.033843
     7  H    1.086635   2.121958   2.746413   3.504757   3.093636
     8  H    2.112042   1.088745   2.196079   2.917194   2.925301
                    6          7          8
     6  H    0.000000
     7  H    1.848574   0.000000
     8  H    2.457028   3.089501   0.000000
 Stoichiometry    C3H4O
 Framework group  C1[X(C3H4O)]
 Deg. of freedom    18
 Full point group                 C1      NOp   1
 RotChk:  IX=0 Diff= 2.64D-02
 Largest Abelian subgroup         C1      NOp   1
 Largest concise Abelian subgroup C1      NOp   1
                         Standard orientation:                         
 ---------------------------------------------------------------------
 Center     Atomic      Atomic             Coordinates (Angstroms)
 Number     Number       Type             X           Y           Z
 ---------------------------------------------------------------------
      1          6           0       -1.664106   -0.315929   -0.087266
      2          6           0       -0.613807    0.501913    0.019636
      3          6           0        0.743919    0.036614    0.421669
      4          8           0        1.651334   -0.175427   -0.386212
      5          1           0        0.912871   -0.158659    1.492840
      6          1           0       -2.627229    0.046556   -0.430040
      7          1           0       -1.597723   -1.373325    0.154151
      8          1           0       -0.694625    1.553257   -0.251490
 ---------------------------------------------------------------------
 Rotational constants (GHZ):     31.3112912      4.7942052      4.6781804
 Leave Link  202 at Wed May 12 11:58:28 2021, MaxMem=  2147483648 cpu:         0.0
 (Enter /opt/cluster/programs/g09_d.01/g09/l301.exe)
 Standard basis: 6-31+G (6D, 7F)
 Ernie: Thresh=  0.10000D-02 Tol=  0.10000D-05 Strict=F.
 There are    60 symmetry adapted cartesian basis functions of A   symmetry.
 There are    60 symmetry adapted basis functions of A   symmetry.
    60 basis functions,   120 primitive gaussians,    60 cartesian basis functions
    15 alpha electrons       15 beta electrons
       nuclear repulsion energy       102.5585372571 Hartrees.
 IExCor= 4639 DFT=T Ex+Corr=wB97XD ExCW=0 ScaHFX=  1.000000
 ScaDFX=  1.000000  1.000000  1.000000  1.000000 ScalE2=  1.000000  1.000000
 IRadAn=      0 IRanWt=     -1 IRanGd=            0 ICorTp=0 IEmpDi=121
  HFx wShort=  0.000000 wLong=  0.200000 cFull=  0.222036 cShort=  0.000000 cLong=  0.777964
  DFx wShort=  0.000000 wLong=  0.200000 cFull=  0.000000 cShort=  0.000000 cLong=  1.000000
 NAtoms=    8 NActive=    8 NUniq=    8 SFac= 1.00D+00 NAtFMM=   60 NAOKFM=F Big=F
 Integral buffers will be    131072 words long.
 Raffenetti 2 integral format.
 Two-electron integral symmetry is turned on.
 R6Disp:  Grimme-D2 Dispersion energy=       -0.0017885213 Hartrees.
 Nuclear repulsion after empirical dispersion term =      102.5567487359 Hartrees.
 Leave Link  301 at Wed May 12 11:58:28 2021, MaxMem=  2147483648 cpu:         0.3
 (Enter /opt/cluster/programs/g09_d.01/g09/l302.exe)
 NPDir=0 NMtPBC=     1 NCelOv=     1 NCel=       1 NClECP=     1 NCelD=      1
         NCelK=      1 NCelE2=     1 NClLst=     1 CellRange=     0.0.
 One-electron integrals computed using PRISM.
 NBasis=    60 RedAO= T EigKep=  1.33D-04  NBF=    60
 NBsUse=    60 1.00D-06 EigRej= -1.00D+00 NBFU=    60
 Precomputing XC quadrature grid using
 IXCGrd= 4 IRadAn=           0 IRanWt=          -1 IRanGd=           0 AccXCQ= 0.00D+00.
 Generated NRdTot=       0 NPtTot=           0 NUsed=           0 NTot=          32
 NSgBfM=    60    60    60    60    60 MxSgAt=     8 MxSgA2=     8.
 Leave Link  302 at Wed May 12 11:58:28 2021, MaxMem=  2147483648 cpu:         0.8
 (Enter /opt/cluster/programs/g09_d.01/g09/l303.exe)
 DipDrv:  MaxL=1.
 Leave Link  303 at Wed May 12 11:58:28 2021, MaxMem=  2147483648 cpu:         0.2
 (Enter /opt/cluster/programs/g09_d.01/g09/l401.exe)
 Initial guess from the checkpoint file:  "/home/unibas/boittier/RDKit_G2/L.pdb/SCAN_1_2_3_4_S_17_20.0/14_SCAN_1_2_3_4_F/L.pdb.chk"
 B after Tr=     0.000000    0.000000    0.000000
         Rot=    0.999966   -0.008241    0.000234   -0.000132 Ang=  -0.94 deg.
 Guess basis will be translated and rotated to current coordinates.
 JPrj=2 DoOrth=T DoCkMO=T.
 Generating alternative initial guess.
 ExpMin= 4.38D-02 ExpMax= 5.48D+03 ExpMxC= 8.25D+02 IAcc=2 IRadAn=         4 AccDes= 0.00D+00
 Harris functional with IExCor= 4639 and IRadAn=       4 diagonalized for initial guess.
 HarFok:  IExCor= 4639 AccDes= 0.00D+00 IRadAn=         4 IDoV= 1 UseB2=F ITyADJ=14
 ICtDFT=  3500011 ScaDFX=  1.000000  1.000000  1.000000  1.000000
 FoFCou: FMM=F IPFlag=           0 FMFlag=      100000 FMFlg1=           0
         NFxFlg=           0 DoJE=T BraDBF=F KetDBF=T FulRan=T
         wScrn=  0.000000 ICntrl=     500 IOpCl=  0 I1Cent=   200000004 NGrid=           0
         NMat0=    1 NMatS0=      1 NMatT0=    0 NMatD0=    1 NMtDS0=    0 NMtDT0=    0
 Petite list used in FoFCou.
 Harris En= -183.737972861065    
 Leave Link  401 at Wed May 12 11:58:28 2021, MaxMem=  2147483648 cpu:         1.4
 (Enter /opt/cluster/programs/g09_d.01/g09/l502.exe)
 Closed shell SCF:
 Using DIIS extrapolation, IDIIS=  1040.
 Integral symmetry usage will be decided dynamically.
 Keep R1 ints in memory in canonical form, NReq=4262490.
 IVT=       30290 IEndB=       30290 NGot=  2147483648 MDV=  2144102629
 LenX=  2144102629 LenY=  2144098588
 Requested convergence on RMS density matrix=1.00D-08 within 128 cycles.
 Requested convergence on MAX density matrix=1.00D-06.
 Requested convergence on             energy=1.00D-06.
 No special actions if energy rises.
 FoFCou: FMM=F IPFlag=           0 FMFlag=           0 FMFlg1=           0
         NFxFlg=           0 DoJE=F BraDBF=F KetDBF=F FulRan=T
         wScrn=  0.000000 ICntrl=     600 IOpCl=  0 I1Cent=           0 NGrid=           0
         NMat0=    1 NMatS0=   1830 NMatT0=    0 NMatD0=    1 NMtDS0=    0 NMtDT0=    0
 Symmetry not used in FoFCou.

 Cycle   1  Pass 1  IDiag  1:
 E= -191.782513205412    
 DIIS: error= 3.75D-04 at cycle   1 NSaved=   1.
 NSaved= 1 IEnMin= 1 EnMin= -191.782513205412     IErMin= 1 ErrMin= 3.75D-04
 ErrMax= 3.75D-04  0.00D+00 EMaxC= 1.00D-01 BMatC= 1.59D-05 BMatP= 1.59D-05
 IDIUse=3 WtCom= 9.96D-01 WtEn= 3.75D-03
 Coeff-Com:  0.100D+01
 Coeff-En:   0.100D+01
 Coeff:      0.100D+01
 Gap=     0.613 Goal=   None    Shift=    0.000
 RMSDP=2.13D-04 MaxDP=2.29D-03              OVMax= 2.50D-03

 Cycle   2  Pass 1  IDiag  1:
 E= -191.782550329181     Delta-E=       -0.000037123768 Rises=F Damp=F
 DIIS: error= 1.77D-04 at cycle   2 NSaved=   2.
 NSaved= 2 IEnMin= 2 EnMin= -191.782550329181     IErMin= 2 ErrMin= 1.77D-04
 ErrMax= 1.77D-04  0.00D+00 EMaxC= 1.00D-01 BMatC= 1.13D-06 BMatP= 1.59D-05
 IDIUse=3 WtCom= 9.98D-01 WtEn= 1.77D-03
 Coeff-Com: -0.178D+00 0.118D+01
 Coeff-En:   0.000D+00 0.100D+01
 Coeff:     -0.178D+00 0.118D+01
 Gap=     0.366 Goal=   None    Shift=    0.000
 RMSDP=5.74D-05 MaxDP=5.42D-04 DE=-3.71D-05 OVMax= 1.64D-03

 Cycle   3  Pass 1  IDiag  1:
 E= -191.782554543873     Delta-E=       -0.000004214692 Rises=F Damp=F
 DIIS: error= 8.29D-05 at cycle   3 NSaved=   3.
 NSaved= 3 IEnMin= 3 EnMin= -191.782554543873     IErMin= 3 ErrMin= 8.29D-05
 ErrMax= 8.29D-05  0.00D+00 EMaxC= 1.00D-01 BMatC= 7.07D-07 BMatP= 1.13D-06
 IDIUse=1 WtCom= 1.00D+00 WtEn= 0.00D+00
 Coeff-Com: -0.126D+00 0.586D+00 0.539D+00
 Coeff:     -0.126D+00 0.586D+00 0.539D+00
 Gap=     0.366 Goal=   None    Shift=    0.000
 RMSDP=1.97D-05 MaxDP=2.65D-04 DE=-4.21D-06 OVMax= 4.45D-04

 Cycle   4  Pass 1  IDiag  1:
 E= -191.782555435567     Delta-E=       -0.000000891694 Rises=F Damp=F
 DIIS: error= 6.74D-05 at cycle   4 NSaved=   4.
 NSaved= 4 IEnMin= 4 EnMin= -191.782555435567     IErMin= 4 ErrMin= 6.74D-05
 ErrMax= 6.74D-05  0.00D+00 EMaxC= 1.00D-01 BMatC= 1.16D-07 BMatP= 7.07D-07
 IDIUse=1 WtCom= 1.00D+00 WtEn= 0.00D+00
 Coeff-Com:  0.178D-01-0.200D+00 0.204D+00 0.978D+00
 Coeff:      0.178D-01-0.200D+00 0.204D+00 0.978D+00
 Gap=     0.366 Goal=   None    Shift=    0.000
 RMSDP=1.85D-05 MaxDP=1.65D-04 DE=-8.92D-07 OVMax= 6.55D-04

 Cycle   5  Pass 1  IDiag  1:
 E= -191.782555889169     Delta-E=       -0.000000453603 Rises=F Damp=F
 DIIS: error= 2.58D-05 at cycle   5 NSaved=   5.
 NSaved= 5 IEnMin= 5 EnMin= -191.782555889169     IErMin= 5 ErrMin= 2.58D-05
 ErrMax= 2.58D-05  0.00D+00 EMaxC= 1.00D-01 BMatC= 1.90D-08 BMatP= 1.16D-07
 IDIUse=1 WtCom= 1.00D+00 WtEn= 0.00D+00
 Coeff-Com:  0.251D-01-0.152D+00-0.335D-01 0.285D+00 0.876D+00
 Coeff:      0.251D-01-0.152D+00-0.335D-01 0.285D+00 0.876D+00
 Gap=     0.366 Goal=   None    Shift=    0.000
 RMSDP=8.30D-06 MaxDP=7.23D-05 DE=-4.54D-07 OVMax= 3.23D-04

 Cycle   6  Pass 1  IDiag  1:
 E= -191.782555986221     Delta-E=       -0.000000097052 Rises=F Damp=F
 DIIS: error= 1.39D-05 at cycle   6 NSaved=   6.
 NSaved= 6 IEnMin= 6 EnMin= -191.782555986221     IErMin= 6 ErrMin= 1.39D-05
 ErrMax= 1.39D-05  0.00D+00 EMaxC= 1.00D-01 BMatC= 4.44D-09 BMatP= 1.90D-08
 IDIUse=1 WtCom= 1.00D+00 WtEn= 0.00D+00
 Coeff-Com:  0.325D-02 0.734D-02-0.760D-01-0.191D+00 0.276D+00 0.980D+00
 Coeff:      0.325D-02 0.734D-02-0.760D-01-0.191D+00 0.276D+00 0.980D+00
 Gap=     0.366 Goal=   None    Shift=    0.000
 RMSDP=5.24D-06 MaxDP=4.88D-05 DE=-9.71D-08 OVMax= 2.12D-04

 Cycle   7  Pass 1  IDiag  1:
 E= -191.782556012018     Delta-E=       -0.000000025797 Rises=F Damp=F
 DIIS: error= 3.16D-06 at cycle   7 NSaved=   7.
 NSaved= 7 IEnMin= 7 EnMin= -191.782556012018     IErMin= 7 ErrMin= 3.16D-06
 ErrMax= 3.16D-06  0.00D+00 EMaxC= 1.00D-01 BMatC= 6.07D-10 BMatP= 4.44D-09
 IDIUse=1 WtCom= 1.00D+00 WtEn= 0.00D+00
 Coeff-Com: -0.256D-02 0.244D-01-0.198D-01-0.104D+00-0.272D-01 0.315D+00
 Coeff-Com:  0.814D+00
 Coeff:     -0.256D-02 0.244D-01-0.198D-01-0.104D+00-0.272D-01 0.315D+00
 Coeff:      0.814D+00
 Gap=     0.366 Goal=   None    Shift=    0.000
 RMSDP=1.39D-06 MaxDP=1.26D-05 DE=-2.58D-08 OVMax= 5.23D-05

 Cycle   8  Pass 1  IDiag  1:
 E= -191.782556014154     Delta-E=       -0.000000002136 Rises=F Damp=F
 DIIS: error= 1.14D-06 at cycle   8 NSaved=   8.
 NSaved= 8 IEnMin= 8 EnMin= -191.782556014154     IErMin= 8 ErrMin= 1.14D-06
 ErrMax= 1.14D-06  0.00D+00 EMaxC= 1.00D-01 BMatC= 6.08D-11 BMatP= 6.07D-10
 IDIUse=1 WtCom= 1.00D+00 WtEn= 0.00D+00
 Coeff-Com: -0.821D-03 0.196D-02 0.108D-01 0.182D-01-0.530D-01-0.136D+00
 Coeff-Com:  0.149D+00 0.101D+01
 Coeff:     -0.821D-03 0.196D-02 0.108D-01 0.182D-01-0.530D-01-0.136D+00
 Coeff:      0.149D+00 0.101D+01
 Gap=     0.366 Goal=   None    Shift=    0.000
 RMSDP=6.05D-07 MaxDP=7.10D-06 DE=-2.14D-09 OVMax= 1.85D-05

 Cycle   9  Pass 1  IDiag  1:
 E= -191.782556014397     Delta-E=       -0.000000000244 Rises=F Damp=F
 DIIS: error= 2.35D-07 at cycle   9 NSaved=   9.
 NSaved= 9 IEnMin= 9 EnMin= -191.782556014397     IErMin= 9 ErrMin= 2.35D-07
 ErrMax= 2.35D-07  0.00D+00 EMaxC= 1.00D-01 BMatC= 1.45D-12 BMatP= 6.08D-11
 IDIUse=1 WtCom= 1.00D+00 WtEn= 0.00D+00
 Coeff-Com:  0.172D-03-0.128D-02 0.237D-03 0.392D-02 0.484D-02-0.370D-02
 Coeff-Com: -0.568D-01-0.628D-01 0.112D+01
 Coeff:      0.172D-03-0.128D-02 0.237D-03 0.392D-02 0.484D-02-0.370D-02
 Coeff:     -0.568D-01-0.628D-01 0.112D+01
 Gap=     0.366 Goal=   None    Shift=    0.000
 RMSDP=1.04D-07 MaxDP=1.60D-06 DE=-2.44D-10 OVMax= 1.88D-06

 Cycle  10  Pass 1  IDiag  1:
 E= -191.782556014405     Delta-E=       -0.000000000007 Rises=F Damp=F
 DIIS: error= 5.24D-08 at cycle  10 NSaved=  10.
 NSaved=10 IEnMin=10 EnMin= -191.782556014405     IErMin=10 ErrMin= 5.24D-08
 ErrMax= 5.24D-08  0.00D+00 EMaxC= 1.00D-01 BMatC= 1.11D-13 BMatP= 1.45D-12
 IDIUse=1 WtCom= 1.00D+00 WtEn= 0.00D+00
 Coeff-Com:  0.551D-04-0.202D-03-0.557D-03-0.737D-03 0.338D-02 0.668D-02
 Coeff-Com: -0.128D-01-0.555D-01 0.654D-01 0.994D+00
 Coeff:      0.551D-04-0.202D-03-0.557D-03-0.737D-03 0.338D-02 0.668D-02
 Coeff:     -0.128D-01-0.555D-01 0.654D-01 0.994D+00
 Gap=     0.366 Goal=   None    Shift=    0.000
 RMSDP=2.73D-08 MaxDP=3.11D-07 DE=-7.22D-12 OVMax= 5.81D-07

 Cycle  11  Pass 1  IDiag  1:
 E= -191.782556014405     Delta-E=       -0.000000000001 Rises=F Damp=F
 DIIS: error= 1.47D-08 at cycle  11 NSaved=  11.
 NSaved=11 IEnMin=11 EnMin= -191.782556014405     IErMin=11 ErrMin= 1.47D-08
 ErrMax= 1.47D-08  0.00D+00 EMaxC= 1.00D-01 BMatC= 1.50D-14 BMatP= 1.11D-13
 IDIUse=1 WtCom= 1.00D+00 WtEn= 0.00D+00
 Coeff-Com: -0.769D-05 0.989D-04-0.141D-03-0.538D-03 0.127D-03 0.159D-02
 Coeff-Com:  0.353D-02-0.240D-02-0.110D+00 0.181D+00 0.927D+00
 Coeff:     -0.769D-05 0.989D-04-0.141D-03-0.538D-03 0.127D-03 0.159D-02
 Coeff:      0.353D-02-0.240D-02-0.110D+00 0.181D+00 0.927D+00
 Gap=     0.366 Goal=   None    Shift=    0.000
 RMSDP=1.26D-08 MaxDP=1.58D-07 DE=-5.12D-13 OVMax= 2.20D-07

 Cycle  12  Pass 1  IDiag  1:
 E= -191.782556014405     Delta-E=        0.000000000000 Rises=F Damp=F
 DIIS: error= 3.62D-09 at cycle  12 NSaved=  12.
 NSaved=12 IEnMin=12 EnMin= -191.782556014405     IErMin=12 ErrMin= 3.62D-09
 ErrMax= 3.62D-09  0.00D+00 EMaxC= 1.00D-01 BMatC= 7.70D-16 BMatP= 1.50D-14
 IDIUse=1 WtCom= 1.00D+00 WtEn= 0.00D+00
 Coeff-Com: -0.268D-05-0.347D-05 0.751D-04 0.160D-03-0.312D-03-0.791D-03
 Coeff-Com:  0.176D-03 0.511D-02 0.157D-01-0.116D+00-0.174D+00 0.127D+01
 Coeff:     -0.268D-05-0.347D-05 0.751D-04 0.160D-03-0.312D-03-0.791D-03
 Coeff:      0.176D-03 0.511D-02 0.157D-01-0.116D+00-0.174D+00 0.127D+01
 Gap=     0.366 Goal=   None    Shift=    0.000
 RMSDP=5.75D-09 MaxDP=7.44D-08 DE=-1.14D-13 OVMax= 8.31D-08

 SCF Done:  E(RwB97XD) =  -191.782556014     A.U. after   12 cycles
            NFock= 12  Conv=0.57D-08     -V/T= 2.0058
 KE= 1.906764376939D+02 PE=-6.525055993490D+02 EE= 1.674898569048D+02
 Leave Link  502 at Wed May 12 11:58:29 2021, MaxMem=  2147483648 cpu:         8.1
 (Enter /opt/cluster/programs/g09_d.01/g09/l701.exe)
 Compute integral first derivatives.
 ... and contract with generalized density number  0.
 R6Disp: Adding Grimme-D2 dispersion energy 1st derivatives to the gradient.
 Leave Link  701 at Wed May 12 11:58:29 2021, MaxMem=  2147483648 cpu:         0.6
 (Enter /opt/cluster/programs/g09_d.01/g09/l702.exe)
 L702 exits ... SP integral derivatives will be done elsewhere.
 Leave Link  702 at Wed May 12 11:58:29 2021, MaxMem=  2147483648 cpu:         0.2
 (Enter /opt/cluster/programs/g09_d.01/g09/l703.exe)
 Compute integral first derivatives, UseDBF=F ICtDFT=           0.
 Integral derivatives from FoFJK, PRISM(SPDF).
 Calling FoFJK, ICntrl=      2127 FMM=F ISym2X=0 I1Cent= 0 IOpClX= 0 NMat=1 NMatS=1 NMatT=0.
 FoFJK:  IHMeth= 1 ICntrl=    2127 DoSepK=T KAlg= 0 I1Cent=   0 FoldK=F
 IRaf=         1 NMat=   1 IRICut=       1 DoRegI=T DoRafI=F ISym2E= 0.
 FoFCou: FMM=F IPFlag=           0 FMFlag=      100000 FMFlg1=         800
         NFxFlg=           0 DoJE=F BraDBF=F KetDBF=F FulRan=T
         wScrn=  0.000000 ICntrl=    2527 IOpCl=  0 I1Cent=           0 NGrid=           0
         NMat0=    1 NMatS0=      1 NMatT0=    0 NMatD0=    1 NMtDS0=    0 NMtDT0=    0
 Symmetry not used in FoFCou.
 Leave Link  703 at Wed May 12 11:58:30 2021, MaxMem=  2147483648 cpu:         2.5
 (Enter /opt/cluster/programs/g09_d.01/g09/l716.exe)
 Dipole        =-1.04218667D+00 2.03622257D-01 6.35252783D-01
 ***** Axes restored to original set *****
 -------------------------------------------------------------------
 Center     Atomic                   Forces (Hartrees/Bohr)
 Number     Number              X              Y              Z
 -------------------------------------------------------------------
      1        6           0.000665674   -0.000153094    0.002406520
      2        6          -0.001373630   -0.001863321   -0.003001774
      3        6           0.002228723    0.006057616    0.000399768
      4        8          -0.001472524   -0.003334000    0.000073650
      5        1          -0.000170179   -0.000787592    0.000358353
      6        1           0.000024171    0.000025956   -0.000058251
      7        1          -0.000004229    0.000074568   -0.000009213
      8        1           0.000101995   -0.000020134   -0.000169054
 -------------------------------------------------------------------
 Cartesian Forces:  Max     0.006057616 RMS     0.001786125
 Leave Link  716 at Wed May 12 11:58:30 2021, MaxMem=  2147483648 cpu:         0.2
 (Enter /opt/cluster/programs/g09_d.01/g09/l103.exe)

 GradGradGradGradGradGradGradGradGradGradGradGradGradGradGradGradGradGrad
 Berny optimization.
 Using GEDIIS/GDIIS optimizer.
 FormGI is forming the generalized inverse of G from B-inverse, IUseBI=4.
 Internal  Forces:  Max     0.004067240 RMS     0.001104973
 Search for a local minimum.
 Step number   3 out of a maximum of   34
 All quantities printed in internal units (Hartrees-Bohrs-Radians)
 RMS Force = .33514D-03 SwitMx=.10000D-02 MixMth= 2
 Mixed Optimization -- En-DIIS/RFO-DIIS
 Swapping is turned off.
 Update second derivatives using D2CorX and points    1    2    3
 DE=  9.52D-06 DEPred=-8.79D-06 R=-1.08D+00
 Trust test=-1.08D+00 RLast= 3.55D-02 DXMaxT set to 1.50D-01
 ITU= -1  1  0
     Eigenvalues ---    0.01351   0.02860   0.02894   0.04847   0.15044
     Eigenvalues ---    0.15998   0.16120   0.16146   0.20217   0.22401
     Eigenvalues ---    0.32496   0.34162   0.34879   0.35158   0.35445
     Eigenvalues ---    0.61254   0.630291000.000001000.000001000.00000
     Eigenvalues --- 1000.000001000.000001000.000001000.00000
 En-DIIS/RFO-DIIS IScMMF=        0 using points:     3    2
 RFO step:  Lambda=-9.65234649D-06.
 NNeg= 0 NP= 2 Switch=  2.50D-03 Rises=F DC= -9.52D-06 SmlDif=  1.00D-05
 RMS Error=  0.1220843855D-02 NUsed= 2 EDIIS=F
 DidBck=T Rises=F RFO-DIIS coefs:    0.28657    0.71343
 Iteration  1 RMS(Cart)=  0.00538732 RMS(Int)=  0.00004399
 Iteration  2 RMS(Cart)=  0.00003758 RMS(Int)=  0.00000452
 Iteration  3 RMS(Cart)=  0.00000000 RMS(Int)=  0.00000452
 Iteration  1 RMS(Cart)=  0.00000043 RMS(Int)=  0.00000032
 ITry= 1 IFail=0 DXMaxC= 1.78D-02 DCOld= 1.00D+10 DXMaxT= 1.50D-01 DXLimC= 3.00D+00 Rises=F
 Variable       Old X    -DE/DX   Delta X   Delta X   Delta X     New X
                                 (Linear)    (Quad)   (Total)
    R1        2.52363   0.00032  -0.00075   0.00120   0.00046   2.52409
    R2        2.04972   0.00004  -0.00002   0.00008   0.00006   2.04978
    R3        2.05344   0.00006   0.00006   0.00000   0.00005   2.05349
    R4        2.81661   0.00031  -0.00098   0.00150   0.00052   2.81714
    R5        2.05743   0.00007   0.00019  -0.00014   0.00005   2.05748
    R6        2.33060   0.00044   0.00101  -0.00093   0.00008   2.33068
    R7        2.08220   0.00024  -0.00008   0.00036   0.00028   2.08249
    A1        2.11646   0.00001  -0.00039   0.00054   0.00015   2.11660
    A2        2.12952   0.00001   0.00034  -0.00039  -0.00004   2.12947
    A3        2.03717  -0.00002   0.00005  -0.00015  -0.00011   2.03707
    A4        2.14937  -0.00038   0.00036  -0.00089  -0.00053   2.14885
    A5        2.10954   0.00015  -0.00068   0.00068   0.00000   2.10954
    A6        2.02222   0.00030  -0.00006   0.00029   0.00024   2.02245
    A7        2.14982   0.00029  -0.00079   0.00145   0.00068   2.15050
    A8        2.04567  -0.00019   0.00145  -0.00189  -0.00043   2.04524
    A9        2.08694   0.00006  -0.00018   0.00050   0.00033   2.08726
    D1       -3.08778  -0.00055   0.00216   0.00092   0.00308  -3.08470
    D2       -0.01793   0.00064  -0.00420   0.00237  -0.00184  -0.01976
[...]

 Cycle  11  Pass 1  IDiag  1:
 E= -191.782571280428     Delta-E=       -0.000000000002 Rises=F Damp=F
 DIIS: error= 1.52D-08 at cycle  11 NSaved=  11.
 NSaved=11 IEnMin=11 EnMin= -191.782571280428     IErMin=11 ErrMin= 1.52D-08
 ErrMax= 1.52D-08  0.00D+00 EMaxC= 1.00D-01 BMatC= 1.00D-14 BMatP= 1.20D-13
 IDIUse=1 WtCom= 1.00D+00 WtEn= 0.00D+00
 Coeff-Com: -0.917D-05 0.118D-03-0.193D-03-0.610D-03 0.500D-03 0.147D-02
 Coeff-Com:  0.500D-02-0.862D-02-0.112D+00 0.705D-01 0.104D+01
 Coeff:     -0.917D-05 0.118D-03-0.193D-03-0.610D-03 0.500D-03 0.147D-02
 Coeff:      0.500D-02-0.862D-02-0.112D+00 0.705D-01 0.104D+01
 Gap=     0.366 Goal=   None    Shift=    0.000
 RMSDP=1.22D-08 MaxDP=1.41D-07 DE=-1.99D-12 OVMax= 2.43D-07

 Cycle  12  Pass 1  IDiag  1:
 E= -191.782571280427     Delta-E=        0.000000000001 Rises=F Damp=F
 DIIS: error= 3.00D-09 at cycle  12 NSaved=  12.
 NSaved=12 IEnMin=11 EnMin= -191.782571280428     IErMin=12 ErrMin= 3.00D-09
 ErrMax= 3.00D-09  0.00D+00 EMaxC= 1.00D-01 BMatC= 4.50D-16 BMatP= 1.00D-14
 IDIUse=1 WtCom= 1.00D+00 WtEn= 0.00D+00
 Coeff-Com: -0.293D-05-0.503D-05 0.895D-04 0.188D-03-0.586D-03-0.610D-03
 Coeff-Com:  0.716D-03 0.669D-02 0.122D-01-0.697D-01-0.251D+00 0.130D+01
 Coeff:     -0.293D-05-0.503D-05 0.895D-04 0.188D-03-0.586D-03-0.610D-03
 Coeff:      0.716D-03 0.669D-02 0.122D-01-0.697D-01-0.251D+00 0.130D+01
 Gap=     0.366 Goal=   None    Shift=    0.000
 RMSDP=4.59D-09 MaxDP=6.46D-08 DE= 7.39D-13 OVMax= 6.70D-08

 SCF Done:  E(RwB97XD) =  -191.782571280     A.U. after   12 cycles
            NFock= 12  Conv=0.46D-08     -V/T= 2.0058
 KE= 1.906747381238D+02 PE=-6.524739075502D+02 EE= 1.674752541000D+02
 Leave Link  502 at Wed May 12 11:58:33 2021, MaxMem=  2147483648 cpu:         8.1
 (Enter /opt/cluster/programs/g09_d.01/g09/l701.exe)
 Compute integral first derivatives.
 ... and contract with generalized density number  0.
 R6Disp: Adding Grimme-D2 dispersion energy 1st derivatives to the gradient.
 Leave Link  701 at Wed May 12 11:58:33 2021, MaxMem=  2147483648 cpu:         0.6
 (Enter /opt/cluster/programs/g09_d.01/g09/l702.exe)
 L702 exits ... SP integral derivatives will be done elsewhere.
 Leave Link  702 at Wed May 12 11:58:33 2021, MaxMem=  2147483648 cpu:         0.2
 (Enter /opt/cluster/programs/g09_d.01/g09/l703.exe)
 Compute integral first derivatives, UseDBF=F ICtDFT=           0.
 Integral derivatives from FoFJK, PRISM(SPDF).
 Calling FoFJK, ICntrl=      2127 FMM=F ISym2X=0 I1Cent= 0 IOpClX= 0 NMat=1 NMatS=1 NMatT=0.
 FoFJK:  IHMeth= 1 ICntrl=    2127 DoSepK=T KAlg= 0 I1Cent=   0 FoldK=F
 IRaf=         1 NMat=   1 IRICut=       1 DoRegI=T DoRafI=F ISym2E= 0.
 FoFCou: FMM=F IPFlag=           0 FMFlag=      100000 FMFlg1=         800
         NFxFlg=           0 DoJE=F BraDBF=F KetDBF=F FulRan=T
         wScrn=  0.000000 ICntrl=    2527 IOpCl=  0 I1Cent=           0 NGrid=           0
         NMat0=    1 NMatS0=      1 NMatT0=    0 NMatD0=    1 NMtDS0=    0 NMtDT0=    0
 Symmetry not used in FoFCou.
 Leave Link  703 at Wed May 12 11:58:33 2021, MaxMem=  2147483648 cpu:         2.5
 (Enter /opt/cluster/programs/g09_d.01/g09/l716.exe)
 Dipole        =-1.04071215D+00 2.14297626D-01 6.31845651D-01
 ***** Axes restored to original set *****
 -------------------------------------------------------------------
 Center     Atomic                   Forces (Hartrees/Bohr)
 Number     Number              X              Y              Z
 -------------------------------------------------------------------
      1        6           0.000594532   -0.000373972    0.002391824
      2        6          -0.001159887   -0.000676710   -0.003463176
      3        6           0.001513213    0.003604530    0.000855721
      4        8          -0.001037560   -0.002582835    0.000060154
      5        1           0.000047834    0.000011934    0.000156903
      6        1           0.000037601    0.000010280    0.000019990
      7        1          -0.000015144    0.000040324   -0.000028067
      8        1           0.000019411   -0.000033552    0.000006652
 -------------------------------------------------------------------
 Cartesian Forces:  Max     0.003604530 RMS     0.001351081
 Leave Link  716 at Wed May 12 11:58:33 2021, MaxMem=  2147483648 cpu:         0.2
 (Enter /opt/cluster/programs/g09_d.01/g09/l103.exe)

 GradGradGradGradGradGradGradGradGradGradGradGradGradGradGradGradGradGrad
 Berny optimization.
 Using GEDIIS/GDIIS optimizer.
 FormGI is forming the generalized inverse of G from B-inverse, IUseBI=4.
 Internal  Forces:  Max     0.003312627 RMS     0.000863104
 Search for a local minimum.
 Step number   4 out of a maximum of   34
 All quantities printed in internal units (Hartrees-Bohrs-Radians)
 RMS Force = .82700D-04 SwitMx=.10000D-02 MixMth= 2
 Mixed Optimization -- En-DIIS/RFO-DIIS
 Swapping is turned off.
 Update second derivatives using D2CorX and points    1    2    3    4
 DE= -1.53D-05 DEPred=-1.79D-05 R= 8.54D-01
 TightC=F SS=  1.41D+00  RLast= 2.76D-02 DXNew= 2.5227D-01 8.2904D-02
 Trust test= 8.54D-01 RLast= 2.76D-02 DXMaxT set to 1.50D-01
 ITU=  1 -1  1  0
     Eigenvalues ---    0.01385   0.02878   0.02966   0.04942   0.14362
     Eigenvalues ---    0.15999   0.16037   0.16138   0.20389   0.22457
     Eigenvalues ---    0.32518   0.33245   0.34796   0.35129   0.35349
     Eigenvalues ---    0.62373   0.804211000.000001000.000001000.00000
     Eigenvalues --- 1000.000001000.000001000.000001000.00000
 En-DIIS/RFO-DIIS IScMMF=        0 using points:     4    3    2
 RFO step:  Lambda=-8.00529899D-07.
 NNeg= 0 NP= 3 Switch=  2.50D-03 Rises=F DC= -9.52D-06 SmlDif=  1.00D-05
 RMS Error=  0.1385432774D-03 NUsed= 3 EDIIS=F
 DidBck=F Rises=F RFO-DIIS coefs:    1.10994   -0.03262   -0.07732
 Iteration  1 RMS(Cart)=  0.00060555 RMS(Int)=  0.00000101
 Iteration  2 RMS(Cart)=  0.00000029 RMS(Int)=  0.00000098
 Iteration  1 RMS(Cart)=  0.00000038 RMS(Int)=  0.00000028
 ITry= 1 IFail=0 DXMaxC= 1.53D-03 DCOld= 1.00D+10 DXMaxT= 1.50D-01 DXLimC= 3.00D+00 Rises=F
 Variable       Old X    -DE/DX   Delta X   Delta X   Delta X     New X
                                 (Linear)    (Quad)   (Total)
    R1        2.52409   0.00009   0.00013   0.00001   0.00015   2.52424
    R2        2.04978   0.00003   0.00001   0.00006   0.00007   2.04985
    R3        2.05349   0.00003   0.00000   0.00008   0.00008   2.05358
    R4        2.81714   0.00014   0.00016   0.00032   0.00048   2.81762
    R5        2.05748   0.00003  -0.00002   0.00010   0.00008   2.05756
    R6        2.33068   0.00027  -0.00010   0.00034   0.00024   2.33092
    R7        2.08249   0.00015   0.00004   0.00042   0.00046   2.08294
    A1        2.11660   0.00002   0.00006   0.00011   0.00017   2.11677
    A2        2.12947  -0.00001  -0.00004  -0.00006  -0.00010   2.12937
    A3        2.03707  -0.00001  -0.00002  -0.00004  -0.00006   2.03701
    A4        2.14885  -0.00005  -0.00010  -0.00031  -0.00041   2.14844
    A5        2.10954   0.00011   0.00007   0.00009   0.00017   2.10970
    A6        2.02245   0.00002   0.00003   0.00023   0.00026   2.02271
    A7        2.15050   0.00008   0.00016   0.00018   0.00034   2.15084
    A8        2.04524  -0.00010  -0.00020  -0.00055  -0.00076   2.04448
    A9        2.08726   0.00006   0.00006   0.00036   0.00042   2.08768
    D1       -3.08470  -0.00069   0.00011  -0.00119  -0.00108  -3.08578
    D2       -0.01976   0.00064   0.00025  -0.00103  -0.00077  -0.02054
    D3        0.04686  -0.00067   0.00003  -0.00045  -0.00042   0.04644
    D4        3.11180   0.00066   0.00017  -0.00029  -0.00011   3.11169
    D5        1.74535   0.00331   0.00000   0.00000   0.00000   1.74535
    D6       -1.37514   0.00063  -0.00022   0.00013  -0.00008  -1.37522
    D7       -1.32312   0.00204  -0.00014  -0.00015  -0.00029  -1.32342
    D8        1.83958  -0.00064  -0.00036  -0.00002  -0.00038   1.83920
         Item               Value     Threshold  Converged?
 Maximum Force            0.000272     0.000450     YES
 RMS     Force            0.000083     0.000300     YES
 Maximum Displacement     0.001528     0.001800     YES
 RMS     Displacement     0.000606     0.001200     YES
 Predicted change in Energy=-2.206596D-07
 Optimization completed.
    -- Stationary point found.
                           ----------------------------
                           !   Optimized Parameters   !
                           ! (Angstroms and Degrees)  !
 --------------------------                            --------------------------
 ! Name  Definition              Value          Derivative Info.                !
 --------------------------------------------------------------------------------
 ! R1    R(1,2)                  1.3357         -DE/DX =    0.0001              !
 ! R2    R(1,6)                  1.0847         -DE/DX =    0.0                 !
 ! R3    R(1,7)                  1.0867         -DE/DX =    0.0                 !
 ! R4    R(2,3)                  1.4908         -DE/DX =    0.0001              !
 ! R5    R(2,8)                  1.0888         -DE/DX =    0.0                 !
 ! R6    R(3,4)                  1.2333         -DE/DX =    0.0003              !
 ! R7    R(3,5)                  1.102          -DE/DX =    0.0001              !
 ! A1    A(2,1,6)              121.2724         -DE/DX =    0.0                 !
 ! A2    A(2,1,7)              122.0098         -DE/DX =    0.0                 !
 ! A3    A(6,1,7)              116.7155         -DE/DX =    0.0                 !
 ! A4    A(1,2,3)              123.1198         -DE/DX =    0.0                 !
 ! A5    A(1,2,8)              120.8677         -DE/DX =    0.0001              !
 ! A6    A(3,2,8)              115.878          -DE/DX =    0.0                 !
 ! A7    A(2,3,4)              123.2144         -DE/DX =    0.0001              !
 ! A8    A(2,3,5)              117.1834         -DE/DX =   -0.0001              !
 ! A9    A(4,3,5)              119.5914         -DE/DX =    0.0001              !
 ! D1    D(6,1,2,3)           -176.7404         -DE/DX =   -0.0007              !
 ! D2    D(6,1,2,8)             -1.1322         -DE/DX =    0.0006              !
 ! D3    D(7,1,2,3)              2.6851         -DE/DX =   -0.0007              !
 ! D4    D(7,1,2,8)            178.2932         -DE/DX =    0.0007              !
 ! D5    D(1,2,3,4)            100.001          -DE/DX =    0.0033              !
 ! D6    D(1,2,3,5)            -78.7897         -DE/DX =    0.0006              !
 ! D7    D(8,2,3,4)            -75.8094         -DE/DX =    0.002               !
 ! D8    D(8,2,3,5)            105.3999         -DE/DX =   -0.0006              !
 --------------------------------------------------------------------------------
 Lowest energy point so far.  Saving SCF results.
 GradGradGradGradGradGradGradGradGradGradGradGradGradGradGradGradGradGrad

 Largest change from initial coordinates is atom    5       0.010 Angstoms.
 Leave Link  103 at Wed May 12 11:58:33 2021, MaxMem=  2147483648 cpu:         0.0
 (Enter /opt/cluster/programs/g09_d.01/g09/l202.exe)
                          Input orientation:                          
 ---------------------------------------------------------------------
 Center     Atomic      Atomic             Coordinates (Angstroms)
 Number     Number       Type             X           Y           Z
 ---------------------------------------------------------------------
      1          6           0        1.667563    0.313111   -0.087699
      2          6           0        0.614677   -0.501945    0.018052
      3          6           0       -0.741470   -0.032557    0.421686
      4          8           0       -1.649070    0.184359   -0.384755
      5          1           0       -0.914869    0.141609    1.495935
      6          1           0        2.628812   -0.050841   -0.434259
      7          1           0        1.605001    1.369755    0.158115
      8          1           0        0.691013   -1.551983   -0.259468
 ---------------------------------------------------------------------
                    Distance matrix (angstroms):
                    1          2          3          4          5
     1  C    0.000000
     2  C    1.335691   0.000000
     3  C    2.486444   1.490765   0.000000
     4  O    3.332398   2.399545   1.233344   0.000000
     5  H    3.034184   2.222119   1.102004   2.019375   0.000000
     6  H    1.084695   2.113012   3.477323   4.284628   4.039847
     7  H    1.086662   2.122174   2.746248   3.505545   3.106099
     8  H    2.112281   1.088771   2.196505   2.916602   2.920368
                    6          7          8
     6  H    0.000000
     7  H    1.848564   0.000000
     8  H    2.457446   3.089709   0.000000
 Stoichiometry    C3H4O
 Framework group  C1[X(C3H4O)]
 Deg. of freedom    18
 Full point group                 C1      NOp   1
 RotChk:  IX=0 Diff= 6.05D-16
 Largest Abelian subgroup         C1      NOp   1
 Largest concise Abelian subgroup C1      NOp   1
                         Standard orientation:                         
 ---------------------------------------------------------------------
 Center     Atomic      Atomic             Coordinates (Angstroms)
 Number     Number       Type             X           Y           Z
 ---------------------------------------------------------------------
      1          6           0       -1.664644   -0.316945   -0.083267
      2          6           0       -0.614087    0.502100    0.014531
      3          6           0        0.743825    0.040189    0.420848
      4          8           0        1.651313   -0.180898   -0.384586
      5          1           0        0.918743   -0.124305    1.496375
      6          1           0       -2.627293    0.041191   -0.431993
      7          1           0       -1.598712   -1.371267    0.171476
      8          1           0       -0.693802    1.549504   -0.271847
 ---------------------------------------------------------------------
 Rotational constants (GHZ):     31.2999563      4.7927850      4.6760010
 Leave Link  202 at Wed May 12 11:58:33 2021, MaxMem=  2147483648 cpu:         0.0
 (Enter /opt/cluster/programs/g09_d.01/g09/l601.exe)
 Copying SCF densities to generalized density rwf, IOpCl= 0 IROHF=0.

 **********************************************************************

            Population analysis using the SCF density.

 **********************************************************************

 Orbital symmetries:
       Occupied  (A) (A) (A) (A) (A) (A) (A) (A) (A) (A) (A) (A)
                 (A) (A) (A)
       Virtual   (A) (A) (A) (A) (A) (A) (A) (A) (A) (A) (A) (A)
                 (A) (A) (A) (A) (A) (A) (A) (A) (A) (A) (A) (A)
                 (A) (A) (A) (A) (A) (A) (A) (A) (A) (A) (A) (A)
                 (A) (A) (A) (A) (A) (A) (A) (A) (A)
 The electronic state is 1-A.
 Alpha  occ. eigenvalues --  -19.29752 -10.41318 -10.33148 -10.32511  -1.18052
 Alpha  occ. eigenvalues --   -0.91077  -0.76155  -0.67119  -0.59765  -0.56613
 Alpha  occ. eigenvalues --   -0.53840  -0.49014  -0.46926  -0.37799  -0.35529
 Alpha virt. eigenvalues --    0.01057   0.05120   0.07578   0.08596   0.09102
 Alpha virt. eigenvalues --    0.11025   0.12471   0.13239   0.14715   0.16678
 Alpha virt. eigenvalues --    0.17109   0.17782   0.19433   0.22506   0.27694
 Alpha virt. eigenvalues --    0.28269   0.29896   0.31018   0.32599   0.33531
 Alpha virt. eigenvalues --    0.36977   0.39916   0.44171   0.45557   0.50569
 Alpha virt. eigenvalues --    0.69241   0.72136   0.75611   0.78751   0.80786
 Alpha virt. eigenvalues --    0.85853   0.89071   0.89840   1.01457   1.05306
 Alpha virt. eigenvalues --    1.09639   1.12206   1.13718   1.23334   1.26941
 Alpha virt. eigenvalues --    1.31555   1.33078   1.38689   1.46894   1.89040
          Condensed to atoms (all electrons):
               1          2          3          4          5          6
     1  C    5.006502   0.585128   0.021133  -0.024212  -0.002621   0.368302
     2  C    0.585128   5.229941   0.242233  -0.105002  -0.088312  -0.018992
     3  C    0.021133   0.242233   5.069920   0.291893   0.363334   0.006608
     4  O   -0.024212  -0.105002   0.291893   8.280679  -0.075301  -0.000361
     5  H   -0.002621  -0.088312   0.363334  -0.075301   0.614524  -0.000130
     6  H    0.368302  -0.018992   0.006608  -0.000361  -0.000130   0.467588
     7  H    0.388661  -0.055319   0.010518   0.000334   0.000298  -0.022733
     8  H    0.001971   0.342689  -0.019434  -0.001131   0.001235  -0.004478
               7          8
     1  C    0.388661   0.001971
     2  C   -0.055319   0.342689
     3  C    0.010518  -0.019434
     4  O    0.000334  -0.001131
     5  H    0.000298   0.001235
     6  H   -0.022733  -0.004478
     7  H    0.472487   0.002542
     8  H    0.002542   0.440654
 Mulliken charges:
               1
     1  C   -0.344863
     2  C   -0.132367
     3  C    0.013795
     4  O   -0.366899
     5  H    0.186975
     6  H    0.204195
     7  H    0.203213
     8  H    0.235952
 Sum of Mulliken charges =   0.00000
 Mulliken charges with hydrogens summed into heavy atoms:
               1
     1  C    0.062545
     2  C    0.103585
     3  C    0.200769
     4  O   -0.366899
 Electronic spatial extent (au):  <R**2>=            292.1004
 Charge=              0.0000 electrons
 Dipole moment (field-independent basis, Debye):
    X=             -2.6452    Y=              0.5447    Z=              1.6060  Tot=              3.1422
 Quadrupole moment (field-independent basis, Debye-Ang):
   XX=            -27.2245   YY=            -21.9508   ZZ=            -25.2075
   XY=              1.2188   XZ=              3.4425   YZ=             -0.9712
 Traceless Quadrupole moment (field-independent basis, Debye-Ang):
   XX=             -2.4303   YY=              2.8435   ZZ=             -0.4132
   XY=              1.2188   XZ=              3.4425   YZ=             -0.9712
 Octapole moment (field-independent basis, Debye-Ang**2):
  XXX=            -11.1720  YYY=              0.3134  ZZZ=              1.3800  XYY=              0.1682
  XXY=              0.9553  XXZ=              0.6232  XZZ=              3.6966  YZZ=             -0.3510
  YYZ=             -0.6928  XYZ=              0.6950
 Hexadecapole moment (field-independent basis, Debye-Ang**3):
 XXXX=           -283.4307 YYYY=            -47.7119 ZZZZ=            -48.5516 XXXY=              3.0200
 XXXZ=             10.5179 YYYX=              0.1728 YYYZ=             -2.0004 ZZZX=              1.6833
 ZZZY=             -0.7681 XXYY=            -53.9356 XXZZ=            -57.4837 YYZZ=            -17.6279
 XXYZ=             -1.9853 YYXZ=             -0.1636 ZZXY=             -0.5045
 N-N= 1.025413440460D+02 E-N=-6.524739075240D+02  KE= 1.906747381238D+02
 No NMR shielding tensors so no spin-rotation constants.
 Leave Link  601 at Wed May 12 11:58:34 2021, MaxMem=  2147483648 cpu:         0.6
 (Enter /opt/cluster/programs/g09_d.01/g09/l9999.exe)
 1\1\GINC-NODE21\FOpt\RwB97XD\6-31+G\C3H4O1\BOITTIER\12-May-2021\0\\#p 
 wB97XD/6-31+G Opt=ModRedun\\L.pdb\\0,1\C,1.6675634292,0.313111264,-0.0
 876989196\C,0.6146772516,-0.5019453153,0.0180521431\C,-0.7414701166,-0
 .0325568187,0.4216861447\O,-1.6490696632,0.1843594344,-0.3847551515\H,
 -0.9148693573,0.1416085796,1.4959354323\H,2.628811613,-0.0508409178,-0
 .4342593642\H,1.6050009247,1.3697553564,0.1581150767\H,0.6910129188,-1
 .5519825825,-0.2594683615\\Version=ES64L-G09RevD.01\State=1-A\HF=-191.
 7825713\RMSD=4.586e-09\RMSF=1.351e-03\Dipole=1.0406771,-0.2120018,0.63
 26773\Quadrupole=-1.8063301,2.1208793,-0.3145492,0.8966893,-2.5635235,
 0.7081288\PG=C01 [X(C3H4O1)]\\@



 IN THIS SHORT LIFE

 THAT ONLY LASTS AN HOUR

 HOW MUCH, HOW LITTLE, IS WITHIN OUR POWER....


 EMILY DICKINSON BOLTS OF MELODY NO. 521
 Job cpu time:       0 days  0 hours  1 minutes  9.7 seconds.
 File lengths (MBytes):  RWF=      5 Int=      0 D2E=      0 Chk=      2 Scr=      1
 Normal termination of Gaussian 09 at Wed May 12 11:58:34 2021.
