L.pdb                                                                   
FOpt      RwB97XD                                                     6-31+G              
Number of atoms                            I                8
Info1-9                                    I   N=           9
          19          19           0           0           0         110
           2          18        -802
Charge                                     I                0
Multiplicity                               I                1
Number of electrons                        I               30
Number of alpha electrons                  I               15
Number of beta electrons                   I               15
Number of basis functions                  I               60
Number of independent functions            I               60
Number of point charges in /Mol/           I                0
Number of translation vectors              I                0
Atomic numbers                             I   N=           8
           6           6           6           8           1           1
           1           1
Nuclear charges                            R   N=           8
  6.00000000E+00  6.00000000E+00  6.00000000E+00  8.00000000E+00  1.00000000E+00
  1.00000000E+00  1.00000000E+00  1.00000000E+00
Current cartesian coordinates              R   N=          24
 -3.14572201E+00 -5.98939499E-01 -1.57351924E-01 -1.16045662E+00  9.48831459E-01
  2.74600044E-02  1.40562578E+00  7.59453450E-02  7.95288074E-01  3.12052915E+00
 -3.41847544E-01 -7.26761534E-01  1.73617268E+00 -2.34902981E-01  2.82773919E+00
 -4.96486395E+00  7.78396465E-02 -8.16348753E-01 -3.02112861E+00 -2.59131900E+00
  3.24041834E-01 -1.31109617E+00  2.92813886E+00 -5.13716927E-01
Force Field                                I                0
Int Atom Types                             I   N=           8
           0           0           0           0           0           0
           0           0
MM charges                                 R   N=           8
  0.00000000E+00  0.00000000E+00  0.00000000E+00  0.00000000E+00  0.00000000E+00
  0.00000000E+00  0.00000000E+00  0.00000000E+00
Integer atomic weights                     I   N=           8
          12          12          12          16           1           1
           1           1
Real atomic weights                        R   N=           8
  1.20000000E+01  1.20000000E+01  1.20000000E+01  1.59949146E+01  1.00782504E+00
  1.00782504E+00  1.00782504E+00  1.00782504E+00
Atom fragment info                         I   N=           8
           0           0           0           0           0           0
           0           0
Atom residue num                           I   N=           8
           0           0           0           0           0           0
           0           0
Nuclear spins                              I   N=           8
           0           0           0           0           1           1
           1           1
Nuclear ZEff                               R   N=           8
 -3.60000000E+00 -3.60000000E+00 -3.60000000E+00 -5.60000000E+00 -1.00000000E+00
 -1.00000000E+00 -1.00000000E+00 -1.00000000E+00
Nuclear ZNuc                               R   N=           8
  6.00000000E+00  6.00000000E+00  6.00000000E+00  8.00000000E+00  1.00000000E+00
  1.00000000E+00  1.00000000E+00  1.00000000E+00
Nuclear QMom                               R   N=           8
  0.00000000E+00  0.00000000E+00  0.00000000E+00  0.00000000E+00  0.00000000E+00
  0.00000000E+00  0.00000000E+00  0.00000000E+00
Nuclear GFac                               R   N=           8
  0.00000000E+00  0.00000000E+00  0.00000000E+00  0.00000000E+00  2.79284600E+00
  2.79284600E+00  2.79284600E+00  2.79284600E+00
MicOpt                                     I   N=           8
          -1          -1          -1          -1          -1          -1
          -1          -1
Number of contracted shells                I               24
Number of primitive shells                 I               60
Pure/Cartesian d shells                    I                1
Pure/Cartesian f shells                    I                0
Highest angular momentum                   I                1
Largest degree of contraction              I                6
Shell types                                I   N=          24
           0          -1          -1          -1           0          -1
          -1          -1           0          -1          -1          -1
           0          -1          -1          -1           0           0
           0           0           0           0           0           0
Number of primitives per shell             I   N=          24
           6           3           1           1           6           3
           1           1           6           3           1           1
           6           3           1           1           3           1
           3           1           3           1           3           1
Shell to atom map                          I   N=          24
           1           1           1           1           2           2
           2           2           3           3           3           3
           4           4           4           4           5           5
           6           6           7           7           8           8
Primitive exponents                        R   N=          60
  3.04752488E+03  4.57369518E+02  1.03948685E+02  2.92101553E+01  9.28666296E+00
  3.16392696E+00  7.86827235E+00  1.88128854E+00  5.44249258E-01  1.68714478E-01
  4.38000000E-02  3.04752488E+03  4.57369518E+02  1.03948685E+02  2.92101553E+01
  9.28666296E+00  3.16392696E+00  7.86827235E+00  1.88128854E+00  5.44249258E-01
  1.68714478E-01  4.38000000E-02  3.04752488E+03  4.57369518E+02  1.03948685E+02
  2.92101553E+01  9.28666296E+00  3.16392696E+00  7.86827235E+00  1.88128854E+00
  5.44249258E-01  1.68714478E-01  4.38000000E-02  5.48467166E+03  8.25234946E+02
  1.88046958E+02  5.29645000E+01  1.68975704E+01  5.79963534E+00  1.55396162E+01
  3.59993359E+00  1.01376175E+00  2.70005823E-01  8.45000000E-02  1.87311370E+01
  2.82539436E+00  6.40121692E-01  1.61277759E-01  1.87311370E+01  2.82539436E+00
  6.40121692E-01  1.61277759E-01  1.87311370E+01  2.82539436E+00  6.40121692E-01
  1.61277759E-01  1.87311370E+01  2.82539436E+00  6.40121692E-01  1.61277759E-01
Contraction coefficients                   R   N=          60
  1.83473713E-03  1.40373228E-02  6.88426223E-02  2.32184443E-01  4.67941348E-01
  3.62311985E-01 -1.19332420E-01 -1.60854152E-01  1.14345644E+00  1.00000000E+00
  1.00000000E+00  1.83473713E-03  1.40373228E-02  6.88426223E-02  2.32184443E-01
  4.67941348E-01  3.62311985E-01 -1.19332420E-01 -1.60854152E-01  1.14345644E+00
  1.00000000E+00  1.00000000E+00  1.83473713E-03  1.40373228E-02  6.88426223E-02
  2.32184443E-01  4.67941348E-01  3.62311985E-01 -1.19332420E-01 -1.60854152E-01
  1.14345644E+00  1.00000000E+00  1.00000000E+00  1.83107443E-03  1.39501722E-02
  6.84450781E-02  2.32714336E-01  4.70192898E-01  3.58520853E-01 -1.10777550E-01
 -1.48026263E-01  1.13076702E+00  1.00000000E+00  1.00000000E+00  3.34946043E-02
  2.34726953E-01  8.13757326E-01  1.00000000E+00  3.34946043E-02  2.34726953E-01
  8.13757326E-01  1.00000000E+00  3.34946043E-02  2.34726953E-01  8.13757326E-01
  1.00000000E+00  3.34946043E-02  2.34726953E-01  8.13757326E-01  1.00000000E+00
P(S=P) Contraction coefficients            R   N=          60
  0.00000000E+00  0.00000000E+00  0.00000000E+00  0.00000000E+00  0.00000000E+00
  0.00000000E+00  6.89990666E-02  3.16423961E-01  7.44308291E-01  1.00000000E+00
  1.00000000E+00  0.00000000E+00  0.00000000E+00  0.00000000E+00  0.00000000E+00
  0.00000000E+00  0.00000000E+00  6.89990666E-02  3.16423961E-01  7.44308291E-01
  1.00000000E+00  1.00000000E+00  0.00000000E+00  0.00000000E+00  0.00000000E+00
  0.00000000E+00  0.00000000E+00  0.00000000E+00  6.89990666E-02  3.16423961E-01
  7.44308291E-01  1.00000000E+00  1.00000000E+00  0.00000000E+00  0.00000000E+00
  0.00000000E+00  0.00000000E+00  0.00000000E+00  0.00000000E+00  7.08742682E-02
  3.39752839E-01  7.27158577E-01  1.00000000E+00  1.00000000E+00  0.00000000E+00
  0.00000000E+00  0.00000000E+00  0.00000000E+00  0.00000000E+00  0.00000000E+00
  0.00000000E+00  0.00000000E+00  0.00000000E+00  0.00000000E+00  0.00000000E+00
  0.00000000E+00  0.00000000E+00  0.00000000E+00  0.00000000E+00  0.00000000E+00
Coordinates of each shell                  R   N=          72
 -3.14572201E+00 -5.98939499E-01 -1.57351924E-01 -3.14572201E+00 -5.98939499E-01
 -1.57351924E-01 -3.14572201E+00 -5.98939499E-01 -1.57351924E-01 -3.14572201E+00
 -5.98939499E-01 -1.57351924E-01 -1.16045662E+00  9.48831459E-01  2.74600044E-02
 -1.16045662E+00  9.48831459E-01  2.74600044E-02 -1.16045662E+00  9.48831459E-01
  2.74600044E-02 -1.16045662E+00  9.48831459E-01  2.74600044E-02  1.40562578E+00
  7.59453450E-02  7.95288074E-01  1.40562578E+00  7.59453450E-02  7.95288074E-01
  1.40562578E+00  7.59453450E-02  7.95288074E-01  1.40562578E+00  7.59453450E-02
  7.95288074E-01  3.12052915E+00 -3.41847544E-01 -7.26761534E-01  3.12052915E+00
 -3.41847544E-01 -7.26761534E-01  3.12052915E+00 -3.41847544E-01 -7.26761534E-01
  3.12052915E+00 -3.41847544E-01 -7.26761534E-01  1.73617268E+00 -2.34902981E-01
  2.82773919E+00  1.73617268E+00 -2.34902981E-01  2.82773919E+00 -4.96486395E+00
  7.78396465E-02 -8.16348753E-01 -4.96486395E+00  7.78396465E-02 -8.16348753E-01
 -3.02112861E+00 -2.59131900E+00  3.24041834E-01 -3.02112861E+00 -2.59131900E+00
  3.24041834E-01 -1.31109617E+00  2.92813886E+00 -5.13716927E-01 -1.31109617E+00
  2.92813886E+00 -5.13716927E-01
Constraint Structure                       R   N=          24
 -3.16100148E+00 -5.93859927E-01 -1.66210736E-01 -1.16202096E+00  9.46794270E-01
  4.25132948E-02  1.40876065E+00  6.57928218E-02  7.99378847E-01  3.13491024E+00
 -3.33778287E-01 -7.33047318E-01  1.73943063E+00 -2.75767590E-01  2.83226496E+00
 -4.97607026E+00  9.44178640E-02 -8.30031842E-01 -3.05536752E+00 -2.59107934E+00
  3.05147433E-01 -1.30170401E+00  2.93029238E+00 -4.97090444E-01
Num ILSW                                   I              100
ILSW                                       I   N=         100
           0           1           0           0           2           0
           0           0           0           0        4639          -1
           0           0           0           0           2           0
           0           0           0           0           1           0
           1           0           0           0           0           0
           0           0      100000           0          -1           0
           0           0           0           0           0           0
           0           0           0           1           0           0
           0           0           1           0           0           0
           0           0         121          41           0           0
           0           0          58           0           0           0
           0           0           0           8           0           0
           0           0           0           0           0           0
           0           0           0           0           0           0
           0           0           0           0           0           0
           0           0           0           0           0           0
           0           0           0           0
Num RLSW                                   I               41
RLSW                                       R   N=          41
  1.00000000E+00  1.00000000E+00  1.00000000E+00  1.00000000E+00  1.00000000E+00
  0.00000000E+00  2.00000000E-01  2.22036000E-01  0.00000000E+00  7.77964000E-01
  0.00000000E+00  2.00000000E-01  0.00000000E+00  0.00000000E+00  1.00000000E+00
  0.00000000E+00  0.00000000E+00  1.00000000E+00  0.00000000E+00  0.00000000E+00
  0.00000000E+00  0.00000000E+00  1.00000000E+00  0.00000000E+00  0.00000000E+00
  0.00000000E+00  0.00000000E+00  1.00000000E+00  0.00000000E+00  0.00000000E+00
  0.00000000E+00  0.00000000E+00  1.00000000E+00  0.00000000E+00  0.00000000E+00
  0.00000000E+00  0.00000000E+00  0.00000000E+00  1.00000000E+00  1.00000000E+00
  0.00000000E+00
MxBond                                     I                3
NBond                                      I   N=           8
           3           3           3           1           1           1
           1           1
IBond                                      I   N=          24
           2           6           7           1           3           8
           2           4           5           3           0           0
           3           0           0           1           0           0
           1           0           0           2           0           0
RBond                                      R   N=          24
  2.00000000E+00  1.00000000E+00  1.00000000E+00  2.00000000E+00  1.00000000E+00
  1.00000000E+00  1.00000000E+00  2.00000000E+00  1.00000000E+00  2.00000000E+00
  0.00000000E+00  0.00000000E+00  1.00000000E+00  0.00000000E+00  0.00000000E+00
  1.00000000E+00  0.00000000E+00  0.00000000E+00  1.00000000E+00  0.00000000E+00
  0.00000000E+00  1.00000000E+00  0.00000000E+00  0.00000000E+00
Virial Ratio                               R      2.005810067802111E+00
SCF Energy                                 R     -1.917825712804272E+02
Total Energy                               R     -1.917825712804272E+02
RMS Force                                  R      1.351080707880002E-03
RMS Density                                R      4.585984897831266E-09
External E-field                           R   N=          35
  0.00000000E+00  0.00000000E+00  0.00000000E+00  0.00000000E+00  0.00000000E+00
  0.00000000E+00  0.00000000E+00  0.00000000E+00  0.00000000E+00  0.00000000E+00
  0.00000000E+00  0.00000000E+00  0.00000000E+00  0.00000000E+00  0.00000000E+00
  0.00000000E+00  0.00000000E+00  0.00000000E+00  0.00000000E+00  0.00000000E+00
  0.00000000E+00  0.00000000E+00  0.00000000E+00  0.00000000E+00  0.00000000E+00
  0.00000000E+00  0.00000000E+00  0.00000000E+00  0.00000000E+00  0.00000000E+00
  0.00000000E+00  0.00000000E+00  0.00000000E+00  0.00000000E+00  0.00000000E+00
IOpCl                                      I                0
IROHF                                      I                0
Alpha Orbital Energies                     R   N=          60
 -1.92975210E+01 -1.04131843E+01 -1.03314819E+01 -1.03251144E+01 -1.18051710E+00
 -9.10767433E-01 -7.61549569E-01 -6.71185322E-01 -5.97651122E-01 -5.66130703E-01
 -5.38402433E-01 -4.90143665E-01 -4.69263878E-01 -3.77990707E-01 -3.55287594E-01
  1.05696243E-02  5.12000279E-02  7.57799833E-02  8.59626654E-02  9.10207287E-02
  1.10246794E-01  1.24711750E-01  1.32389713E-01  1.47153316E-01  1.66783810E-01
  1.71087155E-01  1.77817633E-01  1.94331576E-01  2.25062669E-01  2.76944638E-01
  2.82689101E-01  2.98955406E-01  3.10178405E-01  3.25987680E-01  3.35312462E-01
  3.69767031E-01  3.99164383E-01  4.41710775E-01  4.55574711E-01  5.05686769E-01
  6.92407788E-01  7.21363114E-01  7.56110457E-01  7.87510597E-01  8.07862701E-01
  8.58529193E-01  8.90712046E-01  8.98400034E-01  1.01456627E+00  1.05305885E+00
  1.09639343E+00  1.12205697E+00  1.13718265E+00  1.23334435E+00  1.26941242E+00
  1.31554758E+00  1.33078063E+00  1.38689315E+00  1.46893504E+00  1.89039662E+00
Alpha MO coefficients                      R   N=        3600
  2.94505081E-05  3.45522378E-04  8.66020784E-05 -8.67421740E-05 -3.56614969E-05
 -1.87143054E-03 -8.88845757E-04 -1.84651083E-05 -3.79933131E-04  1.07606928E-02
  2.09192618E-03  1.53172509E-03  1.46912268E-04  1.24652772E-06 -2.86353188E-04
 -1.83122917E-04  1.19168019E-04 -7.05731863E-05  6.68184192E-04 -1.25925573E-03
 -8.36193172E-04  1.24079638E-03  1.36517772E-04  5.69225046E-03  1.35706156E-03
  7.63018254E-06  2.09911832E-04  8.06598223E-05  1.32269861E-04 -3.08823502E-05
  7.74399170E-05  6.17278861E-03  3.13319169E-03 -4.69261283E-04 -4.26238108E-03
 -1.57120658E-02  6.70187960E-04 -9.09118918E-04  3.73389695E-03  9.95213672E-01
  2.93145495E-02 -1.60565618E-03  4.10190728E-04  1.34634169E-03 -2.05591964E-02
  3.40980161E-03 -9.06176277E-04 -2.56126267E-03  9.82070651E-03 -7.03776773E-04
  2.08507176E-04  1.00718977E-04 -1.75453855E-04  7.76582948E-04  3.59102998E-06
 -3.44729312E-04  1.51180835E-04  2.12850868E-04  1.91065320E-04  8.80545237E-05
 -1.31316163E-04 -5.20271217E-04 -1.96204373E-04  1.49028156E-05 -4.37298659E-05
  1.91087373E-03  1.48419466E-03  4.40215235E-04  3.20117006E-04 -1.36034913E-02
 -2.28451746E-03 -2.36309699E-03 -4.40430641E-04  1.50521924E-03 -2.96832756E-04
 -4.73565803E-04  1.24081945E-04 -2.13414046E-04  3.02657007E-03  3.61893633E-03
 -3.58308469E-05  8.10918621E-04 -2.72090130E-03 -7.91570980E-03 -1.08517033E-03
 -2.55770746E-04  9.95433656E-01  3.60885138E-02  9.72985724E-04 -2.27691489E-04
 -1.04390960E-03 -3.14486976E-02 -4.93851743E-04 -1.58902409E-04  2.65866237E-03
  1.36833443E-02 -4.89713891E-03  2.27851061E-03 -2.66654002E-03 -1.33876844E-04
 -1.23065874E-04  5.01654167E-04 -1.22276412E-04 -3.41632840E-04  1.48547663E-03
 -5.34720539E-04  1.68495036E-04 -2.56063402E-04  1.07590986E-02 -3.89466769E-03
  9.23664459E-04  4.28464151E-03 -5.44761394E-04  3.02896511E-03 -2.51100028E-05
  1.10907642E-03 -2.54544528E-04  2.30407842E-04 -2.17581998E-04  1.72891571E-04
  6.72404103E-02  9.76309062E-04 -7.64951010E-04 -6.03393220E-04 -7.16868635E-05
  7.82058249E-03  4.64169738E-03  1.72889226E-03  8.39460446E-04 -3.77979618E-02
 -7.84057461E-03 -4.49741674E-03 -1.16057531E-03  9.93100415E-01  3.61198622E-02
  9.71031413E-05 -4.16271964E-04  5.42910070E-05 -3.40514143E-02 -8.01090895E-04
  4.21488305E-03 -9.94331678E-04  6.86758636E-02 -9.54229023E-05 -1.28228614E-02
  2.83706705E-03 -1.41118613E-03 -5.18482580E-04  4.78832811E-04 -2.39516419E-04
  1.82847384E-04  4.73197501E-03 -5.33155585E-03  1.26185783E-03 -4.62061857E-04
 -2.98568884E-02  7.64555556E-03 -9.03546412E-04  1.61548625E-03 -1.08986176E-05
 -3.16350013E-04  1.57781144E-04 -3.21289872E-05 -4.39806891E-05  8.42766058E-04
 -4.85687843E-04  1.26724486E-04  5.91156249E-04  2.94782374E-03 -8.63349441E-04
  3.34191400E-04  1.19786168E-03 -1.98625831E-04  2.09146753E-04 -1.70543832E-04
  1.26354675E-03 -3.96023665E-04 -2.84310951E-04 -6.95575577E-04  3.04901304E-03
  9.93045906E-01  3.52900027E-02  4.85160171E-04  3.11489245E-04  4.73533726E-05
 -3.13908415E-02 -3.50344593E-03 -2.62032575E-03 -3.64366859E-04  3.04766645E-02
  6.69169784E-03  6.54970642E-03  4.86114587E-04 -6.75092035E-02 -3.74855453E-03
  9.21437818E-04  8.21477015E-04  6.68587539E-05  1.09720890E-02 -5.20224652E-03
 -3.89988481E-03 -2.66437986E-04  7.32464246E-04  1.48126161E-02 -2.87143627E-04
  3.40211602E-03  1.30861412E-04 -4.47399504E-04  1.86655844E-04 -5.10510018E-06
 -3.02535985E-05  1.84970762E-03  1.40754861E-04  4.14138080E-04 -9.57296330E-04
 -3.03938031E-02  7.45068944E-03 -1.77545681E-03  2.16482672E-03  1.45906180E-05
  2.76887997E-04 -1.06250848E-04  7.18260941E-07  2.06374713E-05 -1.20078509E-03
  7.69960222E-04 -8.83665391E-05 -2.89390766E-04  5.93097082E-04 -2.12409809E-04
 -1.76864029E-04  3.40726867E-04 -9.26671797E-05  5.44682280E-04 -6.99194216E-04
  4.08965698E-03 -6.36689163E-04  3.88672859E-03 -4.85191956E-05  1.17101036E-04
 -4.24334086E-03  7.63682437E-03  5.80796250E-03  2.00878618E-03  7.05761056E-04
  8.10693550E-03 -2.70184482E-03  2.58463373E-03  2.25363270E-04  3.51070389E-02
  8.20431281E-03  3.41120817E-03  1.10708069E-03 -1.85356309E-02  3.57707326E-02
  2.53018229E-02 -9.31963278E-03  1.19080948E-03  1.06938890E-02  5.00103871E-03
  1.84102720E-04 -1.15756058E-02 -6.71331920E-02 -8.54288528E-03  1.30767842E-02
  1.14208855E-03 -1.16076030E-01  2.37565375E-01  1.34567147E-01 -3.18502062E-02
 -1.26259962E-01  4.70806481E-02 -3.89350329E-02  7.69159424E-03  4.30201264E-02
  4.40504632E-02  8.45529731E-03 -1.94165350E-03 -1.08479664E-02 -1.92598562E-01
  4.26454702E-01 -1.34781561E-01  3.33002855E-02  1.17998329E-01  4.14293047E-01
 -5.22843089E-02  1.38013121E-02  4.52801790E-02 -5.48149100E-03 -8.07344276E-03
  1.64359666E-03  3.41776579E-03  2.84751317E-02 -1.62620256E-02  7.05801512E-04
 -4.30223768E-03  1.94691167E-03  4.81916786E-04  5.01930882E-03  9.59044436E-04
 -1.39332124E-01  2.69050060E-01  8.81427782E-02  6.15741707E-02  1.01672869E-02
  2.01533755E-01  9.23368566E-03 -1.60441810E-03  3.26000627E-03 -7.43274084E-03
  3.82297112E-03 -6.48038753E-03  3.19046910E-03 -1.63927199E-01  3.19443810E-01
 -4.47902871E-02 -6.87896444E-02  4.81598955E-03  2.24186227E-01 -1.10410960E-03
  6.26031191E-03  1.62957451E-03 -9.77356414E-02 -4.03245397E-02  1.58567832E-02
 -1.67112704E-02 -5.33261741E-02  1.03990207E-01 -1.30018248E-01  3.06899706E-02
  1.52003373E-02  1.13365467E-01 -1.82182072E-02 -1.31988922E-03 -7.00063599E-03
  1.12718947E-01 -2.68817651E-02  9.06216083E-03 -3.19735889E-03  4.08770581E-02
 -9.31028485E-02 -5.24743084E-03  4.10340534E-04 -1.76368793E-02 -1.08602822E-01
  5.00526463E-03 -6.88872084E-04 -7.71156636E-03 -2.04084988E-02  7.46862683E-03
 -1.51689739E-03 -6.88570683E-03  3.07587229E-02  4.64890619E-03  6.77996501E-02
  1.20462741E-02  7.00065466E-02  7.58381473E-03  8.27729169E-02  8.68178196E-03
  1.29078141E-01 -2.55568596E-01  4.37903471E-02  6.42817247E-04  1.50368064E-02
 -2.34504085E-01  1.98472040E-02  6.29788672E-03  4.06852936E-03  1.62368836E-01
  3.03518553E-02  2.77696107E-02  2.14791083E-03 -4.55461488E-02  9.22207493E-02
  2.14983491E-01  4.81206780E-02  5.81118770E-02  9.12124644E-02  4.58121977E-02
  1.33940368E-02  1.41955270E-02 -6.89675898E-02  7.49941100E-02  2.29738460E-02
  8.71145868E-03 -1.21916950E-01  2.57207428E-01 -1.38894843E-01  5.72853155E-02
  8.42027428E-02  2.68446916E-01 -1.88909306E-02  1.22558455E-02  2.08021930E-02
 -9.58841283E-02  1.74968199E-02 -1.17519482E-02  1.75787467E-02  6.67703658E-02
 -1.54669913E-01 -4.15888172E-02  1.90802393E-02  2.64098801E-02 -2.01379478E-01
 -1.06396615E-02  6.29484860E-03  3.80834159E-03 -2.72712522E-02  8.45868338E-03
 -2.70227478E-03 -1.05269708E-02  1.19062206E-01  4.11385892E-02 -1.18844387E-01
 -4.03096216E-02 -9.95629598E-02 -3.18316169E-02  4.30848358E-02  1.28790121E-02
 -6.28957931E-02  1.26281019E-01 -7.81645305E-02 -1.41239638E-01  2.24283007E-02
  1.28969324E-01 -2.79054885E-02 -4.18579609E-02  8.08570639E-03 -4.32014115E-02
 -1.50232430E-02 -8.15139780E-03 -3.10952849E-03  9.28791612E-02 -1.89671845E-01
  1.48725236E-02 -1.42596151E-01  7.28739128E-02 -1.89402491E-01 -1.78281108E-03
 -6.80776874E-02  2.25750216E-02  7.85045353E-02  4.63301751E-03 -1.46069843E-02
  4.95206322E-03 -8.21641926E-02  1.77194529E-01  7.40459858E-02 -8.31571493E-02
  2.13842403E-01  2.00900685E-01  2.42134565E-02 -2.88346863E-02  8.80378760E-02
 -2.90100462E-02  9.58696159E-03 -8.72446596E-03  1.24938717E-02  4.29744745E-02
 -1.00182195E-01 -2.66749899E-03 -3.29900518E-02  1.28805012E-01 -1.36703396E-01
  1.99147758E-03 -1.70816035E-02  5.17928279E-02 -1.92984431E-02  3.08961371E-04
  2.34699722E-03 -5.30801728E-03  1.83161204E-01  7.28270153E-02  6.70060157E-02
  2.84984422E-02  1.25137149E-01  6.21635778E-02 -1.61662579E-01 -6.30944665E-02
  2.65567550E-03 -4.19505134E-03 -1.25937313E-01  2.06508557E-01 -5.98675802E-02
 -2.64515452E-03 -5.63886405E-02  9.03090429E-02 -2.63102655E-02  7.11673404E-02
  1.50542444E-02  1.47298788E-02 -8.61153677E-04 -1.04506571E-02  1.56867007E-02
 -1.76805751E-01  2.29112875E-01 -4.70644870E-02  5.53979170E-02 -3.74170179E-02
  8.38807394E-02 -9.66750585E-03 -5.35084348E-02  4.51702779E-03  1.93068012E-02
  1.81167459E-03 -1.20281179E-03  5.58305661E-04  2.12617572E-01 -8.03928006E-03
  2.37862354E-01  3.52917627E-03  8.84299154E-02 -2.46810916E-03  1.08823744E-01
 -1.26591103E-02  1.70698829E-02 -2.32412331E-03  1.41465383E-02  1.48420334E-03
 -3.49558849E-03  1.27170672E-01  5.89200682E-03  1.47922272E-01 -3.41135037E-03
  6.34808329E-02  5.94544794E-03  7.33986315E-02  6.78627229E-03 -4.59956510E-03
  6.45996658E-05 -4.25906225E-03  1.37099696E-01  6.70006663E-02  1.03504509E-01
  4.96958269E-02 -1.21523344E-01 -6.12785124E-02  1.44804305E-01  8.32795251E-02
  1.42428607E-02 -2.57075803E-02  3.21152451E-01  1.37276067E-01  7.62624260E-02
 -8.59061732E-02  1.02243278E-01  3.56894058E-02  2.93714150E-02 -3.10193108E-02
  1.54143195E-02  4.32651937E-03  2.90961221E-04 -3.36923680E-02  6.89516570E-02
 -2.16039709E-01 -2.06866201E-01  3.42494662E-02  7.84900238E-02 -5.53947002E-02
 -8.13743249E-02  2.03164458E-02  4.50237133E-02 -1.77679064E-02 -1.64828401E-02
  6.19942531E-03  3.35318858E-02 -8.60417237E-02 -2.08055110E-02 -1.39524119E-01
  1.82043689E-01 -9.78935088E-02  5.93836017E-03 -7.09374704E-02  8.28755590E-02
 -2.50887597E-02  1.37828627E-02 -5.29055649E-03  6.13857693E-03 -4.37824553E-02
  9.75930052E-02  1.85094848E-01 -1.63790624E-01 -4.08471953E-02  1.75875181E-01
  7.45407386E-02 -8.38709761E-02 -3.09405383E-03  4.41558465E-02  2.08247252E-03
  9.70556540E-04 -3.30389113E-03  6.49961222E-02  2.91395951E-02 -1.72311191E-01
 -1.05471424E-01 -7.33676282E-02 -4.65240794E-02 -7.48462966E-02 -4.61277632E-02
  2.30917254E-03 -7.73498720E-03 -1.11994875E-01 -1.63645653E-01  4.12890111E-02
  2.42881980E-02 -2.87473714E-02 -5.86806368E-02  2.40298438E-02  1.94661733E-03
 -8.21566407E-03 -8.65045888E-03  1.39671762E-03  1.01236962E-03 -5.27280523E-03
  1.50134422E-01  1.13868562E-01  8.56085248E-02  1.64860385E-02  5.25488160E-02
  4.64231946E-02  3.49241616E-02  1.10848505E-02  9.45899684E-03  5.90377434E-03
  5.16608892E-03  2.77471168E-02 -8.98776907E-02 -2.09827630E-01  1.44528764E-01
  2.21321354E-01 -7.49862311E-02 -5.47176352E-02  5.69530943E-02  8.04268375E-02
 -7.89111385E-03 -5.10481737E-03  2.76199894E-03  4.35930676E-03 -7.79976482E-02
  1.70200152E-01  3.57772433E-01  2.36652494E-03 -2.78033585E-01  3.23418103E-01
  1.45457650E-01  1.62974275E-02 -1.08092835E-01  9.55961245E-02  1.05208136E-02
 -5.52080610E-04 -1.06778374E-02  6.00857688E-02  3.84892424E-02  1.83228204E-02
  1.66348526E-02  9.82414448E-02  6.36400686E-02  4.80409481E-02  2.96375110E-02
 -2.97623780E-03  6.39387235E-03  2.04718655E-01 -2.35905873E-01  1.22875904E-01
  2.21095422E-02  1.05252686E-01 -1.11487599E-01  6.22626371E-02  8.44959576E-02
  3.52125117E-02 -8.21429796E-03  1.46063091E-02 -1.49272734E-02  2.71148257E-02
 -8.35819750E-02  1.20117293E-01 -3.16496824E-02  6.14634103E-02 -1.13051183E-02
  6.51906901E-02 -8.46883011E-03 -1.16573401E-01 -1.08712587E-02  3.00849655E-02
 -1.20628927E-02  2.17104116E-02 -4.08449144E-02  2.37922578E-01  1.11508804E-01
  3.02913683E-03 -7.45645011E-02  1.10374172E-01  5.63986979E-02  2.72078301E-02
  3.23671753E-02  6.83828774E-03  1.61550162E-02  6.78237295E-03  1.56850191E-02
 -3.24810489E-02  5.46128220E-02  2.04105739E-01  2.21369358E-01 -7.17032980E-02
  4.89298359E-02  1.22799198E-01  1.14051224E-01 -1.91526866E-02 -3.96126631E-03
  5.62788778E-03  7.78472147E-03 -1.96707668E-02 -2.61420433E-02 -2.04752142E-01
 -1.41486209E-01  1.90789388E-01  1.34808031E-01  1.14433966E-01  8.38217217E-02
 -1.77569579E-02  4.43744296E-02  4.76521878E-02  1.84634540E-01 -6.77222625E-03
  5.90408131E-03 -1.44582155E-02  8.52544145E-02 -7.55613388E-03 -1.52348411E-03
  8.37848094E-04  1.79499015E-02  5.88114873E-03  6.56865802E-03 -9.29954459E-03
 -4.69818933E-02 -2.12487266E-01  6.78593323E-02 -4.44294869E-02 -2.18767346E-02
 -1.28919182E-01  3.75706171E-02  4.55747409E-03  2.73302652E-03 -3.64184840E-02
 -2.71250143E-03 -1.15472266E-02  2.65521580E-02  2.01163920E-02  2.82412485E-01
  1.47979282E-03  2.27443419E-02  1.60344075E-02  1.71123313E-01 -3.10389122E-03
 -2.14602216E-02  9.96969540E-03  3.40714894E-02  2.54368385E-03 -1.68227501E-03
  3.13910777E-03  9.24014354E-02  4.26301622E-01 -3.43059670E-02  1.26805059E-02
  5.57419357E-02  2.65452958E-01 -1.44978264E-02  6.82493965E-03  3.89087880E-03
  1.33840058E-02 -1.39572179E-03 -6.41668198E-03  2.79001413E-03  4.10909201E-02
  1.89779649E-02 -1.11980227E-01 -8.40455059E-02 -1.72702922E-01 -1.10033247E-01
  1.62370688E-03 -4.75645949E-03 -1.17130293E-01  8.44824552E-02  3.69814964E-01
  5.95502693E-03 -7.33730743E-02  5.62284297E-02  2.38518845E-01  2.77465318E-02
 -7.54361289E-03  1.38330582E-02  3.16991563E-02 -5.22777703E-03  1.05185320E-02
 -6.73317566E-02  7.83143117E-02  3.85739362E-01  1.22836705E-02 -4.78208485E-02
  5.92796209E-02  2.49242938E-01  6.41450729E-02  1.74975208E-02  7.95637160E-03
  5.83996912E-02  4.32372656E-03  1.68078886E-03 -8.49647774E-03 -4.46390009E-03
 -8.24651171E-02 -6.51888943E-02 -4.65247466E-02  3.14802847E-03 -9.82229365E-03
 -1.06771978E-01  2.09694525E-02 -1.79061953E-02 -1.16884478E-02 -3.22770664E-03
  1.00223788E-02 -9.63740323E-02 -4.74672348E-02  6.06278898E-02  3.88481663E-02
 -6.00952005E-02 -3.49413706E-02  4.96401034E-02  2.59924107E-02 -1.59602523E-02
  3.09075734E-03  8.05743647E-03 -8.48727838E-02 -8.29766589E-02  1.00727286E-02
  5.37602377E-03 -6.28214770E-03 -1.01299931E-02 -1.05095790E-02 -1.51916229E-02
  6.10168301E-03 -1.56950844E-02 -5.44536327E-02 -1.46808272E-03 -6.11984744E-02
 -7.06470930E-03 -4.16167925E-02  3.14437786E-02 -5.56858586E-02  6.16287413E-02
  1.88402468E-03  1.78840326E-02 -1.46305042E-02 -3.39217357E-02  6.98966586E-02
  2.11193655E-01 -9.29402798E-02  3.32165763E-02  2.29644637E-01  1.85164084E-01
 -1.04954008E-01  5.65848735E-02 -9.92864958E-02  4.36398369E-03  3.99348317E-03
  1.36814063E-02 -1.28937840E-03  1.93096584E-02 -1.03102571E-01  4.52621530E-02
 -1.13412139E-01 -6.38796122E-02  7.42363638E-02 -1.76721444E-02  1.22509095E-02
  1.33503917E-02  1.71687662E-02 -2.40007654E-03 -8.42867901E-03 -5.23278298E-04
  2.02189416E-03  3.58201203E-01 -1.46588159E-01  4.37518605E-01 -5.69499725E-03
  2.43524376E-01 -1.00149867E-01  2.93034414E-01 -1.60772687E-02  3.41812393E-02