 Entering Gaussian System, Link 0=/opt/cluster/programs/g09_d.01/g09//g09
 Input=/home/unibas/boittier/RDKit_G2/L.pdb/SCAN_1_2_3_4_S_17_20.0/10_SCAN_1_2_3_4_F/10_SCAN_L.pdb.com
 Output=/scratch/boittier/10_SCAN_L.pdb/10_SCAN_L.pdb.out
 Initial command:
 /opt/cluster/programs/g09_d.01/g09/l1.exe "/scratch/boittier/10_SCAN_L.pdb/Gau-156362.inp" -scrdir="/scratch/boittier/10_SCAN_L.pdb/"
 Entering Link 1 = /opt/cluster/programs/g09_d.01/g09/l1.exe PID=    156363.
  
 Copyright (c) 1988,1990,1992,1993,1995,1998,2003,2009,2013,
            Gaussian, Inc.  All Rights Reserved.
  
 This is part of the Gaussian(R) 09 program.  It is based on
 the Gaussian(R) 03 system (copyright 2003, Gaussian, Inc.),
 the Gaussian(R) 98 system (copyright 1998, Gaussian, Inc.),
 the Gaussian(R) 94 system (copyright 1995, Gaussian, Inc.),
 the Gaussian 92(TM) system (copyright 1992, Gaussian, Inc.),
 the Gaussian 90(TM) system (copyright 1990, Gaussian, Inc.),
 the Gaussian 88(TM) system (copyright 1988, Gaussian, Inc.),
 the Gaussian 86(TM) system (copyright 1986, Carnegie Mellon
 University), and the Gaussian 82(TM) system (copyright 1983,
 Carnegie Mellon University). Gaussian is a federally registered
 trademark of Gaussian, Inc.
  
 This software contains proprietary and confidential information,
 including trade secrets, belonging to Gaussian, Inc.
  
 This software is provided under written license and may be
 used, copied, transmitted, or stored only in accord with that
 written license.
  
 The following legend is applicable only to US Government
 contracts under FAR:
  
                    RESTRICTED RIGHTS LEGEND
  
 Use, reproduction and disclosure by the US Government is
 subject to restrictions as set forth in subparagraphs (a)
 and (c) of the Commercial Computer Software - Restricted
 Rights clause in FAR 52.227-19.
  
 Gaussian, Inc.
 340 Quinnipiac St., Bldg. 40, Wallingford CT 06492
  
  
 ---------------------------------------------------------------
 Warning -- This program may not be used in any manner that
 competes with the business of Gaussian, Inc. or will provide
 assistance to any competitor of Gaussian, Inc.  The licensee
 of this program is prohibited from giving any competitor of
 Gaussian, Inc. access to this program.  By using this program,
 the user acknowledges that Gaussian, Inc. is engaged in the
 business of creating and licensing software in the field of
 computational chemistry and represents and warrants to the
 licensee that it is not a competitor of Gaussian, Inc. and that
 it will not use this program in any manner prohibited above.
 ---------------------------------------------------------------
  

 Cite this work as:
 Gaussian 09, Revision D.01,
 M. J. Frisch, G. W. Trucks, H. B. Schlegel, G. E. Scuseria, 
 M. A. Robb, J. R. Cheeseman, G. Scalmani, V. Barone, B. Mennucci, 
 G. A. Petersson, H. Nakatsuji, M. Caricato, X. Li, H. P. Hratchian, 
 A. F. Izmaylov, J. Bloino, G. Zheng, J. L. Sonnenberg, M. Hada, 
 M. Ehara, K. Toyota, R. Fukuda, J. Hasegawa, M. Ishida, T. Nakajima, 
 Y. Honda, O. Kitao, H. Nakai, T. Vreven, J. A. Montgomery, Jr., 
 J. E. Peralta, F. Ogliaro, M. Bearpark, J. J. Heyd, E. Brothers, 
 K. N. Kudin, V. N. Staroverov, T. Keith, R. Kobayashi, J. Normand, 
 K. Raghavachari, A. Rendell, J. C. Burant, S. S. Iyengar, J. Tomasi, 
 M. Cossi, N. Rega, J. M. Millam, M. Klene, J. E. Knox, J. B. Cross, 
 V. Bakken, C. Adamo, J. Jaramillo, R. Gomperts, R. E. Stratmann, 
 O. Yazyev, A. J. Austin, R. Cammi, C. Pomelli, J. W. Ochterski, 
 R. L. Martin, K. Morokuma, V. G. Zakrzewski, G. A. Voth, 
 P. Salvador, J. J. Dannenberg, S. Dapprich, A. D. Daniels, 
 O. Farkas, J. B. Foresman, J. V. Ortiz, J. Cioslowski, 
 and D. J. Fox, Gaussian, Inc., Wallingford CT, 2013.
 
 ******************************************
 Gaussian 09:  ES64L-G09RevD.01 24-Apr-2013
                12-May-2021 
 ******************************************
 %chk=/home/unibas/boittier/RDKit_G2/L.pdb/SCAN_1_2_3_4_S_17_20.0/10_SCAN_1_2_3_4
 _F/L.pdb.chk
 %nproc=8
 Will use up to    8 processors via shared memory.
 %mem=16GB
 -----------------------------
 #p wB97XD/6-31+G Opt=ModRedun
 -----------------------------
 1/14=-1,18=120,19=15,26=3,38=1/1,3;
 2/9=110,12=2,17=6,18=5,40=1/2;
 3/5=1,6=6,7=10,11=2,16=1,25=1,30=1,71=1,74=-58/1,2,3;
 4//1;
 5/5=2,38=5/2;
 6/7=2,8=2,9=2,10=2,28=1/1;
 7//1,2,3,16;
 1/14=-1,18=20,19=15,26=3/3(2);
 2/9=110/2;
 99//99;
 2/9=110/2;
 3/5=1,6=6,7=10,11=2,16=1,25=1,30=1,71=1,74=-58/1,2,3;
 4/5=5,16=3,69=1/1;
 5/5=2,38=5/2;
 7//1,2,3,16;
 1/14=-1,18=20,19=15,26=3/3(-5);
 2/9=110/2;
 6/7=2,8=2,9=2,10=2,19=2,28=1/1;
 99/9=1/99;
 Leave Link    1 at Wed May 12 11:58:23 2021, MaxMem=  2147483648 cpu:         0.2
 (Enter /opt/cluster/programs/g09_d.01/g09/l101.exe)
 -----
 L.pdb
 -----
 Symbolic Z-matrix:
 Charge =  0 Multiplicity = 1
 C                     1.49254   0.46631   0.03668 
 C                     0.66438  -0.58923  -0.06604 
 C                    -0.80053  -0.46883   0.07078 
 O                    -1.43986   0.59114  -0.06387 
 H                    -1.34209  -1.40422   0.29058 
 H                     2.57011   0.35664  -0.03314 
 H                     1.0992    1.46717   0.19344 
 H                     1.05339  -1.59827  -0.1884 
 
 The following ModRedundant input section has been read:
 D       1       2       3       4 F                                           
 
 NAtoms=      8 NQM=        8 NQMF=       0 NMMI=      0 NMMIF=      0
                NMic=       0 NMicF=      0.
                    Isotopes and Nuclear Properties:
 (Nuclear quadrupole moments (NQMom) in fm**2, nuclear magnetic moments (NMagM)
  in nuclear magnetons)

  Atom         1           2           3           4           5           6           7           8
 IAtWgt=          12          12          12          16           1           1           1           1
 AtmWgt=  12.0000000  12.0000000  12.0000000  15.9949146   1.0078250   1.0078250   1.0078250   1.0078250
 NucSpn=           0           0           0           0           1           1           1           1
 AtZEff=   0.0000000   0.0000000   0.0000000   0.0000000   0.0000000   0.0000000   0.0000000   0.0000000
 NQMom=    0.0000000   0.0000000   0.0000000   0.0000000   0.0000000   0.0000000   0.0000000   0.0000000
 NMagM=    0.0000000   0.0000000   0.0000000   0.0000000   2.7928460   2.7928460   2.7928460   2.7928460
 AtZNuc=   6.0000000   6.0000000   6.0000000   8.0000000   1.0000000   1.0000000   1.0000000   1.0000000
 Leave Link  101 at Wed May 12 11:58:24 2021, MaxMem=  2147483648 cpu:         4.2
 (Enter /opt/cluster/programs/g09_d.01/g09/l103.exe)

 GradGradGradGradGradGradGradGradGradGradGradGradGradGradGradGradGradGrad
 Berny optimization.
 Initialization pass.
                           ----------------------------
                           !    Initial Parameters    !
                           ! (Angstroms and Degrees)  !
 --------------------------                            --------------------------
 ! Name  Definition              Value          Derivative Info.                !
 --------------------------------------------------------------------------------
 ! R1    R(1,2)                  1.3456         estimate D2E/DX2                !
 ! R2    R(1,6)                  1.0854         estimate D2E/DX2                !
 ! R3    R(1,7)                  1.0867         estimate D2E/DX2                !
 ! R4    R(2,3)                  1.4762         estimate D2E/DX2                !
 ! R5    R(2,8)                  1.0883         estimate D2E/DX2                !
 ! R6    R(3,4)                  1.2452         estimate D2E/DX2                !
 ! R7    R(3,5)                  1.103          estimate D2E/DX2                !
 ! A1    A(2,1,6)              121.7937         estimate D2E/DX2                !
 ! A2    A(2,1,7)              120.711          estimate D2E/DX2                !
 ! A3    A(6,1,7)              117.4952         estimate D2E/DX2                !
 ! A4    A(1,2,3)              122.6635         estimate D2E/DX2                !
 ! A5    A(1,2,8)              121.057          estimate D2E/DX2                !
 ! A6    A(3,2,8)              116.1514         estimate D2E/DX2                !
 ! A7    A(2,3,4)              124.6761         estimate D2E/DX2                !
 ! A8    A(2,3,5)              115.8836         estimate D2E/DX2                !
 ! A9    A(4,3,5)              119.431          estimate D2E/DX2                !
 ! D1    D(6,1,2,3)            177.9082         estimate D2E/DX2                !
 ! D2    D(6,1,2,8)              2.1813         estimate D2E/DX2                !
 ! D3    D(7,1,2,3)             -2.1251         estimate D2E/DX2                !
 ! D4    D(7,1,2,8)           -177.852          estimate D2E/DX2                !
 ! D5    D(1,2,3,4)             20.0011         Frozen                          !
 ! D6    D(1,2,3,5)           -161.1177         estimate D2E/DX2                !
 ! D7    D(8,2,3,4)           -164.0766         estimate D2E/DX2                !
 ! D8    D(8,2,3,5)             14.8046         estimate D2E/DX2                !
 --------------------------------------------------------------------------------
 Trust Radius=3.00D-01 FncErr=1.00D-07 GrdErr=1.00D-06
 Number of steps in this run=     34 maximum allowed number of steps=    100.
 GradGradGradGradGradGradGradGradGradGradGradGradGradGradGradGradGradGrad

 Leave Link  103 at Wed May 12 11:58:24 2021, MaxMem=  2147483648 cpu:         0.1
 (Enter /opt/cluster/programs/g09_d.01/g09/l202.exe)
                          Input orientation:                          
 ---------------------------------------------------------------------
 Center     Atomic      Atomic             Coordinates (Angstroms)
 Number     Number       Type             X           Y           Z
 ---------------------------------------------------------------------
      1          6           0        1.492535    0.466314    0.036680
      2          6           0        0.664376   -0.589226   -0.066044
      3          6           0       -0.800529   -0.468826    0.070781
      4          8           0       -1.439864    0.591140   -0.063874
      5          1           0       -1.342091   -1.404222    0.290580
      6          1           0        2.570114    0.356641   -0.033142
      7          1           0        1.099200    1.467166    0.193441
      8          1           0        1.053392   -1.598271   -0.188395
 ---------------------------------------------------------------------
                    Distance matrix (angstroms):
                    1          2          3          4          5
     1  C    0.000000
     2  C    1.345572   0.000000
     3  C    2.476649   1.476199   0.000000
     4  O    2.936777   2.412694   1.245154   0.000000
     5  H    3.405653   2.194837   1.102981   2.028957   0.000000
     6  H    1.085394   2.127812   3.471805   4.016946   4.302416
     7  H    1.086734   2.117818   2.715158   2.698236   3.770173
     8  H    2.122738   1.088336   2.186285   3.320444   2.450594
                    6          7          8
     6  H    0.000000
     7  H    1.856931   0.000000
     8  H    2.479159   3.089466   0.000000
 Stoichiometry    C3H4O
 Framework group  C1[X(C3H4O)]
 Deg. of freedom    18
 Full point group                 C1      NOp   1
 Largest Abelian subgroup         C1      NOp   1
 Largest concise Abelian subgroup C1      NOp   1
                         Standard orientation:                         
 ---------------------------------------------------------------------
 Center     Atomic      Atomic             Coordinates (Angstroms)
 Number     Number       Type             X           Y           Z
 ---------------------------------------------------------------------
      1          6           0       -1.492535   -0.466314    0.036680
      2          6           0       -0.664376    0.589226   -0.066044
      3          6           0        0.800529    0.468826    0.070781
      4          8           0        1.439864   -0.591140   -0.063874
      5          1           0        1.342091    1.404222    0.290580
      6          1           0       -2.570114   -0.356641   -0.033142
      7          1           0       -1.099200   -1.467166    0.193441
      8          1           0       -1.053392    1.598271   -0.188395
 ---------------------------------------------------------------------
 Rotational constants (GHZ):     22.8935731      6.0198544      4.7980938
 Leave Link  202 at Wed May 12 11:58:24 2021, MaxMem=  2147483648 cpu:         0.0
 (Enter /opt/cluster/programs/g09_d.01/g09/l301.exe)
 Standard basis: 6-31+G (6D, 7F)
 Ernie: Thresh=  0.10000D-02 Tol=  0.10000D-05 Strict=F.
 There are    60 symmetry adapted cartesian basis functions of A   symmetry.
 There are    60 symmetry adapted basis functions of A   symmetry.
    60 basis functions,   120 primitive gaussians,    60 cartesian basis functions
    15 alpha electrons       15 beta electrons
       nuclear repulsion energy       103.5097007938 Hartrees.
 IExCor= 4639 DFT=T Ex+Corr=wB97XD ExCW=0 ScaHFX=  1.000000
 ScaDFX=  1.000000  1.000000  1.000000  1.000000 ScalE2=  1.000000  1.000000
 IRadAn=      0 IRanWt=     -1 IRanGd=            0 ICorTp=0 IEmpDi=121
  HFx wShort=  0.000000 wLong=  0.200000 cFull=  0.222036 cShort=  0.000000 cLong=  0.777964
  DFx wShort=  0.000000 wLong=  0.200000 cFull=  0.000000 cShort=  0.000000 cLong=  1.000000
 NAtoms=    8 NActive=    8 NUniq=    8 SFac= 1.00D+00 NAtFMM=   60 NAOKFM=F Big=F
 Integral buffers will be    131072 words long.
 Raffenetti 2 integral format.
 Two-electron integral symmetry is turned on.
 R6Disp:  Grimme-D2 Dispersion energy=       -0.0017781252 Hartrees.
 Nuclear repulsion after empirical dispersion term =      103.5079226686 Hartrees.
 Leave Link  301 at Wed May 12 11:58:24 2021, MaxMem=  2147483648 cpu:         0.3
 (Enter /opt/cluster/programs/g09_d.01/g09/l302.exe)
 NPDir=0 NMtPBC=     1 NCelOv=     1 NCel=       1 NClECP=     1 NCelD=      1
         NCelK=      1 NCelE2=     1 NClLst=     1 CellRange=     0.0.
 One-electron integrals computed using PRISM.
 NBasis=    60 RedAO= T EigKep=  1.33D-04  NBF=    60
 NBsUse=    60 1.00D-06 EigRej= -1.00D+00 NBFU=    60
 Precomputing XC quadrature grid using
 IXCGrd= 4 IRadAn=           0 IRanWt=          -1 IRanGd=           0 AccXCQ= 0.00D+00.
 Generated NRdTot=       0 NPtTot=           0 NUsed=           0 NTot=          32
 NSgBfM=    60    60    60    60    60 MxSgAt=     8 MxSgA2=     8.
 Leave Link  302 at Wed May 12 11:58:24 2021, MaxMem=  2147483648 cpu:         0.8
 (Enter /opt/cluster/programs/g09_d.01/g09/l303.exe)
 DipDrv:  MaxL=1.
 Leave Link  303 at Wed May 12 11:58:24 2021, MaxMem=  2147483648 cpu:         0.2
 (Enter /opt/cluster/programs/g09_d.01/g09/l401.exe)
 ExpMin= 4.38D-02 ExpMax= 5.48D+03 ExpMxC= 8.25D+02 IAcc=2 IRadAn=         4 AccDes= 0.00D+00
 Harris functional with IExCor= 4639 and IRadAn=       4 diagonalized for initial guess.
 HarFok:  IExCor= 4639 AccDes= 0.00D+00 IRadAn=         4 IDoV= 1 UseB2=F ITyADJ=14
 ICtDFT=  3500011 ScaDFX=  1.000000  1.000000  1.000000  1.000000
 FoFCou: FMM=F IPFlag=           0 FMFlag=      100000 FMFlg1=           0
         NFxFlg=           0 DoJE=T BraDBF=F KetDBF=T FulRan=T
         wScrn=  0.000000 ICntrl=     500 IOpCl=  0 I1Cent=   200000004 NGrid=           0
         NMat0=    1 NMatS0=      1 NMatT0=    0 NMatD0=    1 NMtDS0=    0 NMtDT0=    0
 Petite list used in FoFCou.
 Harris En= -183.746951625913    
 JPrj=0 DoOrth=F DoCkMO=F.
 Leave Link  401 at Wed May 12 11:58:24 2021, MaxMem=  2147483648 cpu:         1.0
 (Enter /opt/cluster/programs/g09_d.01/g09/l502.exe)
 Closed shell SCF:
 Using DIIS extrapolation, IDIIS=  1040.
 Integral symmetry usage will be decided dynamically.
 Keep R1 ints in memory in canonical form, NReq=4262490.
 IVT=       30290 IEndB=       30290 NGot=  2147483648 MDV=  2144102629
 LenX=  2144102629 LenY=  2144098588
 Requested convergence on RMS density matrix=1.00D-08 within 128 cycles.
 Requested convergence on MAX density matrix=1.00D-06.
 Requested convergence on             energy=1.00D-06.
 No special actions if energy rises.
 FoFCou: FMM=F IPFlag=           0 FMFlag=           0 FMFlg1=           0
         NFxFlg=           0 DoJE=F BraDBF=F KetDBF=F FulRan=T
         wScrn=  0.000000 ICntrl=     600 IOpCl=  0 I1Cent=           0 NGrid=           0
         NMat0=    1 NMatS0=   1830 NMatT0=    0 NMatD0=    1 NMtDS0=    0 NMtDT0=    0
 Symmetry not used in FoFCou.

 Cycle   1  Pass 1  IDiag  1:
 E= -191.753635650508    
 DIIS: error= 2.81D-02 at cycle   1 NSaved=   1.
 NSaved= 1 IEnMin= 1 EnMin= -191.753635650508     IErMin= 1 ErrMin= 2.81D-02
 ErrMax= 2.81D-02  0.00D+00 EMaxC= 1.00D-01 BMatC= 7.22D-02 BMatP= 7.22D-02
 IDIUse=3 WtCom= 7.19D-01 WtEn= 2.81D-01
 Coeff-Com:  0.100D+01
 Coeff-En:   0.100D+01
 Coeff:      0.100D+01
 Gap=     0.393 Goal=   None    Shift=    0.000
 GapD=    0.393 DampG=1.000 DampE=0.500 DampFc=0.5000 IDamp=-1.
 Damping current iteration by 5.00D-01
 RMSDP=2.31D-02 MaxDP=5.97D-01              OVMax= 1.01D-01

 Cycle   2  Pass 1  IDiag  1:
 E= -191.771571423369     Delta-E=       -0.017935772861 Rises=F Damp=T
 DIIS: error= 1.42D-02 at cycle   2 NSaved=   2.
 NSaved= 2 IEnMin= 2 EnMin= -191.771571423369     IErMin= 2 ErrMin= 1.42D-02
 ErrMax= 1.42D-02  0.00D+00 EMaxC= 1.00D-01 BMatC= 1.11D-02 BMatP= 7.22D-02
 IDIUse=3 WtCom= 8.58D-01 WtEn= 1.42D-01
 Coeff-Com: -0.195D+00 0.120D+01
 Coeff-En:   0.000D+00 0.100D+01
 Coeff:     -0.168D+00 0.117D+01
 Gap=     0.378 Goal=   None    Shift=    0.000
 RMSDP=1.01D-02 MaxDP=2.52D-01 DE=-1.79D-02 OVMax= 9.10D-02

 Cycle   3  Pass 1  IDiag  1:
 E= -191.786788355738     Delta-E=       -0.015216932370 Rises=F Damp=F
 DIIS: error= 1.27D-02 at cycle   3 NSaved=   3.
 NSaved= 3 IEnMin= 3 EnMin= -191.786788355738     IErMin= 3 ErrMin= 1.27D-02
 ErrMax= 1.27D-02  0.00D+00 EMaxC= 1.00D-01 BMatC= 7.10D-03 BMatP= 1.11D-02
 IDIUse=3 WtCom= 8.73D-01 WtEn= 1.27D-01
 Coeff-Com: -0.248D+00 0.616D+00 0.632D+00
 Coeff-En:   0.000D+00 0.000D+00 0.100D+01
 Coeff:     -0.217D+00 0.538D+00 0.678D+00
 Gap=     0.341 Goal=   None    Shift=    0.000
 RMSDP=3.49D-03 MaxDP=6.52D-02 DE=-1.52D-02 OVMax= 3.38D-02

 Cycle   4  Pass 1  IDiag  1:
 E= -191.791388023151     Delta-E=       -0.004599667413 Rises=F Damp=F
 DIIS: error= 5.01D-03 at cycle   4 NSaved=   4.
 NSaved= 4 IEnMin= 4 EnMin= -191.791388023151     IErMin= 4 ErrMin= 5.01D-03
 ErrMax= 5.01D-03  0.00D+00 EMaxC= 1.00D-01 BMatC= 1.19D-03 BMatP= 7.10D-03
 IDIUse=3 WtCom= 9.50D-01 WtEn= 5.01D-02
 Coeff-Com: -0.823D-01 0.158D+00 0.368D+00 0.557D+00
 Coeff-En:   0.000D+00 0.000D+00 0.136D+00 0.864D+00
 Coeff:     -0.782D-01 0.150D+00 0.356D+00 0.572D+00
 Gap=     0.336 Goal=   None    Shift=    0.000
 RMSDP=6.63D-04 MaxDP=7.08D-03 DE=-4.60D-03 OVMax= 1.13D-02

 Cycle   5  Pass 1  IDiag  1:
 E= -191.792343758685     Delta-E=       -0.000955735534 Rises=F Damp=F
 DIIS: error= 8.22D-04 at cycle   5 NSaved=   5.
 NSaved= 5 IEnMin= 5 EnMin= -191.792343758685     IErMin= 5 ErrMin= 8.22D-04
 ErrMax= 8.22D-04  0.00D+00 EMaxC= 1.00D-01 BMatC= 1.85D-05 BMatP= 1.19D-03
 IDIUse=3 WtCom= 9.92D-01 WtEn= 8.22D-03
 Coeff-Com: -0.213D-01 0.346D-01 0.118D+00 0.228D+00 0.640D+00
 Coeff-En:   0.000D+00 0.000D+00 0.000D+00 0.000D+00 0.100D+01
 Coeff:     -0.211D-01 0.344D-01 0.117D+00 0.226D+00 0.643D+00
 Gap=     0.336 Goal=   None    Shift=    0.000
 RMSDP=3.24D-04 MaxDP=6.03D-03 DE=-9.56D-04 OVMax= 2.21D-03

 Cycle   6  Pass 1  IDiag  1:
 E= -191.792365026426     Delta-E=       -0.000021267741 Rises=F Damp=F
 DIIS: error= 3.07D-04 at cycle   6 NSaved=   6.
 NSaved= 6 IEnMin= 6 EnMin= -191.792365026426     IErMin= 6 ErrMin= 3.07D-04
 ErrMax= 3.07D-04  0.00D+00 EMaxC= 1.00D-01 BMatC= 1.63D-06 BMatP= 1.85D-05
 IDIUse=3 WtCom= 9.97D-01 WtEn= 3.07D-03
 Coeff-Com:  0.109D-01-0.219D-01-0.394D-01-0.539D-01 0.156D+00 0.948D+00
 Coeff-En:   0.000D+00 0.000D+00 0.000D+00 0.000D+00 0.000D+00 0.100D+01
 Coeff:      0.108D-01-0.218D-01-0.393D-01-0.538D-01 0.156D+00 0.948D+00
 Gap=     0.336 Goal=   None    Shift=    0.000
 RMSDP=2.56D-04 MaxDP=4.59D-03 DE=-2.13D-05 OVMax= 1.31D-03

 Cycle   7  Pass 1  IDiag  1:
 E= -191.792368298726     Delta-E=       -0.000003272300 Rises=F Damp=F
 DIIS: error= 4.14D-05 at cycle   7 NSaved=   7.
 NSaved= 7 IEnMin= 7 EnMin= -191.792368298726     IErMin= 7 ErrMin= 4.14D-05
 ErrMax= 4.14D-05  0.00D+00 EMaxC= 1.00D-01 BMatC= 1.17D-07 BMatP= 1.63D-06
 IDIUse=1 WtCom= 1.00D+00 WtEn= 0.00D+00
 Coeff-Com:  0.413D-02-0.753D-02-0.197D-01-0.313D-01-0.818D-02 0.237D+00
 Coeff-Com:  0.826D+00
 Coeff:      0.413D-02-0.753D-02-0.197D-01-0.313D-01-0.818D-02 0.237D+00
 Coeff:      0.826D+00
 Gap=     0.336 Goal=   None    Shift=    0.000
 RMSDP=4.77D-05 MaxDP=8.53D-04 DE=-3.27D-06 OVMax= 2.44D-04

 Cycle   8  Pass 1  IDiag  1:
 E= -191.792368545215     Delta-E=       -0.000000246489 Rises=F Damp=F
 DIIS: error= 1.25D-05 at cycle   8 NSaved=   8.
 NSaved= 8 IEnMin= 8 EnMin= -191.792368545215     IErMin= 8 ErrMin= 1.25D-05
 ErrMax= 1.25D-05  0.00D+00 EMaxC= 1.00D-01 BMatC= 1.12D-08 BMatP= 1.17D-07
 IDIUse=1 WtCom= 1.00D+00 WtEn= 0.00D+00
 Coeff-Com: -0.134D-02 0.270D-02 0.364D-02 0.518D-02-0.139D-01-0.954D-01
 Coeff-Com:  0.783D-01 0.102D+01
 Coeff:     -0.134D-02 0.270D-02 0.364D-02 0.518D-02-0.139D-01-0.954D-01
 Coeff:      0.783D-01 0.102D+01
 Gap=     0.336 Goal=   None    Shift=    0.000
 RMSDP=9.66D-06 MaxDP=1.36D-04 DE=-2.46D-07 OVMax= 1.18D-04

 Cycle   9  Pass 1  IDiag  1:
 E= -191.792368578219     Delta-E=       -0.000000033004 Rises=F Damp=F
 DIIS: error= 6.47D-06 at cycle   9 NSaved=   9.
 NSaved= 9 IEnMin= 9 EnMin= -191.792368578219     IErMin= 9 ErrMin= 6.47D-06
 ErrMax= 6.47D-06  0.00D+00 EMaxC= 1.00D-01 BMatC= 6.66D-10 BMatP= 1.12D-08
 IDIUse=1 WtCom= 1.00D+00 WtEn= 0.00D+00
 Coeff-Com: -0.228D-03 0.408D-03 0.108D-02 0.166D-02 0.314D-02-0.131D-01
 Coeff-Com: -0.719D-01-0.966D-01 0.118D+01
 Coeff:     -0.228D-03 0.408D-03 0.108D-02 0.166D-02 0.314D-02-0.131D-01
 Coeff:     -0.719D-01-0.966D-01 0.118D+01
 Gap=     0.336 Goal=   None    Shift=    0.000
 RMSDP=2.57D-06 MaxDP=2.49D-05 DE=-3.30D-08 OVMax= 6.48D-05

 Cycle  10  Pass 1  IDiag  1:
 E= -191.792368582561     Delta-E=       -0.000000004342 Rises=F Damp=F
 DIIS: error= 2.97D-06 at cycle  10 NSaved=  10.
 NSaved=10 IEnMin=10 EnMin= -191.792368582561     IErMin=10 ErrMin= 2.97D-06
 ErrMax= 2.97D-06  0.00D+00 EMaxC= 1.00D-01 BMatC= 7.37D-11 BMatP= 6.66D-10
 IDIUse=1 WtCom= 1.00D+00 WtEn= 0.00D+00
 Coeff-Com:  0.191D-03-0.363D-03-0.767D-03-0.108D-02-0.121D-03 0.119D-01
 Coeff-Com:  0.245D-01-0.322D-01-0.521D+00 0.152D+01
 Coeff:      0.191D-03-0.363D-03-0.767D-03-0.108D-02-0.121D-03 0.119D-01
 Coeff:      0.245D-01-0.322D-01-0.521D+00 0.152D+01
 Gap=     0.336 Goal=   None    Shift=    0.000
 RMSDP=1.24D-06 MaxDP=1.18D-05 DE=-4.34D-09 OVMax= 3.77D-05

 Cycle  11  Pass 1  IDiag  1:
 E= -191.792368583328     Delta-E=       -0.000000000767 Rises=F Damp=F
 DIIS: error= 9.14D-07 at cycle  11 NSaved=  11.
 NSaved=11 IEnMin=11 EnMin= -191.792368583328     IErMin=11 ErrMin= 9.14D-07
 ErrMax= 9.14D-07  0.00D+00 EMaxC= 1.00D-01 BMatC= 7.66D-12 BMatP= 7.37D-11
 IDIUse=1 WtCom= 1.00D+00 WtEn= 0.00D+00
 Coeff-Com: -0.470D-04 0.909D-04 0.198D-03 0.257D-03-0.165D-03-0.314D-02
 Coeff-Com: -0.112D-02 0.220D-01 0.954D-01-0.683D+00 0.157D+01
 Coeff:     -0.470D-04 0.909D-04 0.198D-03 0.257D-03-0.165D-03-0.314D-02
 Coeff:     -0.112D-02 0.220D-01 0.954D-01-0.683D+00 0.157D+01
 Gap=     0.336 Goal=   None    Shift=    0.000
 RMSDP=4.51D-07 MaxDP=3.99D-06 DE=-7.67D-10 OVMax= 1.47D-05

 Cycle  12  Pass 1  IDiag  1:
 E= -191.792368583416     Delta-E=       -0.000000000088 Rises=F Damp=F
 DIIS: error= 1.43D-07 at cycle  12 NSaved=  12.
 NSaved=12 IEnMin=12 EnMin= -191.792368583416     IErMin=12 ErrMin= 1.43D-07
 ErrMax= 1.43D-07  0.00D+00 EMaxC= 1.00D-01 BMatC= 6.21D-13 BMatP= 7.66D-12
 IDIUse=1 WtCom= 1.00D+00 WtEn= 0.00D+00
 Coeff-Com:  0.114D-05-0.275D-05 0.345D-05 0.143D-05-0.582D-04 0.153D-03
 Coeff-Com: -0.159D-02-0.335D-02 0.962D-02 0.705D-01-0.372D+00 0.130D+01
 Coeff:      0.114D-05-0.275D-05 0.345D-05 0.143D-05-0.582D-04 0.153D-03
 Coeff:     -0.159D-02-0.335D-02 0.962D-02 0.705D-01-0.372D+00 0.130D+01
 Gap=     0.336 Goal=   None    Shift=    0.000
 RMSDP=9.69D-08 MaxDP=1.01D-06 DE=-8.81D-11 OVMax= 2.05D-06

 Cycle  13  Pass 1  IDiag  1:
 E= -191.792368583418     Delta-E=       -0.000000000002 Rises=F Damp=F
 DIIS: error= 2.08D-08 at cycle  13 NSaved=  13.
 NSaved=13 IEnMin=13 EnMin= -191.792368583418     IErMin=13 ErrMin= 2.08D-08
 ErrMax= 2.08D-08  0.00D+00 EMaxC= 1.00D-01 BMatC= 9.65D-15 BMatP= 6.21D-13
 IDIUse=1 WtCom= 1.00D+00 WtEn= 0.00D+00
 Coeff-Com:  0.148D-05-0.278D-05-0.700D-05-0.850D-05 0.386D-05 0.111D-03
 Coeff-Com:  0.273D-03-0.236D-03-0.472D-02 0.119D-01 0.430D-02-0.209D+00
 Coeff-Com:  0.120D+01
 Coeff:      0.148D-05-0.278D-05-0.700D-05-0.850D-05 0.386D-05 0.111D-03
 Coeff:      0.273D-03-0.236D-03-0.472D-02 0.119D-01 0.430D-02-0.209D+00
 Coeff:      0.120D+01
 Gap=     0.336 Goal=   None    Shift=    0.000
 RMSDP=1.27D-08 MaxDP=1.14D-07 DE=-1.71D-12 OVMax= 1.68D-07

 Cycle  14  Pass 1  IDiag  1:
 E= -191.792368583417     Delta-E=        0.000000000001 Rises=F Damp=F
 DIIS: error= 2.08D-09 at cycle  14 NSaved=  14.
 NSaved=14 IEnMin=13 EnMin= -191.792368583418     IErMin=14 ErrMin= 2.08D-09
 ErrMax= 2.08D-09  0.00D+00 EMaxC= 1.00D-01 BMatC= 1.88D-16 BMatP= 9.65D-15
 IDIUse=1 WtCom= 1.00D+00 WtEn= 0.00D+00
 Coeff-Com: -0.113D-06 0.218D-06 0.474D-06 0.346D-06 0.513D-06-0.758D-05
 Coeff-Com:  0.368D-06 0.901D-04 0.289D-03-0.272D-02 0.726D-02 0.485D-03
 Coeff-Com: -0.186D+00 0.118D+01
 Coeff:     -0.113D-06 0.218D-06 0.474D-06 0.346D-06 0.513D-06-0.758D-05
 Coeff:      0.368D-06 0.901D-04 0.289D-03-0.272D-02 0.726D-02 0.485D-03
 Coeff:     -0.186D+00 0.118D+01
 Gap=     0.336 Goal=   None    Shift=    0.000
 RMSDP=2.94D-09 MaxDP=4.54D-08 DE= 6.25D-13 OVMax= 1.77D-08

 SCF Done:  E(RwB97XD) =  -191.792368583     A.U. after   14 cycles
            NFock= 14  Conv=0.29D-08     -V/T= 2.0061
 KE= 1.906360845559D+02 PE=-6.544932773256D+02 EE= 1.685569015177D+02
 Leave Link  502 at Wed May 12 11:58:25 2021, MaxMem=  2147483648 cpu:         9.3
 (Enter /opt/cluster/programs/g09_d.01/g09/l601.exe)
 Copying SCF densities to generalized density rwf, IOpCl= 0 IROHF=0.

 **********************************************************************

            Population analysis using the SCF density.

 **********************************************************************

 Orbital symmetries:
       Occupied  (A) (A) (A) (A) (A) (A) (A) (A) (A) (A) (A) (A)
                 (A) (A) (A)
       Virtual   (A) (A) (A) (A) (A) (A) (A) (A) (A) (A) (A) (A)
                 (A) (A) (A) (A) (A) (A) (A) (A) (A) (A) (A) (A)
                 (A) (A) (A) (A) (A) (A) (A) (A) (A) (A) (A) (A)
                 (A) (A) (A) (A) (A) (A) (A) (A) (A)
 The electronic state is 1-A.
 Alpha  occ. eigenvalues --  -19.28719 -10.40545 -10.33385 -10.33027  -1.16518
 Alpha  occ. eigenvalues --   -0.90950  -0.77102  -0.65158  -0.61410  -0.54475
 Alpha  occ. eigenvalues --   -0.52596  -0.48986  -0.47722  -0.37631  -0.35254
 Alpha virt. eigenvalues --   -0.01616   0.06946   0.08145   0.09548   0.10301
 Alpha virt. eigenvalues --    0.11684   0.12599   0.13175   0.15017   0.16055
 Alpha virt. eigenvalues --    0.17595   0.17964   0.20229   0.22188   0.25965
 Alpha virt. eigenvalues --    0.28098   0.31413   0.32394   0.32574   0.34543
 Alpha virt. eigenvalues --    0.36519   0.39079   0.41577   0.46144   0.53590
 Alpha virt. eigenvalues --    0.71300   0.72967   0.76996   0.78627   0.80593
 Alpha virt. eigenvalues --    0.82699   0.88524   0.98895   1.02398   1.05246
 Alpha virt. eigenvalues --    1.10608   1.13842   1.22475   1.23553   1.28946
 Alpha virt. eigenvalues --    1.31337   1.39488   1.41491   1.42645   1.91794
          Condensed to atoms (all electrons):
               1          2          3          4          5          6
     1  C    5.208294   0.310906   0.070663   0.055131   0.041174   0.358587
     2  C    0.310906   5.940620  -0.054409  -0.223507  -0.169149  -0.024735
     3  C    0.070663  -0.054409   5.165577   0.331183   0.392510   0.011837
     4  O    0.055131  -0.223507   0.331183   8.334749  -0.067079   0.000723
     5  H    0.041174  -0.169149   0.392510  -0.067079   0.622529  -0.000061
     6  H    0.358587  -0.024735   0.011837   0.000723  -0.000061   0.473113
     7  H    0.391533  -0.051639   0.004590   0.000471   0.000108  -0.022436
     8  H    0.004486   0.300571   0.003956   0.004938   0.001141  -0.002934
               7          8
     1  C    0.391533   0.004486
     2  C   -0.051639   0.300571
     3  C    0.004590   0.003956
     4  O    0.000471   0.004938
     5  H    0.000108   0.001141
     6  H   -0.022436  -0.002934
     7  H    0.440993   0.002444
     8  H    0.002444   0.472119
 Mulliken charges:
               1
     1  C   -0.440774
     2  C   -0.028658
     3  C    0.074093
     4  O   -0.436610
     5  H    0.178828
     6  H    0.205906
     7  H    0.233936
     8  H    0.213279
 Sum of Mulliken charges =   0.00000
 Mulliken charges with hydrogens summed into heavy atoms:
               1
     1  C   -0.000932
     2  C    0.184621
     3  C    0.252921
     4  O   -0.436610
 Electronic spatial extent (au):  <R**2>=            274.5273
 Charge=              0.0000 electrons
 Dipole moment (field-independent basis, Debye):
    X=             -2.6079    Y=              1.9995    Z=              0.3270  Tot=              3.3025
 Quadrupole moment (field-independent basis, Debye-Ang):
   XX=            -24.9371   YY=            -22.4632   ZZ=            -25.3307
   XY=              3.7444   XZ=              0.5110   YZ=             -0.4843
 Traceless Quadrupole moment (field-independent basis, Debye-Ang):
   XX=             -0.6934   YY=              1.7804   ZZ=             -1.0870
   XY=              3.7444   XZ=              0.5110   YZ=             -0.4843
 Octapole moment (field-independent basis, Debye-Ang**2):
  XXX=             -9.8013  YYY=              0.2874  ZZZ=             -0.0997  XYY=             -1.0236
  XXY=              3.4149  XXZ=             -0.0104  XZZ=              3.6816  YZZ=             -0.7967
  YYZ=              0.3531  XYZ=              0.5301
 Hexadecapole moment (field-independent basis, Debye-Ang**3):
 XXXX=           -236.5751 YYYY=            -82.7859 ZZZZ=            -28.5360 XXXY=              7.5793
 XXXZ=              1.3928 YYYX=              0.1165 YYYZ=             -1.1850 ZZZX=             -0.1722
 ZZZY=             -0.1567 XXYY=            -54.2098 XXZZ=            -47.6956 YYZZ=            -20.1907
 XXYZ=             -0.3160 YYXZ=              0.6418 ZZXY=             -0.4290
 N-N= 1.035079226686D+02 E-N=-6.544932773210D+02  KE= 1.906360845559D+02
 No NMR shielding tensors so no spin-rotation constants.
 Leave Link  601 at Wed May 12 11:58:25 2021, MaxMem=  2147483648 cpu:         0.6
 (Enter /opt/cluster/programs/g09_d.01/g09/l701.exe)
 Compute integral first derivatives.
 ... and contract with generalized density number  0.
 R6Disp: Adding Grimme-D2 dispersion energy 1st derivatives to the gradient.
 Leave Link  701 at Wed May 12 11:58:25 2021, MaxMem=  2147483648 cpu:         0.6
 (Enter /opt/cluster/programs/g09_d.01/g09/l702.exe)
 L702 exits ... SP integral derivatives will be done elsewhere.
 Leave Link  702 at Wed May 12 11:58:26 2021, MaxMem=  2147483648 cpu:         0.2
 (Enter /opt/cluster/programs/g09_d.01/g09/l703.exe)
 Compute integral first derivatives, UseDBF=F ICtDFT=           0.
 Integral derivatives from FoFJK, PRISM(SPDF).
 Calling FoFJK, ICntrl=      2127 FMM=F ISym2X=0 I1Cent= 0 IOpClX= 0 NMat=1 NMatS=1 NMatT=0.
 FoFJK:  IHMeth= 1 ICntrl=    2127 DoSepK=T KAlg= 0 I1Cent=   0 FoldK=F
 IRaf=         1 NMat=   1 IRICut=       1 DoRegI=T DoRafI=F ISym2E= 0.
 FoFCou: FMM=F IPFlag=           0 FMFlag=      100000 FMFlg1=         800
         NFxFlg=           0 DoJE=F BraDBF=F KetDBF=F FulRan=T
         wScrn=  0.000000 ICntrl=    2527 IOpCl=  0 I1Cent=           0 NGrid=           0
         NMat0=    1 NMatS0=      1 NMatT0=    0 NMatD0=    1 NMtDS0=    0 NMtDT0=    0
 Symmetry not used in FoFCou.
 Leave Link  703 at Wed May 12 11:58:26 2021, MaxMem=  2147483648 cpu:         2.5
 (Enter /opt/cluster/programs/g09_d.01/g09/l716.exe)
 Dipole        =-1.02604184D+00 7.86668370D-01 1.28640889D-01
 ***** Axes restored to original set *****
 -------------------------------------------------------------------
 Center     Atomic                   Forces (Hartrees/Bohr)
 Number     Number              X              Y              Z
 -------------------------------------------------------------------
      1        6          -0.004117892   -0.003406269   -0.002432069
      2        6           0.003807813    0.003236616    0.004817462
      3        6          -0.005641666    0.006219274   -0.004990353
      4        8           0.006247017   -0.007790032    0.003242648
      5        1           0.000616017    0.001567417   -0.000318802
      6        1          -0.000627774   -0.000346993   -0.000077036
      7        1          -0.000233808   -0.000305653   -0.000062252
      8        1          -0.000049708    0.000825640   -0.000179598
 -------------------------------------------------------------------
 Cartesian Forces:  Max     0.007790032 RMS     0.003491779
 Leave Link  716 at Wed May 12 11:58:26 2021, MaxMem=  2147483648 cpu:         0.2
 (Enter /opt/cluster/programs/g09_d.01/g09/l103.exe)

 GradGradGradGradGradGradGradGradGradGradGradGradGradGradGradGradGradGrad
 Berny optimization.
 FormGI is forming the generalized inverse of G from B-inverse, IUseBI=4.
 Internal  Forces:  Max     0.010187496 RMS     0.002695343
 Search for a local minimum.
 Step number   1 out of a maximum of   34
 All quantities printed in internal units (Hartrees-Bohrs-Radians)
 RMS Force = .26445D-02 SwitMx=.10000D-02 MixMth= 1
 Mixed Optimization -- RFO/linear search
 Second derivative matrix not updated -- first step.
 ITU=  0
     Eigenvalues ---    0.01082   0.01819   0.02809   0.02809   0.15973
     Eigenvalues ---    0.16000   0.16000   0.16000   0.22001   0.22006
     Eigenvalues ---    0.33355   0.35006   0.35008   0.35193   0.35350
     Eigenvalues ---    0.55974   0.850531000.000001000.000001000.00000
     Eigenvalues --- 1000.000001000.000001000.000001000.00000
 RFO step:  Lambda=-2.61723056D-04 EMin= 1.08156938D-02
 Linear search not attempted -- first point.
 Iteration  1 RMS(Cart)=  0.01130868 RMS(Int)=  0.00003851
 Iteration  2 RMS(Cart)=  0.00004365 RMS(Int)=  0.00000371
 Iteration  3 RMS(Cart)=  0.00000000 RMS(Int)=  0.00000371
 Iteration  1 RMS(Cart)=  0.00000037 RMS(Int)=  0.00000034
 ITry= 1 IFail=0 DXMaxC= 3.52D-02 DCOld= 1.00D+10 DXMaxT= 3.00D-01 DXLimC= 3.00D+00 Rises=F
 Variable       Old X    -DE/DX   Delta X   Delta X   Delta X     New X
                                 (Linear)    (Quad)   (Total)
    R1        2.54276  -0.00645   0.00000  -0.01151  -0.01151   2.53125
    R2        2.05110  -0.00058   0.00000  -0.00165  -0.00165   2.04945
    R3        2.05363  -0.00021   0.00000  -0.00059  -0.00059   2.05304
    R4        2.78961  -0.00140   0.00000  -0.00401  -0.00401   2.78560
    R5        2.05666  -0.00076   0.00000  -0.00218  -0.00218   2.05448
    R6        2.35300  -0.01019   0.00000  -0.01197  -0.01197   2.34103
    R7        2.08433  -0.00170   0.00000  -0.00509  -0.00509   2.07925
    A1        2.12570  -0.00035   0.00000  -0.00218  -0.00218   2.12352
    A2        2.10681  -0.00016   0.00000  -0.00102  -0.00102   2.10579
    A3        2.05068   0.00051   0.00000   0.00320   0.00320   2.05388
    A4        2.14088  -0.00183   0.00000  -0.00828  -0.00829   2.13259
    A5        2.11284   0.00074   0.00000   0.00278   0.00277   2.11562
    A6        2.02722   0.00117   0.00000   0.00601   0.00600   2.03323
    A7        2.17601  -0.00158   0.00000  -0.00724  -0.00724   2.16876
    A8        2.02255   0.00108   0.00000   0.00527   0.00526   2.02781
    A9        2.08446   0.00054   0.00000   0.00192   0.00192   2.08639
    D1        3.10508   0.00071   0.00000   0.00589   0.00589   3.11097
    D2        0.03807  -0.00062   0.00000  -0.00296  -0.00296   0.03511
    D3       -0.03709   0.00063   0.00000   0.00314   0.00314  -0.03395
    D4       -3.10410  -0.00070   0.00000  -0.00571  -0.00571  -3.10981
    D5        0.34909  -0.00289   0.00000   0.00000   0.00000   0.34908
    D6       -2.81203  -0.00062   0.00000  -0.00311  -0.00311  -2.81515
    D7       -2.86368  -0.00163   0.00000   0.00835   0.00836  -2.85532
    D8        0.25839   0.00064   0.00000   0.00524   0.00525   0.26364
         Item               Value     Threshold  Converged?
 Maximum Force            0.010187     0.000450     NO 
 RMS     Force            0.002645     0.000300     NO 
 Maximum Displacement     0.035208     0.001800     NO 
 RMS     Displacement     0.011307     0.001200     NO 
 Predicted change in Energy=-1.309428D-04
 Lowest energy point so far.  Saving SCF results.
 GradGradGradGradGradGradGradGradGradGradGradGradGradGradGradGradGradGrad

 Leave Link  103 at Wed May 12 11:58:26 2021, MaxMem=  2147483648 cpu:         0.0
 (Enter /opt/cluster/programs/g09_d.01/g09/l202.exe)
                          Input orientation:                          
 ---------------------------------------------------------------------
 Center     Atomic      Atomic             Coordinates (Angstroms)
 Number     Number       Type             X           Y           Z
 ---------------------------------------------------------------------
      1          6           0        1.485313    0.463305    0.037777
      2          6           0        0.666788   -0.592147   -0.063458
      3          6           0       -0.795697   -0.467584    0.072667
      4          8           0       -1.421233    0.592681   -0.065945
      5          1           0       -1.343808   -1.396216    0.291422
      6          1           0        2.562177    0.357846   -0.035922
      7          1           0        1.085541    1.461231    0.194758
      8          1           0        1.058053   -1.598399   -0.191271
 ---------------------------------------------------------------------
                    Distance matrix (angstroms):
                    1          2          3          4          5
     1  C    0.000000
     2  C    1.339482   0.000000
     3  C    2.463895   1.474079   0.000000
     4  O    2.911272   2.400761   1.238818   0.000000
     5  H    3.395009   2.194302   1.100290   2.022231   0.000000
     6  H    1.084522   2.120317   3.459544   3.990439   4.294253
     7  H    1.086424   2.111490   2.697089   2.665757   3.751811
     8  H    2.117933   1.087184   2.187418   3.311102   2.458212
                    6          7          8
     6  H    0.000000
     7  H    1.857720   0.000000
     8  H    2.472532   3.084009   0.000000
 Stoichiometry    C3H4O
 Framework group  C1[X(C3H4O)]
 Deg. of freedom    18
 Full point group                 C1      NOp   1
 RotChk:  IX=0 Diff= 3.01D-03
 Largest Abelian subgroup         C1      NOp   1
 Largest concise Abelian subgroup C1      NOp   1
                         Standard orientation:                         
 ---------------------------------------------------------------------
 Center     Atomic      Atomic             Coordinates (Angstroms)
 Number     Number       Type             X           Y           Z
 ---------------------------------------------------------------------
      1          6           0       -1.480131   -0.466360    0.037495
      2          6           0       -0.663490    0.590456   -0.064712
      3          6           0        0.799185    0.468687    0.071895
      4          8           0        1.426669   -0.590598   -0.065399
      5          1           0        1.345566    1.398549    0.289754
      6          1           0       -2.557166   -0.362929   -0.036575
      7          1           0       -1.078593   -1.463389    0.195672
      8          1           0       -1.056542    1.595858   -0.193729
 ---------------------------------------------------------------------
 Rotational constants (GHZ):     22.9116851      6.1051783      4.8535220
 Leave Link  202 at Wed May 12 11:58:26 2021, MaxMem=  2147483648 cpu:         0.0
 (Enter /opt/cluster/programs/g09_d.01/g09/l301.exe)
 Standard basis: 6-31+G (6D, 7F)
 Ernie: Thresh=  0.10000D-02 Tol=  0.10000D-05 Strict=F.
 There are    60 symmetry adapted cartesian basis functions of A   symmetry.
 There are    60 symmetry adapted basis functions of A   symmetry.
    60 basis functions,   120 primitive gaussians,    60 cartesian basis functions
    15 alpha electrons       15 beta electrons
       nuclear repulsion energy       103.9426385892 Hartrees.
 IExCor= 4639 DFT=T Ex+Corr=wB97XD ExCW=0 ScaHFX=  1.000000
 ScaDFX=  1.000000  1.000000  1.000000  1.000000 ScalE2=  1.000000  1.000000
 IRadAn=      0 IRanWt=     -1 IRanGd=            0 ICorTp=0 IEmpDi=121
  HFx wShort=  0.000000 wLong=  0.200000 cFull=  0.222036 cShort=  0.000000 cLong=  0.777964
  DFx wShort=  0.000000 wLong=  0.200000 cFull=  0.000000 cShort=  0.000000 cLong=  1.000000
 NAtoms=    8 NActive=    8 NUniq=    8 SFac= 1.00D+00 NAtFMM=   60 NAOKFM=F Big=F
 Integral buffers will be    131072 words long.
 Raffenetti 2 integral format.
 Two-electron integral symmetry is turned on.
 R6Disp:  Grimme-D2 Dispersion energy=       -0.0017703295 Hartrees.
 Nuclear repulsion after empirical dispersion term =      103.9408682597 Hartrees.
 Leave Link  301 at Wed May 12 11:58:26 2021, MaxMem=  2147483648 cpu:         0.3
 (Enter /opt/cluster/programs/g09_d.01/g09/l302.exe)
 NPDir=0 NMtPBC=     1 NCelOv=     1 NCel=       1 NClECP=     1 NCelD=      1
         NCelK=      1 NCelE2=     1 NClLst=     1 CellRange=     0.0.
 One-electron integrals computed using PRISM.
 NBasis=    60 RedAO= T EigKep=  1.30D-04  NBF=    60
 NBsUse=    60 1.00D-06 EigRej= -1.00D+00 NBFU=    60
 Precomputing XC quadrature grid using
 IXCGrd= 4 IRadAn=           0 IRanWt=          -1 IRanGd=           0 AccXCQ= 0.00D+00.
 Generated NRdTot=       0 NPtTot=           0 NUsed=           0 NTot=          32
 NSgBfM=    60    60    60    60    60 MxSgAt=     8 MxSgA2=     8.
 Leave Link  302 at Wed May 12 11:58:26 2021, MaxMem=  2147483648 cpu:         0.8
 (Enter /opt/cluster/programs/g09_d.01/g09/l303.exe)
 DipDrv:  MaxL=1.
 Leave Link  303 at Wed May 12 11:58:26 2021, MaxMem=  2147483648 cpu:         0.2
 (Enter /opt/cluster/programs/g09_d.01/g09/l401.exe)
 Initial guess from the checkpoint file:  "/home/unibas/boittier/RDKit_G2/L.pdb/SCAN_1_2_3_4_S_17_20.0/10_SCAN_1_2_3_4_F/L.pdb.chk"
 B after Tr=     0.000000    0.000000    0.000000
         Rot=    1.000000   -0.000073   -0.000293   -0.000131 Ang=  -0.04 deg.
 Guess basis will be translated and rotated to current coordinates.
 JPrj=2 DoOrth=T DoCkMO=T.
 Generating alternative initial guess.
 ExpMin= 4.38D-02 ExpMax= 5.48D+03 ExpMxC= 8.25D+02 IAcc=2 IRadAn=         4 AccDes= 0.00D+00
 Harris functional with IExCor= 4639 and IRadAn=       4 diagonalized for initial guess.
 HarFok:  IExCor= 4639 AccDes= 0.00D+00 IRadAn=         4 IDoV= 1 UseB2=F ITyADJ=14
 ICtDFT=  3500011 ScaDFX=  1.000000  1.000000  1.000000  1.000000
 FoFCou: FMM=F IPFlag=           0 FMFlag=      100000 FMFlg1=           0
         NFxFlg=           0 DoJE=T BraDBF=F KetDBF=T FulRan=T
         wScrn=  0.000000 ICntrl=     500 IOpCl=  0 I1Cent=   200000004 NGrid=           0
         NMat0=    1 NMatS0=      1 NMatT0=    0 NMatD0=    1 NMtDS0=    0 NMtDT0=    0
 Petite list used in FoFCou.
 Harris En= -183.744389155789    
 Leave Link  401 at Wed May 12 11:58:26 2021, MaxMem=  2147483648 cpu:         1.4
 (Enter /opt/cluster/programs/g09_d.01/g09/l502.exe)
 Closed shell SCF:
 Using DIIS extrapolation, IDIIS=  1040.
 Integral symmetry usage will be decided dynamically.
 Keep R1 ints in memory in canonical form, NReq=4262490.
 IVT=       30290 IEndB=       30290 NGot=  2147483648 MDV=  2144102629
 LenX=  2144102629 LenY=  2144098588
 Requested convergence on RMS density matrix=1.00D-08 within 128 cycles.
 Requested convergence on MAX density matrix=1.00D-06.
 Requested convergence on             energy=1.00D-06.
 No special actions if energy rises.
 FoFCou: FMM=F IPFlag=           0 FMFlag=           0 FMFlg1=           0
         NFxFlg=           0 DoJE=F BraDBF=F KetDBF=F FulRan=T
         wScrn=  0.000000 ICntrl=     600 IOpCl=  0 I1Cent=           0 NGrid=           0
         NMat0=    1 NMatS0=   1830 NMatT0=    0 NMatD0=    1 NMtDS0=    0 NMtDT0=    0
 Symmetry not used in FoFCou.

 Cycle   1  Pass 1  IDiag  1:
 E= -191.792396266524    
 DIIS: error= 1.09D-03 at cycle   1 NSaved=   1.
 NSaved= 1 IEnMin= 1 EnMin= -191.792396266524     IErMin= 1 ErrMin= 1.09D-03
 ErrMax= 1.09D-03  0.00D+00 EMaxC= 1.00D-01 BMatC= 6.30D-05 BMatP= 6.30D-05
 IDIUse=3 WtCom= 9.89D-01 WtEn= 1.09D-02
 Coeff-Com:  0.100D+01
 Coeff-En:   0.100D+01
 Coeff:      0.100D+01
 Gap=     0.615 Goal=   None    Shift=    0.000
 GapD=    0.615 DampG=2.000 DampE=1.000 DampFc=2.0000 IDamp=-1.
 RMSDP=3.16D-04 MaxDP=3.82D-03              OVMax= 2.68D-03

 Cycle   2  Pass 1  IDiag  1:
 E= -191.792489778592     Delta-E=       -0.000093512067 Rises=F Damp=F
 DIIS: error= 2.11D-04 at cycle   2 NSaved=   2.
 NSaved= 2 IEnMin= 2 EnMin= -191.792489778592     IErMin= 2 ErrMin= 2.11D-04
 ErrMax= 2.11D-04  0.00D+00 EMaxC= 1.00D-01 BMatC= 4.01D-06 BMatP= 6.30D-05
 IDIUse=3 WtCom= 9.98D-01 WtEn= 2.11D-03
 Coeff-Com: -0.346D-02 0.100D+01
 Coeff-En:   0.000D+00 0.100D+01
 Coeff:     -0.345D-02 0.100D+01
 Gap=     0.338 Goal=   None    Shift=    0.000
 RMSDP=9.02D-05 MaxDP=1.09D-03 DE=-9.35D-05 OVMax= 8.51D-04

 Cycle   3  Pass 1  IDiag  1:
 E= -191.792495298111     Delta-E=       -0.000005519520 Rises=F Damp=F
 DIIS: error= 1.10D-04 at cycle   3 NSaved=   3.
 NSaved= 3 IEnMin= 3 EnMin= -191.792495298111     IErMin= 3 ErrMin= 1.10D-04
 ErrMax= 1.10D-04  0.00D+00 EMaxC= 1.00D-01 BMatC= 1.07D-06 BMatP= 4.01D-06
 IDIUse=3 WtCom= 9.99D-01 WtEn= 1.10D-03
 Coeff-Com: -0.681D-01 0.317D+00 0.751D+00
 Coeff-En:   0.000D+00 0.000D+00 0.100D+01
 Coeff:     -0.680D-01 0.317D+00 0.751D+00
 Gap=     0.338 Goal=   None    Shift=    0.000
 RMSDP=2.64D-05 MaxDP=2.60D-04 DE=-5.52D-06 OVMax= 4.02D-04

 Cycle   4  Pass 1  IDiag  1:
 E= -191.792496571438     Delta-E=       -0.000001273327 Rises=F Damp=F
 DIIS: error= 4.63D-05 at cycle   4 NSaved=   4.
 NSaved= 4 IEnMin= 4 EnMin= -191.792496571438     IErMin= 4 ErrMin= 4.63D-05
 ErrMax= 4.63D-05  0.00D+00 EMaxC= 1.00D-01 BMatC= 6.51D-08 BMatP= 1.07D-06
 IDIUse=1 WtCom= 1.00D+00 WtEn= 0.00D+00
 Coeff-Com: -0.210D-01 0.640D-01 0.235D+00 0.722D+00
 Coeff:     -0.210D-01 0.640D-01 0.235D+00 0.722D+00
 Gap=     0.338 Goal=   None    Shift=    0.000
 RMSDP=6.99D-06 MaxDP=8.11D-05 DE=-1.27D-06 OVMax= 1.43D-04

 Cycle   5  Pass 1  IDiag  1:
 E= -191.792496646922     Delta-E=       -0.000000075484 Rises=F Damp=F
 DIIS: error= 2.25D-05 at cycle   5 NSaved=   5.
 NSaved= 5 IEnMin= 5 EnMin= -191.792496646922     IErMin= 5 ErrMin= 2.25D-05
 ErrMax= 2.25D-05  0.00D+00 EMaxC= 1.00D-01 BMatC= 1.86D-08 BMatP= 6.51D-08
 IDIUse=1 WtCom= 1.00D+00 WtEn= 0.00D+00
 Coeff-Com:  0.547D-02-0.421D-01-0.567D-01 0.336D+00 0.757D+00
 Coeff:      0.547D-02-0.421D-01-0.567D-01 0.336D+00 0.757D+00
 Gap=     0.338 Goal=   None    Shift=    0.000
 RMSDP=4.49D-06 MaxDP=4.06D-05 DE=-7.55D-08 OVMax= 5.97D-05

 Cycle   6  Pass 1  IDiag  1:
 E= -191.792496670560     Delta-E=       -0.000000023638 Rises=F Damp=F
 DIIS: error= 6.34D-06 at cycle   6 NSaved=   6.
 NSaved= 6 IEnMin= 6 EnMin= -191.792496670560     IErMin= 6 ErrMin= 6.34D-06
 ErrMax= 6.34D-06  0.00D+00 EMaxC= 1.00D-01 BMatC= 2.46D-09 BMatP= 1.86D-08
 IDIUse=1 WtCom= 1.00D+00 WtEn= 0.00D+00
 Coeff-Com:  0.401D-02-0.248D-01-0.444D-01 0.129D+00 0.391D+00 0.545D+00
 Coeff:      0.401D-02-0.248D-01-0.444D-01 0.129D+00 0.391D+00 0.545D+00
 Gap=     0.338 Goal=   None    Shift=    0.000
 RMSDP=1.25D-06 MaxDP=1.19D-05 DE=-2.36D-08 OVMax= 1.66D-05

 Cycle   7  Pass 1  IDiag  1:
 E= -191.792496673169     Delta-E=       -0.000000002610 Rises=F Damp=F
 DIIS: error= 2.21D-06 at cycle   7 NSaved=   7.
 NSaved= 7 IEnMin= 7 EnMin= -191.792496673169     IErMin= 7 ErrMin= 2.21D-06
 ErrMax= 2.21D-06  0.00D+00 EMaxC= 1.00D-01 BMatC= 2.34D-10 BMatP= 2.46D-09
 IDIUse=1 WtCom= 1.00D+00 WtEn= 0.00D+00
 Coeff-Com: -0.282D-03 0.459D-02 0.183D-02-0.641D-01-0.115D+00 0.170D+00
 Coeff-Com:  0.100D+01
 Coeff:     -0.282D-03 0.459D-02 0.183D-02-0.641D-01-0.115D+00 0.170D+00
 Coeff:      0.100D+01
 Gap=     0.338 Goal=   None    Shift=    0.000
 RMSDP=8.29D-07 MaxDP=5.42D-06 DE=-2.61D-09 OVMax= 1.87D-05

 Cycle   8  Pass 1  IDiag  1:
 E= -191.792496673889     Delta-E=       -0.000000000719 Rises=F Damp=F
 DIIS: error= 8.47D-07 at cycle   8 NSaved=   8.
 NSaved= 8 IEnMin= 8 EnMin= -191.792496673889     IErMin= 8 ErrMin= 8.47D-07
 ErrMax= 8.47D-07  0.00D+00 EMaxC= 1.00D-01 BMatC= 1.52D-11 BMatP= 2.34D-10
 IDIUse=1 WtCom= 1.00D+00 WtEn= 0.00D+00
 Coeff-Com: -0.347D-03 0.271D-02 0.347D-02-0.217D-01-0.543D-01 0.370D-02
 Coeff-Com:  0.204D+00 0.862D+00
 Coeff:     -0.347D-03 0.271D-02 0.347D-02-0.217D-01-0.543D-01 0.370D-02
 Coeff:      0.204D+00 0.862D+00
 Gap=     0.338 Goal=   None    Shift=    0.000
 RMSDP=2.20D-07 MaxDP=1.20D-06 DE=-7.19D-10 OVMax= 6.32D-06

 Cycle   9  Pass 1  IDiag  1:
 E= -191.792496673946     Delta-E=       -0.000000000058 Rises=F Damp=F
 DIIS: error= 4.83D-07 at cycle   9 NSaved=   9.
 NSaved= 9 IEnMin= 9 EnMin= -191.792496673946     IErMin= 9 ErrMin= 4.83D-07
 ErrMax= 4.83D-07  0.00D+00 EMaxC= 1.00D-01 BMatC= 2.76D-12 BMatP= 1.52D-11
 IDIUse=1 WtCom= 1.00D+00 WtEn= 0.00D+00
 Coeff-Com:  0.133D-04-0.500D-03 0.141D-03 0.924D-02 0.133D-01-0.271D-01
 Coeff-Com: -0.157D+00 0.142D+00 0.102D+01
 Coeff:      0.133D-04-0.500D-03 0.141D-03 0.924D-02 0.133D-01-0.271D-01
 Coeff:     -0.157D+00 0.142D+00 0.102D+01
 Gap=     0.338 Goal=   None    Shift=    0.000
 RMSDP=1.34D-07 MaxDP=9.47D-07 DE=-5.76D-11 OVMax= 4.51D-06

 Cycle  10  Pass 1  IDiag  1:
 E= -191.792496673965     Delta-E=       -0.000000000019 Rises=F Damp=F
 DIIS: error= 2.15D-07 at cycle  10 NSaved=  10.
 NSaved=10 IEnMin=10 EnMin= -191.792496673965     IErMin=10 ErrMin= 2.15D-07
 ErrMax= 2.15D-07  0.00D+00 EMaxC= 1.00D-01 BMatC= 3.65D-13 BMatP= 2.76D-12
 IDIUse=1 WtCom= 1.00D+00 WtEn= 0.00D+00
 Coeff-Com:  0.372D-04-0.164D-03-0.478D-03-0.563D-03 0.266D-02 0.641D-02
 Coeff-Com:  0.305D-01-0.167D+00-0.354D+00 0.148D+01
 Coeff:      0.372D-04-0.164D-03-0.478D-03-0.563D-03 0.266D-02 0.641D-02
 Coeff:      0.305D-01-0.167D+00-0.354D+00 0.148D+01
 Gap=     0.338 Goal=   None    Shift=    0.000
 RMSDP=8.06D-08 MaxDP=6.98D-07 DE=-1.85D-11 OVMax= 2.93D-06

 Cycle  11  Pass 1  IDiag  1:
 E= -191.792496673969     Delta-E=       -0.000000000005 Rises=F Damp=F
 DIIS: error= 5.26D-08 at cycle  11 NSaved=  11.
 NSaved=11 IEnMin=11 EnMin= -191.792496673969     IErMin=11 ErrMin= 5.26D-08
 ErrMax= 5.26D-08  0.00D+00 EMaxC= 1.00D-01 BMatC= 3.09D-14 BMatP= 3.65D-13
 IDIUse=1 WtCom= 1.00D+00 WtEn= 0.00D+00
 Coeff-Com: -0.894D-05 0.948D-04 0.778D-04-0.107D-02-0.239D-02 0.282D-02
 Coeff-Com:  0.143D-01 0.181D-01-0.708D-01-0.313D+00 0.135D+01
 Coeff:     -0.894D-05 0.948D-04 0.778D-04-0.107D-02-0.239D-02 0.282D-02
 Coeff:      0.143D-01 0.181D-01-0.708D-01-0.313D+00 0.135D+01
 Gap=     0.338 Goal=   None    Shift=    0.000
 RMSDP=2.82D-08 MaxDP=2.81D-07 DE=-4.55D-12 OVMax= 9.50D-07

 Cycle  12  Pass 1  IDiag  1:
 E= -191.792496673968     Delta-E=        0.000000000001 Rises=F Damp=F
 DIIS: error= 5.73D-09 at cycle  12 NSaved=  12.
 NSaved=12 IEnMin=11 EnMin= -191.792496673969     IErMin=12 ErrMin= 5.73D-09
 ErrMax= 5.73D-09  0.00D+00 EMaxC= 1.00D-01 BMatC= 7.84D-16 BMatP= 3.09D-14
 IDIUse=1 WtCom= 1.00D+00 WtEn= 0.00D+00
 Coeff-Com:  0.872D-06-0.169D-04-0.308D-06 0.267D-03 0.524D-03-0.899D-03
 Coeff-Com: -0.507D-02 0.316D-02 0.338D-01 0.114D-01-0.335D+00 0.129D+01
 Coeff:      0.872D-06-0.169D-04-0.308D-06 0.267D-03 0.524D-03-0.899D-03
 Coeff:     -0.507D-02 0.316D-02 0.338D-01 0.114D-01-0.335D+00 0.129D+01
 Gap=     0.338 Goal=   None    Shift=    0.000
 RMSDP=4.43D-09 MaxDP=3.85D-08 DE= 1.14D-12 OVMax= 8.39D-08

 SCF Done:  E(RwB97XD) =  -191.792496674     A.U. after   12 cycles
            NFock= 12  Conv=0.44D-08     -V/T= 2.0058
 KE= 1.906903058213D+02 PE=-6.554025533049D+02 EE= 1.689788825500D+02
 Leave Link  502 at Wed May 12 11:58:27 2021, MaxMem=  2147483648 cpu:         8.1
 (Enter /opt/cluster/programs/g09_d.01/g09/l701.exe)
 Compute integral first derivatives.
 ... and contract with generalized density number  0.
 R6Disp: Adding Grimme-D2 dispersion energy 1st derivatives to the gradient.
 Leave Link  701 at Wed May 12 11:58:27 2021, MaxMem=  2147483648 cpu:         0.6
 (Enter /opt/cluster/programs/g09_d.01/g09/l702.exe)
 L702 exits ... SP integral derivatives will be done elsewhere.
 Leave Link  702 at Wed May 12 11:58:27 2021, MaxMem=  2147483648 cpu:         0.2
 (Enter /opt/cluster/programs/g09_d.01/g09/l703.exe)
 Compute integral first derivatives, UseDBF=F ICtDFT=           0.
 Integral derivatives from FoFJK, PRISM(SPDF).
 Calling FoFJK, ICntrl=      2127 FMM=F ISym2X=0 I1Cent= 0 IOpClX= 0 NMat=1 NMatS=1 NMatT=0.
 FoFJK:  IHMeth= 1 ICntrl=    2127 DoSepK=T KAlg= 0 I1Cent=   0 FoldK=F
 IRaf=         1 NMat=   1 IRICut=       1 DoRegI=T DoRafI=F ISym2E= 0.
 FoFCou: FMM=F IPFlag=           0 FMFlag=      100000 FMFlg1=         800
         NFxFlg=           0 DoJE=F BraDBF=F KetDBF=F FulRan=T
         wScrn=  0.000000 ICntrl=    2527 IOpCl=  0 I1Cent=           0 NGrid=           0
         NMat0=    1 NMatS0=      1 NMatT0=    0 NMatD0=    1 NMtDS0=    0 NMtDT0=    0
 Symmetry not used in FoFCou.
 Leave Link  703 at Wed May 12 11:58:28 2021, MaxMem=  2147483648 cpu:         2.5
 (Enter /opt/cluster/programs/g09_d.01/g09/l716.exe)
 Dipole        =-1.00422490D+00 7.85207400D-01 1.26405240D-01
 ***** Axes restored to original set *****
 -------------------------------------------------------------------
 Center     Atomic                   Forces (Hartrees/Bohr)
 Number     Number              X              Y              Z
 -------------------------------------------------------------------
      1        6           0.000358350    0.001100018   -0.002083481
      2        6           0.001012516   -0.001456891    0.004070249
      3        6          -0.002093280    0.000587295   -0.004817000
      4        8           0.000659690   -0.000224629    0.002552296
      5        1          -0.000043964   -0.000145685    0.000204205
      6        1           0.000076415    0.000109435    0.000007367
      7        1           0.000001645   -0.000007780    0.000053801
      8        1           0.000028629    0.000038237    0.000012563
 -------------------------------------------------------------------
 Cartesian Forces:  Max     0.004817000 RMS     0.001586561
 Leave Link  716 at Wed May 12 11:58:28 2021, MaxMem=  2147483648 cpu:         0.2
 (Enter /opt/cluster/programs/g09_d.01/g09/l103.exe)

 GradGradGradGradGradGradGradGradGradGradGradGradGradGradGradGradGradGrad
 Berny optimization.
 Using GEDIIS/GDIIS optimizer.
 FormGI is forming the generalized inverse of G from B-inverse, IUseBI=4.
 Internal  Forces:  Max     0.002955545 RMS     0.000861421
 Search for a local minimum.
 Step number   2 out of a maximum of   34
 All quantities printed in internal units (Hartrees-Bohrs-Radians)
 RMS Force = .40142D-03 SwitMx=.10000D-02 MixMth= 2
 Mixed Optimization -- En-DIIS/RFO-DIIS
 Update second derivatives using D2CorX and points    1    2
 DE= -1.28D-04 DEPred=-1.31D-04 R= 9.78D-01
 TightC=F SS=  1.41D+00  RLast= 2.70D-02 DXNew= 5.0454D-01 8.1104D-02
 Trust test= 9.78D-01 RLast= 2.70D-02 DXMaxT set to 3.00D-01
 ITU=  1  0
 Use linear search instead of GDIIS.
     Eigenvalues ---    0.01078   0.01835   0.02808   0.02812   0.15939
     Eigenvalues ---    0.15992   0.16000   0.16074   0.21192   0.22092
     Eigenvalues ---    0.33289   0.34907   0.35187   0.35310   0.36454
     Eigenvalues ---    0.61636   0.786691000.000001000.000001000.00000
     Eigenvalues --- 1000.000001000.000001000.000001000.00000
 RFO step:  Lambda=-1.26700073D-05 EMin= 1.07846743D-02
 Quartic linear search produced a step of -0.02721.
 Iteration  1 RMS(Cart)=  0.00450740 RMS(Int)=  0.00003140
 Iteration  2 RMS(Cart)=  0.00002832 RMS(Int)=  0.00001202
 Iteration  3 RMS(Cart)=  0.00000000 RMS(Int)=  0.00001202
 Iteration  1 RMS(Cart)=  0.00000011 RMS(Int)=  0.00000010
 ITry= 1 IFail=0 DXMaxC= 1.51D-02 DCOld= 1.00D+10 DXMaxT= 3.00D-01 DXLimC= 3.00D+00 Rises=F
 Variable       Old X    -DE/DX   Delta X   Delta X   Delta X     New X
                                 (Linear)    (Quad)   (Total)
    R1        2.53125   0.00106   0.00031   0.00097   0.00128   2.53253
    R2        2.04945   0.00007   0.00004   0.00005   0.00010   2.04955
    R3        2.05304   0.00000   0.00002  -0.00005  -0.00003   2.05301
    R4        2.78560   0.00129   0.00011   0.00329   0.00340   2.78901
    R5        2.05448  -0.00003   0.00006  -0.00024  -0.00018   2.05430
    R6        2.34103  -0.00081   0.00033  -0.00183  -0.00151   2.33952
    R7        2.07925   0.00018   0.00014   0.00014   0.00028   2.07953
    A1        2.12352   0.00016   0.00006   0.00078   0.00084   2.12436
    A2        2.10579  -0.00008   0.00003  -0.00055  -0.00052   2.10526
    A3        2.05388  -0.00008  -0.00009  -0.00023  -0.00032   2.05356
    A4        2.13259  -0.00025   0.00023  -0.00187  -0.00164   2.13095
    A5        2.11562   0.00016  -0.00008   0.00047   0.00039   2.11601
    A6        2.03323   0.00015  -0.00016   0.00125   0.00108   2.03431
    A7        2.16876   0.00006   0.00020  -0.00028  -0.00012   2.16865
    A8        2.02781  -0.00004  -0.00014   0.00023   0.00006   2.02787
    A9        2.08639   0.00002  -0.00005   0.00035   0.00026   2.08665
    D1        3.11097   0.00055  -0.00016  -0.00161  -0.00177   3.10920
    D2        0.03511  -0.00057   0.00008   0.00124   0.00133   0.03644
    D3       -0.03395   0.00060  -0.00009  -0.00003  -0.00011  -0.03406
    D4       -3.10981  -0.00052   0.00016   0.00282   0.00298  -3.10683
    D5        0.34908  -0.00296   0.00000   0.00000   0.00000   0.34908
    D6       -2.81515  -0.00038   0.00008   0.01539   0.01547  -2.79967
    D7       -2.85532  -0.00188  -0.00023  -0.00274  -0.00297  -2.85829
    D8        0.26364   0.00069  -0.00014   0.01265   0.01250   0.27614
         Item               Value     Threshold  Converged?
 Maximum Force            0.001295     0.000450     NO 
 RMS     Force            0.000401     0.000300     NO 
 Maximum Displacement     0.015122     0.001800     NO 
 RMS     Displacement     0.004510     0.001200     NO 
 Predicted change in Energy=-6.439099D-06
 Lowest energy point so far.  Saving SCF results.
 GradGradGradGradGradGradGradGradGradGradGradGradGradGradGradGradGradGrad

 Leave Link  103 at Wed May 12 11:58:28 2021, MaxMem=  2147483648 cpu:         0.3
 (Enter /opt/cluster/programs/g09_d.01/g09/l202.exe)
                          Input orientation:                          
 ---------------------------------------------------------------------
 Center     Atomic      Atomic             Coordinates (Angstroms)
 Number     Number       Type             X           Y           Z
 ---------------------------------------------------------------------
      1          6           0        1.485449    0.463043    0.037842
      2          6           0        0.667472   -0.593335   -0.067053
      3          6           0       -0.796802   -0.467774    0.068413
      4          8           0       -1.420847    0.592726   -0.067984
      5          1           0       -1.344348   -1.393946    0.299424
      6          1           0        2.562707    0.359319   -0.033290
      7          1           0        1.084177    1.460018    0.196913
      8          1           0        1.059325   -1.599336   -0.194239
 ---------------------------------------------------------------------
                    Distance matrix (angstroms):
                    1          2          3          4          5
     1  C    0.000000
     2  C    1.340158   0.000000
     3  C    2.464960   1.475879   0.000000
     4  O    2.911112   2.401628   1.238021   0.000000
     5  H    3.394788   2.196066   1.100439   2.021807   0.000000
     6  H    1.084575   2.121462   3.461319   3.990536   4.295313
     7  H    1.086407   2.111771   2.696475   2.664115   3.748780
     8  H    2.118691   1.087089   2.189664   3.312450   2.462425
                    6          7          8
     6  H    0.000000
     7  H    1.857573   0.000000
     8  H    2.474346   3.084357   0.000000
 Stoichiometry    C3H4O
 Framework group  C1[X(C3H4O)]
 Deg. of freedom    18
 Full point group                 C1      NOp   1
 RotChk:  IX=0 Diff= 1.61D-03
 Largest Abelian subgroup         C1      NOp   1
 Largest concise Abelian subgroup C1      NOp   1
                         Standard orientation:                         
 ---------------------------------------------------------------------
 Center     Atomic      Atomic             Coordinates (Angstroms)
 Number     Number       Type             X           Y           Z
 ---------------------------------------------------------------------
      1          6           0       -1.480122   -0.466785    0.038123
      2          6           0       -0.664254    0.591270   -0.066291
      3          6           0        0.800176    0.468754    0.070282
      4          8           0        1.426513   -0.590469   -0.065522
      5          1           0        1.345633    1.396084    0.301588
      6          1           0       -2.557539   -0.365298   -0.033824
      7          1           0       -1.076908   -1.462908    0.197614
      8          1           0       -1.058092    1.596443   -0.193891
 ---------------------------------------------------------------------
 Rotational constants (GHZ):     22.8926592      6.1027078      4.8518699
 Leave Link  202 at Wed May 12 11:58:28 2021, MaxMem=  2147483648 cpu:         0.1
 (Enter /opt/cluster/programs/g09_d.01/g09/l301.exe)
 Standard basis: 6-31+G (6D, 7F)
 Ernie: Thresh=  0.10000D-02 Tol=  0.10000D-05 Strict=F.
 There are    60 symmetry adapted cartesian basis functions of A   symmetry.
 There are    60 symmetry adapted basis functions of A   symmetry.
    60 basis functions,   120 primitive gaussians,    60 cartesian basis functions
    15 alpha electrons       15 beta electrons
       nuclear repulsion energy       103.9220820588 Hartrees.
 IExCor= 4639 DFT=T Ex+Corr=wB97XD ExCW=0 ScaHFX=  1.000000
 ScaDFX=  1.000000  1.000000  1.000000  1.000000 ScalE2=  1.000000  1.000000
 IRadAn=      0 IRanWt=     -1 IRanGd=            0 ICorTp=0 IEmpDi=121
  HFx wShort=  0.000000 wLong=  0.200000 cFull=  0.222036 cShort=  0.000000 cLong=  0.777964
  DFx wShort=  0.000000 wLong=  0.200000 cFull=  0.000000 cShort=  0.000000 cLong=  1.000000
 NAtoms=    8 NActive=    8 NUniq=    8 SFac= 1.00D+00 NAtFMM=   60 NAOKFM=F Big=F
 Integral buffers will be    131072 words long.
 Raffenetti 2 integral format.
 Two-electron integral symmetry is turned on.
 R6Disp:  Grimme-D2 Dispersion energy=       -0.0017702942 Hartrees.
 Nuclear repulsion after empirical dispersion term =      103.9203117646 Hartrees.
 Leave Link  301 at Wed May 12 11:58:28 2021, MaxMem=  2147483648 cpu:         0.3
 (Enter /opt/cluster/programs/g09_d.01/g09/l302.exe)
 NPDir=0 NMtPBC=     1 NCelOv=     1 NCel=       1 NClECP=     1 NCelD=      1
         NCelK=      1 NCelE2=     1 NClLst=     1 CellRange=     0.0.
 One-electron integrals computed using PRISM.
 NBasis=    60 RedAO= T EigKep=  1.31D-04  NBF=    60
 NBsUse=    60 1.00D-06 EigRej= -1.00D+00 NBFU=    60
 Precomputing XC quadrature grid using
 IXCGrd= 4 IRadAn=           0 IRanWt=          -1 IRanGd=           0 AccXCQ= 0.00D+00.
 Generated NRdTot=       0 NPtTot=           0 NUsed=           0 NTot=          32
 NSgBfM=    60    60    60    60    60 MxSgAt=     8 MxSgA2=     8.
 Leave Link  302 at Wed May 12 11:58:28 2021, MaxMem=  2147483648 cpu:         0.8
 (Enter /opt/cluster/programs/g09_d.01/g09/l303.exe)
 DipDrv:  MaxL=1.
 Leave Link  303 at Wed May 12 11:58:28 2021, MaxMem=  2147483648 cpu:         0.2
 (Enter /opt/cluster/programs/g09_d.01/g09/l401.exe)
 Initial guess from the checkpoint file:  "/home/unibas/boittier/RDKit_G2/L.pdb/SCAN_1_2_3_4_S_17_20.0/10_SCAN_1_2_3_4_F/L.pdb.chk"
 B after Tr=     0.000000    0.000000    0.000000
         Rot=    1.000000   -0.000077   -0.000031   -0.000065 Ang=  -0.01 deg.
 Guess basis will be translated and rotated to current coordinates.
 JPrj=2 DoOrth=T DoCkMO=T.
 Leave Link  401 at Wed May 12 11:58:28 2021, MaxMem=  2147483648 cpu:         0.6
 (Enter /opt/cluster/programs/g09_d.01/g09/l502.exe)
 Closed shell SCF:
 Using DIIS extrapolation, IDIIS=  1040.
 Integral symmetry usage will be decided dynamically.
 Keep R1 ints in memory in canonical form, NReq=4262490.
 IVT=       30290 IEndB=       30290 NGot=  2147483648 MDV=  2144102629
 LenX=  2144102629 LenY=  2144098588
 Requested convergence on RMS density matrix=1.00D-08 within 128 cycles.
 Requested convergence on MAX density matrix=1.00D-06.
 Requested convergence on             energy=1.00D-06.
 No special actions if energy rises.
 FoFCou: FMM=F IPFlag=           0 FMFlag=           0 FMFlg1=           0
         NFxFlg=           0 DoJE=F BraDBF=F KetDBF=F FulRan=T
         wScrn=  0.000000 ICntrl=     600 IOpCl=  0 I1Cent=           0 NGrid=           0
         NMat0=    1 NMatS0=   1830 NMatT0=    0 NMatD0=    1 NMtDS0=    0 NMtDT0=    0
 Symmetry not used in FoFCou.

 Cycle   1  Pass 1  IDiag  1:
 E= -191.792479001707    
 DIIS: error= 2.42D-04 at cycle   1 NSaved=   1.
 NSaved= 1 IEnMin= 1 EnMin= -191.792479001707     IErMin= 1 ErrMin= 2.42D-04
 ErrMax= 2.42D-04  0.00D+00 EMaxC= 1.00D-01 BMatC= 6.62D-06 BMatP= 6.62D-06
 IDIUse=3 WtCom= 9.98D-01 WtEn= 2.42D-03
 Coeff-Com:  0.100D+01
 Coeff-En:   0.100D+01
 Coeff:      0.100D+01
 Gap=     0.616 Goal=   None    Shift=    0.000
 RMSDP=1.39D-04 MaxDP=1.50D-03              OVMax= 1.72D-03

 Cycle   2  Pass 1  IDiag  1:
 E= -191.792493999092     Delta-E=       -0.000014997385 Rises=F Damp=F
 DIIS: error= 1.48D-04 at cycle   2 NSaved=   2.
 NSaved= 2 IEnMin= 2 EnMin= -191.792493999092     IErMin= 2 ErrMin= 1.48D-04
 ErrMax= 1.48D-04  0.00D+00 EMaxC= 1.00D-01 BMatC= 9.77D-07 BMatP= 6.62D-06
 IDIUse=3 WtCom= 9.99D-01 WtEn= 1.48D-03
 Coeff-Com:  0.131D-01 0.987D+00
 Coeff-En:   0.000D+00 0.100D+01
 Coeff:      0.131D-01 0.987D+00
 Gap=     0.338 Goal=   None    Shift=    0.000
 RMSDP=4.12D-05 MaxDP=3.19D-04 DE=-1.50D-05 OVMax= 9.70D-04

 Cycle   3  Pass 1  IDiag  1:
 E= -191.792495250886     Delta-E=       -0.000001251794 Rises=F Damp=F
 DIIS: error= 1.48D-04 at cycle   3 NSaved=   3.
 NSaved= 3 IEnMin= 3 EnMin= -191.792495250886     IErMin= 3 ErrMin= 1.48D-04
 ErrMax= 1.48D-04  0.00D+00 EMaxC= 1.00D-01 BMatC= 1.40D-06 BMatP= 9.77D-07
 IDIUse=3 WtCom= 4.51D-01 WtEn= 5.49D-01
 Coeff-Com: -0.145D+00 0.632D+00 0.512D+00
 Coeff-En:   0.000D+00 0.000D+00 0.100D+01
 Coeff:     -0.653D-01 0.285D+00 0.780D+00
 Gap=     0.338 Goal=   None    Shift=    0.000
 RMSDP=4.20D-05 MaxDP=5.21D-04 DE=-1.25D-06 OVMax= 6.69D-04

 Cycle   4  Pass 1  IDiag  1:
 E= -191.792495853572     Delta-E=       -0.000000602686 Rises=F Damp=F
 DIIS: error= 1.50D-04 at cycle   4 NSaved=   4.
 NSaved= 4 IEnMin= 4 EnMin= -191.792495853572     IErMin= 3 ErrMin= 1.48D-04
 ErrMax= 1.50D-04  0.00D+00 EMaxC= 1.00D-01 BMatC= 1.15D-06 BMatP= 9.77D-07
 IDIUse=3 WtCom= 4.49D-01 WtEn= 5.51D-01
 Coeff-Com: -0.188D-01-0.137D+00 0.511D+00 0.645D+00
 Coeff-En:   0.000D+00 0.000D+00 0.361D+00 0.639D+00
 Coeff:     -0.843D-02-0.617D-01 0.428D+00 0.642D+00
 Gap=     0.338 Goal=   None    Shift=    0.000
 RMSDP=2.28D-05 MaxDP=2.57D-04 DE=-6.03D-07 OVMax= 3.47D-04

 Cycle   5  Pass 1  IDiag  1:
 E= -191.792496806340     Delta-E=       -0.000000952768 Rises=F Damp=F
 DIIS: error= 3.37D-05 at cycle   5 NSaved=   5.
 NSaved= 5 IEnMin= 5 EnMin= -191.792496806340     IErMin= 5 ErrMin= 3.37D-05
 ErrMax= 3.37D-05  0.00D+00 EMaxC= 1.00D-01 BMatC= 7.08D-08 BMatP= 9.77D-07
 IDIUse=1 WtCom= 1.00D+00 WtEn= 0.00D+00
 Coeff-Com:  0.321D-01-0.215D+00-0.687D-01 0.303D+00 0.949D+00
 Coeff:      0.321D-01-0.215D+00-0.687D-01 0.303D+00 0.949D+00
 Gap=     0.338 Goal=   None    Shift=    0.000
 RMSDP=1.18D-05 MaxDP=1.20D-04 DE=-9.53D-07 OVMax= 3.86D-04

 Cycle   6  Pass 1  IDiag  1:
 E= -191.792496946934     Delta-E=       -0.000000140594 Rises=F Damp=F
 DIIS: error= 1.25D-05 at cycle   6 NSaved=   6.
 NSaved= 6 IEnMin= 6 EnMin= -191.792496946934     IErMin= 6 ErrMin= 1.25D-05
 ErrMax= 1.25D-05  0.00D+00 EMaxC= 1.00D-01 BMatC= 1.92D-09 BMatP= 7.08D-08
 IDIUse=1 WtCom= 1.00D+00 WtEn= 0.00D+00
 Coeff-Com:  0.731D-02-0.867D-03-0.107D+00-0.815D-01 0.121D+00 0.106D+01
 Coeff:      0.731D-02-0.867D-03-0.107D+00-0.815D-01 0.121D+00 0.106D+01
 Gap=     0.338 Goal=   None    Shift=    0.000
 RMSDP=4.37D-06 MaxDP=3.70D-05 DE=-1.41D-07 OVMax= 1.59D-04

 Cycle   7  Pass 1  IDiag  1:
 E= -191.792496961471     Delta-E=       -0.000000014537 Rises=F Damp=F
 DIIS: error= 4.20D-06 at cycle   7 NSaved=   7.
 NSaved= 7 IEnMin= 7 EnMin= -191.792496961471     IErMin= 7 ErrMin= 4.20D-06
 ErrMax= 4.20D-06  0.00D+00 EMaxC= 1.00D-01 BMatC= 5.51D-10 BMatP= 1.92D-09
 IDIUse=1 WtCom= 1.00D+00 WtEn= 0.00D+00
 Coeff-Com: -0.377D-02 0.451D-01-0.313D-01-0.986D-01-0.150D+00 0.446D+00
 Coeff-Com:  0.793D+00
 Coeff:     -0.377D-02 0.451D-01-0.313D-01-0.986D-01-0.150D+00 0.446D+00
 Coeff:      0.793D+00
 Gap=     0.338 Goal=   None    Shift=    0.000
 RMSDP=1.75D-06 MaxDP=1.40D-05 DE=-1.45D-08 OVMax= 5.97D-05

 Cycle   8  Pass 1  IDiag  1:
 E= -191.792496963586     Delta-E=       -0.000000002115 Rises=F Damp=F
 DIIS: error= 9.12D-07 at cycle   8 NSaved=   8.
 NSaved= 8 IEnMin= 8 EnMin= -191.792496963586     IErMin= 8 ErrMin= 9.12D-07
 ErrMax= 9.12D-07  0.00D+00 EMaxC= 1.00D-01 BMatC= 2.94D-11 BMatP= 5.51D-10
 IDIUse=1 WtCom= 1.00D+00 WtEn= 0.00D+00
 Coeff-Com: -0.705D-03-0.182D-02 0.153D-01 0.150D-01-0.820D-02-0.176D+00
 Coeff-Com:  0.801D-02 0.115D+01
 Coeff:     -0.705D-03-0.182D-02 0.153D-01 0.150D-01-0.820D-02-0.176D+00
 Coeff:      0.801D-02 0.115D+01
 Gap=     0.338 Goal=   None    Shift=    0.000
 RMSDP=5.12D-07 MaxDP=5.61D-06 DE=-2.12D-09 OVMax= 1.59D-05

 Cycle   9  Pass 1  IDiag  1:
 E= -191.792496963736     Delta-E=       -0.000000000150 Rises=F Damp=F
 DIIS: error= 2.10D-07 at cycle   9 NSaved=   9.
 NSaved= 9 IEnMin= 9 EnMin= -191.792496963736     IErMin= 9 ErrMin= 2.10D-07
 ErrMax= 2.10D-07  0.00D+00 EMaxC= 1.00D-01 BMatC= 1.45D-12 BMatP= 2.94D-11
 IDIUse=1 WtCom= 1.00D+00 WtEn= 0.00D+00
 Coeff-Com:  0.307D-04-0.253D-02 0.451D-02 0.763D-02 0.604D-02-0.580D-01
 Coeff-Com: -0.284D-01 0.208D+00 0.862D+00
 Coeff:      0.307D-04-0.253D-02 0.451D-02 0.763D-02 0.604D-02-0.580D-01
 Coeff:     -0.284D-01 0.208D+00 0.862D+00
 Gap=     0.338 Goal=   None    Shift=    0.000
 RMSDP=5.64D-08 MaxDP=4.31D-07 DE=-1.50D-10 OVMax= 1.28D-06

 Cycle  10  Pass 1  IDiag  1:
 E= -191.792496963740     Delta-E=       -0.000000000003 Rises=F Damp=F
 DIIS: error= 7.05D-08 at cycle  10 NSaved=  10.
 NSaved=10 IEnMin=10 EnMin= -191.792496963740     IErMin=10 ErrMin= 7.05D-08
 ErrMax= 7.05D-08  0.00D+00 EMaxC= 1.00D-01 BMatC= 1.45D-13 BMatP= 1.45D-12
 IDIUse=1 WtCom= 1.00D+00 WtEn= 0.00D+00
 Coeff-Com:  0.857D-04-0.772D-04-0.133D-02-0.849D-03 0.196D-02 0.132D-01
 Coeff-Com: -0.547D-03-0.120D+00 0.939D-01 0.101D+01
 Coeff:      0.857D-04-0.772D-04-0.133D-02-0.849D-03 0.196D-02 0.132D-01
 Coeff:     -0.547D-03-0.120D+00 0.939D-01 0.101D+01
 Gap=     0.338 Goal=   None    Shift=    0.000
 RMSDP=3.88D-08 MaxDP=3.79D-07 DE=-3.35D-12 OVMax= 3.62D-07

 Cycle  11  Pass 1  IDiag  1:
 E= -191.792496963739     Delta-E=        0.000000000001 Rises=F Damp=F
 DIIS: error= 8.83D-09 at cycle  11 NSaved=  11.
 NSaved=11 IEnMin=10 EnMin= -191.792496963740     IErMin=11 ErrMin= 8.83D-09
 ErrMax= 8.83D-09  0.00D+00 EMaxC= 1.00D-01 BMatC= 3.47D-15 BMatP= 1.45D-13
 IDIUse=1 WtCom= 1.00D+00 WtEn= 0.00D+00
 Coeff-Com: -0.141D-04 0.107D-03 0.104D-04-0.164D-03-0.411D-03-0.287D-03
 Coeff-Com:  0.222D-02 0.928D-02-0.453D-01-0.151D+00 0.119D+01
 Coeff:     -0.141D-04 0.107D-03 0.104D-04-0.164D-03-0.411D-03-0.287D-03
 Coeff:      0.222D-02 0.928D-02-0.453D-01-0.151D+00 0.119D+01
 Gap=     0.338 Goal=   None    Shift=    0.000
 RMSDP=9.95D-09 MaxDP=1.04D-07 DE= 5.12D-13 OVMax= 6.52D-08

 SCF Done:  E(RwB97XD) =  -191.792496964     A.U. after   11 cycles
            NFock= 11  Conv=0.10D-07     -V/T= 2.0058
 KE= 1.906873678002D+02 PE=-6.553581618947D+02 EE= 1.689579853661D+02
 Leave Link  502 at Wed May 12 11:58:29 2021, MaxMem=  2147483648 cpu:         7.5
 (Enter /opt/cluster/programs/g09_d.01/g09/l701.exe)
 Compute integral first derivatives.
 ... and contract with generalized density number  0.
 R6Disp: Adding Grimme-D2 dispersion energy 1st derivatives to the gradient.
 Leave Link  701 at Wed May 12 11:58:29 2021, MaxMem=  2147483648 cpu:         0.6
 (Enter /opt/cluster/programs/g09_d.01/g09/l702.exe)
 L702 exits ... SP integral derivatives will be done elsewhere.
 Leave Link  702 at Wed May 12 11:58:29 2021, MaxMem=  2147483648 cpu:         0.2
 (Enter /opt/cluster/programs/g09_d.01/g09/l703.exe)
 Compute integral first derivatives, UseDBF=F ICtDFT=           0.
 Integral derivatives from FoFJK, PRISM(SPDF).
 Calling FoFJK, ICntrl=      2127 FMM=F ISym2X=0 I1Cent= 0 IOpClX= 0 NMat=1 NMatS=1 NMatT=0.
 FoFJK:  IHMeth= 1 ICntrl=    2127 DoSepK=T KAlg= 0 I1Cent=   0 FoldK=F
 IRaf=         1 NMat=   1 IRICut=       1 DoRegI=T DoRafI=F ISym2E= 0.
 FoFCou: FMM=F IPFlag=           0 FMFlag=      100000 FMFlg1=         800
         NFxFlg=           0 DoJE=F BraDBF=F KetDBF=F FulRan=T
         wScrn=  0.000000 ICntrl=    2527 IOpCl=  0 I1Cent=           0 NGrid=           0
         NMat0=    1 NMatS0=      1 NMatT0=    0 NMatD0=    1 NMtDS0=    0 NMtDT0=    0
 Symmetry not used in FoFCou.
 Leave Link  703 at Wed May 12 11:58:30 2021, MaxMem=  2147483648 cpu:         2.5
 (Enter /opt/cluster/programs/g09_d.01/g09/l716.exe)
 Dipole        =-1.00090624D+00 7.84844383D-01 1.29767170D-01
 ***** Axes restored to original set *****
 -------------------------------------------------------------------
 Center     Atomic                   Forces (Hartrees/Bohr)
 Number     Number              X              Y              Z
 -------------------------------------------------------------------
      1        6          -0.000147742    0.000479791   -0.002077976
      2        6           0.000544839   -0.000684831    0.003872813
      3        6          -0.000579138   -0.000062708   -0.003125672
      4        8           0.000185790    0.000474091    0.001873522
      5        1          -0.000012886   -0.000247443   -0.000427569
      6        1           0.000027124    0.000018856    0.000022567
      7        1          -0.000012649    0.000024966   -0.000049042
      8        1          -0.000005338   -0.000002721   -0.000088644
 -------------------------------------------------------------------
 Cartesian Forces:  Max     0.003872813 RMS     0.001198436
 Leave Link  716 at Wed May 12 11:58:32 2021, MaxMem=  2147483648 cpu:         0.2
 (Enter /opt/cluster/programs/g09_d.01/g09/l103.exe)

 GradGradGradGradGradGradGradGradGradGradGradGradGradGradGradGradGradGrad
 Berny optimization.
 Using GEDIIS/GDIIS optimizer.
 FormGI is forming the generalized inverse of G from B-inverse, IUseBI=4.
 Internal  Forces:  Max     0.002417328 RMS     0.000649033
 Search for a local minimum.
 Step number   3 out of a maximum of   34
 All quantities printed in internal units (Hartrees-Bohrs-Radians)
 RMS Force = .17154D-03 SwitMx=.10000D-02 MixMth= 2
 Mixed Optimization -- En-DIIS/RFO-DIIS
 Swapping is turned off.
 Update second derivatives using D2CorX and points    1    2    3
 DE= -2.90D-07 DEPred=-6.44D-06 R= 4.50D-02
 Trust test= 4.50D-02 RLast= 2.10D-02 DXMaxT set to 1.50D-01
 ITU= -1  1  0
     Eigenvalues ---    0.01639   0.02738   0.02804   0.04090   0.14619
     Eigenvalues ---    0.15987   0.16031   0.16153   0.17318   0.22103
     Eigenvalues ---    0.30350   0.33584   0.35070   0.35199   0.35388
     Eigenvalues ---    0.58715   0.746561000.000001000.000001000.00000
     Eigenvalues --- 1000.000001000.000001000.000001000.00000
 En-DIIS/RFO-DIIS IScMMF=        0 using points:     3    2
 RFO step:  Lambda=-3.13606885D-06.
 NNeg= 0 NP= 2 Switch=  2.50D-03 Rises=F DC=  2.90D-07 SmlDif=  1.00D-05
 RMS Error=  0.7451030698D-03 NUsed= 2 EDIIS=F
 DidBck=T Rises=F RFO-DIIS coefs:    0.50986    0.49014
 Iteration  1 RMS(Cart)=  0.00356444 RMS(Int)=  0.00002041
 Iteration  2 RMS(Cart)=  0.00002034 RMS(Int)=  0.00000363
 Iteration  3 RMS(Cart)=  0.00000000 RMS(Int)=  0.00000363
 Iteration  1 RMS(Cart)=  0.00000028 RMS(Int)=  0.00000026
 ITry= 1 IFail=0 DXMaxC= 1.16D-02 DCOld= 1.00D+10 DXMaxT= 1.50D-01 DXLimC= 3.00D+00 Rises=F
 Variable       Old X    -DE/DX   Delta X   Delta X   Delta X     New X
                                 (Linear)    (Quad)   (Total)
    R1        2.53253   0.00017  -0.00063   0.00120   0.00058   2.53311
    R2        2.04955   0.00002  -0.00005   0.00010   0.00005   2.04960
    R3        2.05301   0.00002   0.00002  -0.00002  -0.00001   2.05300
    R4        2.78901   0.00026  -0.00167   0.00391   0.00224   2.79124
    R5        2.05430   0.00001   0.00009  -0.00024  -0.00015   2.05415
    R6        2.33952   0.00011   0.00074  -0.00188  -0.00114   2.33838
    R7        2.07953   0.00012  -0.00014   0.00035   0.00021   2.07974
    A1        2.12436   0.00003  -0.00041   0.00095   0.00053   2.12489
    A2        2.10526  -0.00002   0.00026  -0.00065  -0.00039   2.10487
    A3        2.05356  -0.00001   0.00015  -0.00030  -0.00014   2.05342
    A4        2.13095  -0.00015   0.00081  -0.00230  -0.00149   2.12945
    A5        2.11601   0.00016  -0.00019   0.00085   0.00065   2.11666
    A6        2.03431   0.00006  -0.00053   0.00157   0.00104   2.03535
    A7        2.16865   0.00001   0.00006  -0.00036  -0.00031   2.16833
    A8        2.02787  -0.00011  -0.00003  -0.00026  -0.00029   2.02758
    A9        2.08665   0.00011  -0.00013   0.00058   0.00044   2.08709
    D1        3.10920   0.00055   0.00087   0.00039   0.00126   3.11046
    D2        0.03644  -0.00061  -0.00065  -0.00183  -0.00248   0.03395
    D3       -0.03406   0.00053   0.00005   0.00172   0.00177  -0.03229
    D4       -3.10683  -0.00063  -0.00146  -0.00051  -0.00197  -3.10880
    D5        0.34908  -0.00242   0.00000   0.00000   0.00000   0.34908
    D6       -2.79967  -0.00100  -0.00758  -0.00614  -0.01373  -2.81340
    D7       -2.85829  -0.00130   0.00146   0.00211   0.00357  -2.85472
    D8        0.27614   0.00012  -0.00613  -0.00403  -0.01016   0.26598
         Item               Value     Threshold  Converged?
 Maximum Force            0.000531     0.000450     NO 
 RMS     Force            0.000172     0.000300     YES
 Maximum Displacement     0.011607     0.001800     NO 
 RMS     Displacement     0.003566     0.001200     NO 
 Predicted change in Energy=-6.657488D-06
 Lowest energy point so far.  Saving SCF results.
 GradGradGradGradGradGradGradGradGradGradGradGradGradGradGradGradGradGrad

 Leave Link  103 at Wed May 12 11:58:32 2021, MaxMem=  2147483648 cpu:         0.2
 (Enter /opt/cluster/programs/g09_d.01/g09/l202.exe)
                          Input orientation:                          
 ---------------------------------------------------------------------
 Center     Atomic      Atomic             Coordinates (Angstroms)
 Number     Number       Type             X           Y           Z
[...]
 RMSDP=3.67D-08 MaxDP=3.23D-07 DE=-1.07D-11 OVMax= 1.02D-06

 Cycle  10  Pass 1  IDiag  1:
 E= -191.792502355836     Delta-E=       -0.000000000001 Rises=F Damp=F
 DIIS: error= 1.91D-08 at cycle  10 NSaved=  10.
 NSaved=10 IEnMin=10 EnMin= -191.792502355836     IErMin=10 ErrMin= 1.91D-08
 ErrMax= 1.91D-08  0.00D+00 EMaxC= 1.00D-01 BMatC= 1.01D-14 BMatP= 1.96D-13
 IDIUse=1 WtCom= 1.00D+00 WtEn= 0.00D+00
 Coeff-Com:  0.582D-04-0.156D-03-0.467D-03-0.149D-02-0.952D-04 0.156D-01
 Coeff-Com:  0.687D-02-0.119D+00-0.161D-01 0.111D+01
 Coeff:      0.582D-04-0.156D-03-0.467D-03-0.149D-02-0.952D-04 0.156D-01
 Coeff:      0.687D-02-0.119D+00-0.161D-01 0.111D+01
 Gap=     0.338 Goal=   None    Shift=    0.000
 RMSDP=1.08D-08 MaxDP=1.18D-07 DE=-1.31D-12 OVMax= 1.59D-07

 Cycle  11  Pass 1  IDiag  1:
 E= -191.792502355836     Delta-E=        0.000000000001 Rises=F Damp=F
 DIIS: error= 3.47D-09 at cycle  11 NSaved=  11.
 NSaved=11 IEnMin=10 EnMin= -191.792502355836     IErMin=11 ErrMin= 3.47D-09
 ErrMax= 3.47D-09  0.00D+00 EMaxC= 1.00D-01 BMatC= 2.55D-16 BMatP= 1.01D-14
 IDIUse=1 WtCom= 1.00D+00 WtEn= 0.00D+00
 Coeff-Com: -0.846D-05 0.891D-04 0.480D-04-0.482D-03-0.120D-02 0.264D-02
 Coeff-Com:  0.378D-02-0.380D-02-0.348D-01-0.599D-01 0.109D+01
 Coeff:     -0.846D-05 0.891D-04 0.480D-04-0.482D-03-0.120D-02 0.264D-02
 Coeff:      0.378D-02-0.380D-02-0.348D-01-0.599D-01 0.109D+01
 Gap=     0.338 Goal=   None    Shift=    0.000
 RMSDP=2.68D-09 MaxDP=3.42D-08 DE= 5.68D-13 OVMax= 2.39D-08

 SCF Done:  E(RwB97XD) =  -191.792502356     A.U. after   11 cycles
            NFock= 11  Conv=0.27D-08     -V/T= 2.0058
 KE= 1.906856355190D+02 PE=-6.553370995781D+02 EE= 1.689486238546D+02
 Leave Link  502 at Wed May 12 11:58:35 2021, MaxMem=  2147483648 cpu:         7.5
 (Enter /opt/cluster/programs/g09_d.01/g09/l701.exe)
 Compute integral first derivatives.
 ... and contract with generalized density number  0.
 R6Disp: Adding Grimme-D2 dispersion energy 1st derivatives to the gradient.
 Leave Link  701 at Wed May 12 11:58:35 2021, MaxMem=  2147483648 cpu:         0.6
 (Enter /opt/cluster/programs/g09_d.01/g09/l702.exe)
 L702 exits ... SP integral derivatives will be done elsewhere.
 Leave Link  702 at Wed May 12 11:58:35 2021, MaxMem=  2147483648 cpu:         0.2
 (Enter /opt/cluster/programs/g09_d.01/g09/l703.exe)
 Compute integral first derivatives, UseDBF=F ICtDFT=           0.
 Integral derivatives from FoFJK, PRISM(SPDF).
 Calling FoFJK, ICntrl=      2127 FMM=F ISym2X=0 I1Cent= 0 IOpClX= 0 NMat=1 NMatS=1 NMatT=0.
 FoFJK:  IHMeth= 1 ICntrl=    2127 DoSepK=T KAlg= 0 I1Cent=   0 FoldK=F
 IRaf=         1 NMat=   1 IRICut=       1 DoRegI=T DoRafI=F ISym2E= 0.
 FoFCou: FMM=F IPFlag=           0 FMFlag=      100000 FMFlg1=         800
         NFxFlg=           0 DoJE=F BraDBF=F KetDBF=F FulRan=T
         wScrn=  0.000000 ICntrl=    2527 IOpCl=  0 I1Cent=           0 NGrid=           0
         NMat0=    1 NMatS0=      1 NMatT0=    0 NMatD0=    1 NMtDS0=    0 NMtDT0=    0
 Symmetry not used in FoFCou.
 Leave Link  703 at Wed May 12 11:58:35 2021, MaxMem=  2147483648 cpu:         2.4
 (Enter /opt/cluster/programs/g09_d.01/g09/l716.exe)
 Dipole        =-1.00036743D+00 7.84804012D-01 1.27519073D-01
 ***** Axes restored to original set *****
 -------------------------------------------------------------------
 Center     Atomic                   Forces (Hartrees/Bohr)
 Number     Number              X              Y              Z
 -------------------------------------------------------------------
      1        6          -0.000176889    0.000319183   -0.002120989
      2        6           0.000388997   -0.000265007    0.004173044
      3        6          -0.000435665   -0.000511594   -0.004372078
      4        8           0.000240580    0.000456744    0.002311175
      5        1           0.000005552   -0.000005269    0.000003891
      6        1          -0.000000139    0.000006027   -0.000001600
      7        1          -0.000007679   -0.000001842    0.000016438
      8        1          -0.000014758    0.000001757   -0.000009881
 -------------------------------------------------------------------
 Cartesian Forces:  Max     0.004372078 RMS     0.001405984
 Leave Link  716 at Wed May 12 11:58:35 2021, MaxMem=  2147483648 cpu:         0.2
 (Enter /opt/cluster/programs/g09_d.01/g09/l103.exe)

 GradGradGradGradGradGradGradGradGradGradGradGradGradGradGradGradGradGrad
 Berny optimization.
 Using GEDIIS/GDIIS optimizer.
 FormGI is forming the generalized inverse of G from B-inverse, IUseBI=4.
 Internal  Forces:  Max     0.002815651 RMS     0.000730324
 Search for a local minimum.
 Step number   5 out of a maximum of   34
 All quantities printed in internal units (Hartrees-Bohrs-Radians)
 RMS Force = .91454D-05 SwitMx=.10000D-02 MixMth= 2
 Mixed Optimization -- En-DIIS/RFO-DIIS
 Swapping is turned off.
 Update second derivatives using D2CorX and points    1    2    3    4    5
 DE= -1.19D-06 DEPred=-1.18D-06 R= 1.01D+00
 TightC=F SS=  1.41D+00  RLast= 4.25D-03 DXNew= 2.5227D-01 1.2736D-02
 Trust test= 1.01D+00 RLast= 4.25D-03 DXMaxT set to 1.50D-01
 ITU=  1  1 -1  1  0
     Eigenvalues ---    0.01631   0.02779   0.02986   0.04870   0.14902
     Eigenvalues ---    0.15820   0.16027   0.16261   0.19236   0.22011
     Eigenvalues ---    0.33089   0.33579   0.35096   0.35198   0.35377
     Eigenvalues ---    0.61962   0.804951000.000001000.000001000.00000
     Eigenvalues --- 1000.000001000.000001000.000001000.00000
 En-DIIS/RFO-DIIS IScMMF=        0 using points:     5    4    3    2
 RFO step:  Lambda=-4.09973213D-07.
 NNeg= 0 NP= 4 Switch=  2.50D-03 Rises=F DC=  2.90D-07 SmlDif=  1.00D-05
 RMS Error=  0.3687631279D-04 NUsed= 4 EDIIS=F
 DidBck=F Rises=F RFO-DIIS coefs:    0.96585    0.01661    0.00762    0.00991
 Iteration  1 RMS(Cart)=  0.00011382 RMS(Int)=  0.00000036
 Iteration  2 RMS(Cart)=  0.00000002 RMS(Int)=  0.00000036
 Iteration  1 RMS(Cart)=  0.00000025 RMS(Int)=  0.00000022
 ITry= 1 IFail=0 DXMaxC= 3.25D-04 DCOld= 1.00D+10 DXMaxT= 1.50D-01 DXLimC= 3.00D+00 Rises=F
 Variable       Old X    -DE/DX   Delta X   Delta X   Delta X     New X
                                 (Linear)    (Quad)   (Total)
    R1        2.53283  -0.00002  -0.00001  -0.00002  -0.00004   2.53279
    R2        2.04962   0.00000   0.00000   0.00000   0.00000   2.04962
    R3        2.05307   0.00000   0.00000   0.00001   0.00001   2.05308
    R4        2.79001  -0.00001  -0.00003   0.00000  -0.00003   2.78998
    R5        2.05427  -0.00001   0.00000  -0.00001  -0.00001   2.05426
    R6        2.33953   0.00002   0.00000   0.00004   0.00003   2.33956
    R7        2.07989   0.00000  -0.00001   0.00001   0.00000   2.07989
    A1        2.12468   0.00001  -0.00001   0.00007   0.00005   2.12474
    A2        2.10504  -0.00001   0.00001  -0.00007  -0.00007   2.10497
    A3        2.05346   0.00000   0.00000   0.00001   0.00001   2.05348
    A4        2.13014   0.00001   0.00002  -0.00005  -0.00003   2.13010
    A5        2.11665   0.00008  -0.00001   0.00013   0.00011   2.11676
    A6        2.03461  -0.00003   0.00000  -0.00008  -0.00008   2.03452
    A7        2.16865   0.00002   0.00000   0.00003   0.00002   2.16867
    A8        2.02705   0.00001   0.00002  -0.00005  -0.00003   2.02702
    A9        2.08735   0.00001  -0.00002   0.00002   0.00001   2.08735
    D1        3.11036   0.00056   0.00000  -0.00037  -0.00037   3.10999
    D2        0.03524  -0.00057  -0.00001  -0.00025  -0.00026   0.03498
    D3       -0.03395   0.00058   0.00003   0.00025   0.00028  -0.03368
    D4       -3.10907  -0.00056   0.00001   0.00037   0.00039  -3.10868
    D5        0.34908  -0.00282   0.00000   0.00000   0.00000   0.34908
    D6       -2.81095  -0.00054   0.00000  -0.00001  -0.00001  -2.81096
    D7       -2.85603  -0.00173   0.00001  -0.00011  -0.00010  -2.85613
    D8        0.26712   0.00054   0.00002  -0.00012  -0.00011   0.26702
         Item               Value     Threshold  Converged?
 Maximum Force            0.000020     0.000450     YES
 RMS     Force            0.000009     0.000300     YES
 Maximum Displacement     0.000325     0.001800     YES
 RMS     Displacement     0.000114     0.001200     YES
 Predicted change in Energy=-9.771265D-09
 Optimization completed.
    -- Stationary point found.
                           ----------------------------
                           !   Optimized Parameters   !
                           ! (Angstroms and Degrees)  !
 --------------------------                            --------------------------
 ! Name  Definition              Value          Derivative Info.                !
 --------------------------------------------------------------------------------
 ! R1    R(1,2)                  1.3403         -DE/DX =    0.0                 !
 ! R2    R(1,6)                  1.0846         -DE/DX =    0.0                 !
 ! R3    R(1,7)                  1.0864         -DE/DX =    0.0                 !
 ! R4    R(2,3)                  1.4764         -DE/DX =    0.0                 !
 ! R5    R(2,8)                  1.0871         -DE/DX =    0.0                 !
 ! R6    R(3,4)                  1.238          -DE/DX =    0.0                 !
 ! R7    R(3,5)                  1.1006         -DE/DX =    0.0                 !
 ! A1    A(2,1,6)              121.7353         -DE/DX =    0.0                 !
 ! A2    A(2,1,7)              120.6097         -DE/DX =    0.0                 !
 ! A3    A(6,1,7)              117.6548         -DE/DX =    0.0                 !
 ! A4    A(1,2,3)              122.0479         -DE/DX =    0.0                 !
 ! A5    A(1,2,8)              121.2752         -DE/DX =    0.0001              !
 ! A6    A(3,2,8)              116.5744         -DE/DX =    0.0                 !
 ! A7    A(2,3,4)              124.2543         -DE/DX =    0.0                 !
 ! A8    A(2,3,5)              116.1413         -DE/DX =    0.0                 !
 ! A9    A(4,3,5)              119.5961         -DE/DX =    0.0                 !
 ! D1    D(6,1,2,3)            178.2103         -DE/DX =    0.0006              !
 ! D2    D(6,1,2,8)              2.0192         -DE/DX =   -0.0006              !
 ! D3    D(7,1,2,3)             -1.9453         -DE/DX =    0.0006              !
 ! D4    D(7,1,2,8)           -178.1365         -DE/DX =   -0.0006              !
 ! D5    D(1,2,3,4)             20.0011         -DE/DX =   -0.0028              !
 ! D6    D(1,2,3,5)           -161.0554         -DE/DX =   -0.0005              !
 ! D7    D(8,2,3,4)           -163.6386         -DE/DX =   -0.0017              !
 ! D8    D(8,2,3,5)             15.3049         -DE/DX =    0.0005              !
 --------------------------------------------------------------------------------
 Lowest energy point so far.  Saving SCF results.
 GradGradGradGradGradGradGradGradGradGradGradGradGradGradGradGradGradGrad

 Largest change from initial coordinates is atom    7       0.007 Angstoms.
 Leave Link  103 at Wed May 12 11:58:35 2021, MaxMem=  2147483648 cpu:         0.1
 (Enter /opt/cluster/programs/g09_d.01/g09/l202.exe)
                          Input orientation:                          
 ---------------------------------------------------------------------
 Center     Atomic      Atomic             Coordinates (Angstroms)
 Number     Number       Type             X           Y           Z
 ---------------------------------------------------------------------
      1          6           0        1.485666    0.463118    0.037689
      2          6           0        0.667814   -0.593798   -0.064743
      3          6           0       -0.796820   -0.467154    0.071618
      4          8           0       -1.420406    0.593414   -0.066361
      5          1           0       -1.345184   -1.395187    0.293965
      6          1           0        2.562924    0.360036   -0.034922
      7          1           0        1.083991    1.460203    0.195251
      8          1           0        1.059149   -1.599917   -0.192469
 ---------------------------------------------------------------------
                    Distance matrix (angstroms):
                    1          2          3          4          5
     1  C    0.000000
     2  C    1.340316   0.000000
     3  C    2.465015   1.476409   0.000000
     4  O    2.910852   2.402111   1.238024   0.000000
     5  H    3.395981   2.196146   1.100630   2.022381   0.000000
     6  H    1.084611   2.121822   3.461715   3.990285   4.296776
     7  H    1.086438   2.111805   2.695819   2.663038   3.750185
     8  H    2.119199   1.087075   2.190322   3.312823   2.461575
                    6          7          8
     6  H    0.000000
     7  H    1.857576   0.000000
     8  H    2.475394   3.084684   0.000000
 Stoichiometry    C3H4O
 Framework group  C1[X(C3H4O)]
 Deg. of freedom    18
 Full point group                 C1      NOp   1
 RotChk:  IX=0 Diff= 4.24D-16
 Largest Abelian subgroup         C1      NOp   1
 Largest concise Abelian subgroup C1      NOp   1
                         Standard orientation:                         
 ---------------------------------------------------------------------
 Center     Atomic      Atomic             Coordinates (Angstroms)
 Number     Number       Type             X           Y           Z
 ---------------------------------------------------------------------
      1          6           0       -1.480038   -0.466921    0.037723
      2          6           0       -0.664550    0.591767   -0.065269
      3          6           0        0.800333    0.468530    0.071531
      4          8           0        1.426347   -0.590726   -0.065541
      5          1           0        1.346546    1.397957    0.293345
      6          1           0       -2.557508   -0.366325   -0.035218
      7          1           0       -1.076150   -1.462983    0.196094
      8          1           0       -1.058126    1.596907   -0.193809
 ---------------------------------------------------------------------
 Rotational constants (GHZ):     22.8791725      6.1032085      4.8510914
 Leave Link  202 at Wed May 12 11:58:35 2021, MaxMem=  2147483648 cpu:         0.1
 (Enter /opt/cluster/programs/g09_d.01/g09/l601.exe)
 Copying SCF densities to generalized density rwf, IOpCl= 0 IROHF=0.

 **********************************************************************

            Population analysis using the SCF density.

 **********************************************************************

 Orbital symmetries:
       Occupied  (A) (A) (A) (A) (A) (A) (A) (A) (A) (A) (A) (A)
                 (A) (A) (A)
       Virtual   (A) (A) (A) (A) (A) (A) (A) (A) (A) (A) (A) (A)
                 (A) (A) (A) (A) (A) (A) (A) (A) (A) (A) (A) (A)
                 (A) (A) (A) (A) (A) (A) (A) (A) (A) (A) (A) (A)
                 (A) (A) (A) (A) (A) (A) (A) (A) (A)
 The electronic state is 1-A.
 Alpha  occ. eigenvalues --  -19.28686 -10.40450 -10.33197 -10.32850  -1.16951
 Alpha  occ. eigenvalues --   -0.91003  -0.76977  -0.65142  -0.61530  -0.54495
 Alpha  occ. eigenvalues --   -0.52662  -0.49149  -0.47721  -0.37678  -0.35237
 Alpha virt. eigenvalues --   -0.01423   0.06978   0.08170   0.09564   0.10337
 Alpha virt. eigenvalues --    0.11701   0.12622   0.13199   0.15025   0.16043
 Alpha virt. eigenvalues --    0.17597   0.18015   0.20262   0.22218   0.26113
 Alpha virt. eigenvalues --    0.28151   0.31437   0.32436   0.32719   0.34561
 Alpha virt. eigenvalues --    0.36735   0.39160   0.41691   0.46260   0.53873
 Alpha virt. eigenvalues --    0.71421   0.72995   0.77038   0.79006   0.80648
 Alpha virt. eigenvalues --    0.82955   0.88891   0.98758   1.02511   1.05256
 Alpha virt. eigenvalues --    1.10750   1.14050   1.22773   1.23492   1.28913
 Alpha virt. eigenvalues --    1.31372   1.39463   1.41585   1.42772   1.91760
          Condensed to atoms (all electrons):
               1          2          3          4          5          6
     1  C    5.202398   0.314736   0.074453   0.054784   0.040623   0.359611
     2  C    0.314736   5.942845  -0.055780  -0.225165  -0.171771  -0.025822
     3  C    0.074453  -0.055780   5.162586   0.327864   0.395990   0.011904
     4  O    0.054784  -0.225165   0.327864   8.340442  -0.068605   0.000795
     5  H    0.040623  -0.171771   0.395990  -0.068605   0.624306  -0.000061
     6  H    0.359611  -0.025822   0.011904   0.000795  -0.000061   0.473272
     7  H    0.392304  -0.052636   0.004746   0.000418   0.000125  -0.022222
     8  H    0.005161   0.300185   0.003988   0.004968   0.001179  -0.002953
               7          8
     1  C    0.392304   0.005161
     2  C   -0.052636   0.300185
     3  C    0.004746   0.003988
     4  O    0.000418   0.004968
     5  H    0.000125   0.001179
     6  H   -0.022222  -0.002953
     7  H    0.440673   0.002470
     8  H    0.002470   0.470900
 Mulliken charges:
               1
     1  C   -0.444071
     2  C   -0.026591
     3  C    0.074248
     4  O   -0.435501
     5  H    0.178215
     6  H    0.205476
     7  H    0.234122
     8  H    0.214103
 Sum of Mulliken charges =   0.00000
 Mulliken charges with hydrogens summed into heavy atoms:
               1
     1  C   -0.004473
     2  C    0.187511
     3  C    0.252463
     4  O   -0.435501
 Electronic spatial extent (au):  <R**2>=            272.2212
 Charge=              0.0000 electrons
 Dipole moment (field-independent basis, Debye):
    X=             -2.5427    Y=              1.9948    Z=              0.3241  Tot=              3.2480
 Quadrupole moment (field-independent basis, Debye-Ang):
   XX=            -24.8926   YY=            -22.4790   ZZ=            -25.2856
   XY=              3.6986   XZ=              0.5335   YZ=             -0.4994
 Traceless Quadrupole moment (field-independent basis, Debye-Ang):
   XX=             -0.6735   YY=              1.7401   ZZ=             -1.0665
   XY=              3.6986   XZ=              0.5335   YZ=             -0.4994
 Octapole moment (field-independent basis, Debye-Ang**2):
  XXX=             -9.3732  YYY=              0.2699  ZZZ=             -0.1187  XYY=             -1.0011
  XXY=              3.4246  XXZ=             -0.0415  XZZ=              3.6783  YZZ=             -0.7903
  YYZ=              0.3292  XYZ=              0.5259
 Hexadecapole moment (field-independent basis, Debye-Ang**3):
 XXXX=           -233.6399 YYYY=            -82.8422 ZZZZ=            -28.4605 XXXY=              7.4607
 XXXZ=              1.4813 YYYX=             -0.0338 YYYZ=             -1.2234 ZZZX=             -0.1525
 ZZZY=             -0.1608 XXYY=            -53.7627 XXZZ=            -47.1307 YYZZ=            -20.1550
 XXYZ=             -0.3204 YYXZ=              0.6693 ZZXY=             -0.4284
 N-N= 1.039103378487D+02 E-N=-6.553370996417D+02  KE= 1.906856355190D+02
 No NMR shielding tensors so no spin-rotation constants.
 Leave Link  601 at Wed May 12 11:58:35 2021, MaxMem=  2147483648 cpu:         0.6
 (Enter /opt/cluster/programs/g09_d.01/g09/l9999.exe)
 1\1\GINC-NODE19\FOpt\RwB97XD\6-31+G\C3H4O1\BOITTIER\12-May-2021\0\\#p 
 wB97XD/6-31+G Opt=ModRedun\\L.pdb\\0,1\C,1.4856661823,0.4631182955,0.0
 376887978\C,0.6678137591,-0.5937981055,-0.0647425315\C,-0.7968196323,-
 0.4671543056,0.0716180318\O,-1.4204063926,0.5934142826,-0.0663614045\H
 ,-1.3451844124,-1.3951865714,0.293964598\H,2.5629235866,0.3600359417,-
 0.0349220008\H,1.0839913617,1.4602031419,0.1952508778\H,1.0591485477,-
 1.5999166793,-0.1924693686\\Version=ES64L-G09RevD.01\State=1-A\HF=-191
 .7925024\RMSD=2.681e-09\RMSF=1.406e-03\Dipole=0.9985615,-0.7869704,0.1
 283202\Quadrupole=-0.4881216,1.2817965,-0.7936749,2.7534977,-0.3976953
 ,0.3713652\PG=C01 [X(C3H4O1)]\\@


 Just remember, when you're over the hill, you begin to pick up speed.
 -- Charles Schulz
 Job cpu time:       0 days  0 hours  1 minutes 16.2 seconds.
 File lengths (MBytes):  RWF=      5 Int=      0 D2E=      0 Chk=      2 Scr=      1
 Normal termination of Gaussian 09 at Wed May 12 11:58:35 2021.
