O.pdb                                                                   
FOpt      RwB97XD                                                     6-31+G              
Number of atoms                            I               11
Info1-9                                    I   N=           9
          22          22           0           0           0         100
           2          18        -802
Charge                                     I                0
Multiplicity                               I                1
Number of electrons                        I               40
Number of alpha electrons                  I               20
Number of beta electrons                   I               20
Number of basis functions                  I               77
Number of independent functions            I               77
Number of point charges in /Mol/           I                0
Number of translation vectors              I                0
Atomic numbers                             I   N=          11
           6           6           1           1           1           8
           8           6           1           1           1
Nuclear charges                            R   N=          11
  6.00000000E+00  6.00000000E+00  1.00000000E+00  1.00000000E+00  1.00000000E+00
  8.00000000E+00  8.00000000E+00  6.00000000E+00  1.00000000E+00  1.00000000E+00
  1.00000000E+00
Current cartesian coordinates              R   N=          33
  3.40889965E+00 -1.01373225E+00  2.60971179E-03  9.14051082E-01  3.19832369E-01
 -7.81779701E-03  3.63875082E+00 -2.05397924E+00  1.77465882E+00  4.92351703E+00
  3.68271719E-01 -1.86389358E-01  3.49620877E+00 -2.38182783E+00 -1.54188235E+00
 -1.05685580E+00 -1.34898856E+00 -9.96452590E-03  5.95532073E-01  2.62543242E+00
 -6.12271267E-04 -3.60993816E+00 -2.94544053E-01  6.38916406E-03 -3.89822344E+00
  8.27902247E-01  1.71265690E+00 -4.85174901E+00 -1.93088437E+00 -2.36669301E-02
 -3.89598601E+00  8.89622592E-01 -1.65785107E+00
Force Field                                I                0
Int Atom Types                             I   N=          11
           0           0           0           0           0           0
           0           0           0           0           0
MM charges                                 R   N=          11
  0.00000000E+00  0.00000000E+00  0.00000000E+00  0.00000000E+00  0.00000000E+00
  0.00000000E+00  0.00000000E+00  0.00000000E+00  0.00000000E+00  0.00000000E+00
  0.00000000E+00
Integer atomic weights                     I   N=          11
          12          12           1           1           1          16
          16          12           1           1           1
Real atomic weights                        R   N=          11
  1.20000000E+01  1.20000000E+01  1.00782504E+00  1.00782504E+00  1.00782504E+00
  1.59949146E+01  1.59949146E+01  1.20000000E+01  1.00782504E+00  1.00782504E+00
  1.00782504E+00
Atom fragment info                         I   N=          11
           0           0           0           0           0           0
           0           0           0           0           0
Atom residue num                           I   N=          11
           0           0           0           0           0           0
           0           0           0           0           0
Nuclear spins                              I   N=          11
           0           0           1           1           1           0
           0           0           1           1           1
Nuclear ZEff                               R   N=          11
 -3.60000000E+00 -3.60000000E+00 -1.00000000E+00 -1.00000000E+00 -1.00000000E+00
 -5.60000000E+00 -5.60000000E+00 -3.60000000E+00 -1.00000000E+00 -1.00000000E+00
 -1.00000000E+00
Nuclear ZNuc                               R   N=          11
  6.00000000E+00  6.00000000E+00  1.00000000E+00  1.00000000E+00  1.00000000E+00
  8.00000000E+00  8.00000000E+00  6.00000000E+00  1.00000000E+00  1.00000000E+00
  1.00000000E+00
Nuclear QMom                               R   N=          11
  0.00000000E+00  0.00000000E+00  0.00000000E+00  0.00000000E+00  0.00000000E+00
  0.00000000E+00  0.00000000E+00  0.00000000E+00  0.00000000E+00  0.00000000E+00
  0.00000000E+00
Nuclear GFac                               R   N=          11
  0.00000000E+00  0.00000000E+00  2.79284600E+00  2.79284600E+00  2.79284600E+00
  0.00000000E+00  0.00000000E+00  0.00000000E+00  2.79284600E+00  2.79284600E+00
  2.79284600E+00
MicOpt                                     I   N=          11
          -1          -1          -1          -1          -1          -1
          -1          -1          -1          -1          -1
Number of contracted shells                I               32
Number of primitive shells                 I               79
Pure/Cartesian d shells                    I                1
Pure/Cartesian f shells                    I                0
Highest angular momentum                   I                1
Largest degree of contraction              I                6
Shell types                                I   N=          32
           0          -1          -1          -1           0          -1
          -1          -1           0           0           0           0
           0           0           0          -1          -1          -1
           0          -1          -1          -1           0          -1
          -1          -1           0           0           0           0
           0           0
Number of primitives per shell             I   N=          32
           6           3           1           1           6           3
           1           1           3           1           3           1
           3           1           6           3           1           1
           6           3           1           1           6           3
           1           1           3           1           3           1
           3           1
Shell to atom map                          I   N=          32
           1           1           1           1           2           2
           2           2           3           3           4           4
           5           5           6           6           6           6
           7           7           7           7           8           8
           8           8           9           9          10          10
          11          11
Primitive exponents                        R   N=          79
  3.04752488E+03  4.57369518E+02  1.03948685E+02  2.92101553E+01  9.28666296E+00
  3.16392696E+00  7.86827235E+00  1.88128854E+00  5.44249258E-01  1.68714478E-01
  4.38000000E-02  3.04752488E+03  4.57369518E+02  1.03948685E+02  2.92101553E+01
  9.28666296E+00  3.16392696E+00  7.86827235E+00  1.88128854E+00  5.44249258E-01
  1.68714478E-01  4.38000000E-02  1.87311370E+01  2.82539436E+00  6.40121692E-01
  1.61277759E-01  1.87311370E+01  2.82539436E+00  6.40121692E-01  1.61277759E-01
  1.87311370E+01  2.82539436E+00  6.40121692E-01  1.61277759E-01  5.48467166E+03
  8.25234946E+02  1.88046958E+02  5.29645000E+01  1.68975704E+01  5.79963534E+00
  1.55396162E+01  3.59993359E+00  1.01376175E+00  2.70005823E-01  8.45000000E-02
  5.48467166E+03  8.25234946E+02  1.88046958E+02  5.29645000E+01  1.68975704E+01
  5.79963534E+00  1.55396162E+01  3.59993359E+00  1.01376175E+00  2.70005823E-01
  8.45000000E-02  3.04752488E+03  4.57369518E+02  1.03948685E+02  2.92101553E+01
  9.28666296E+00  3.16392696E+00  7.86827235E+00  1.88128854E+00  5.44249258E-01
  1.68714478E-01  4.38000000E-02  1.87311370E+01  2.82539436E+00  6.40121692E-01
  1.61277759E-01  1.87311370E+01  2.82539436E+00  6.40121692E-01  1.61277759E-01
  1.87311370E+01  2.82539436E+00  6.40121692E-01  1.61277759E-01
Contraction coefficients                   R   N=          79
  1.83473713E-03  1.40373228E-02  6.88426223E-02  2.32184443E-01  4.67941348E-01
  3.62311985E-01 -1.19332420E-01 -1.60854152E-01  1.14345644E+00  1.00000000E+00
  1.00000000E+00  1.83473713E-03  1.40373228E-02  6.88426223E-02  2.32184443E-01
  4.67941348E-01  3.62311985E-01 -1.19332420E-01 -1.60854152E-01  1.14345644E+00
  1.00000000E+00  1.00000000E+00  3.34946043E-02  2.34726953E-01  8.13757326E-01
  1.00000000E+00  3.34946043E-02  2.34726953E-01  8.13757326E-01  1.00000000E+00
  3.34946043E-02  2.34726953E-01  8.13757326E-01  1.00000000E+00  1.83107443E-03
  1.39501722E-02  6.84450781E-02  2.32714336E-01  4.70192898E-01  3.58520853E-01
 -1.10777550E-01 -1.48026263E-01  1.13076702E+00  1.00000000E+00  1.00000000E+00
  1.83107443E-03  1.39501722E-02  6.84450781E-02  2.32714336E-01  4.70192898E-01
  3.58520853E-01 -1.10777550E-01 -1.48026263E-01  1.13076702E+00  1.00000000E+00
  1.00000000E+00  1.83473713E-03  1.40373228E-02  6.88426223E-02  2.32184443E-01
  4.67941348E-01  3.62311985E-01 -1.19332420E-01 -1.60854152E-01  1.14345644E+00
  1.00000000E+00  1.00000000E+00  3.34946043E-02  2.34726953E-01  8.13757326E-01
  1.00000000E+00  3.34946043E-02  2.34726953E-01  8.13757326E-01  1.00000000E+00
  3.34946043E-02  2.34726953E-01  8.13757326E-01  1.00000000E+00
P(S=P) Contraction coefficients            R   N=          79
  0.00000000E+00  0.00000000E+00  0.00000000E+00  0.00000000E+00  0.00000000E+00
  0.00000000E+00  6.89990666E-02  3.16423961E-01  7.44308291E-01  1.00000000E+00
  1.00000000E+00  0.00000000E+00  0.00000000E+00  0.00000000E+00  0.00000000E+00
  0.00000000E+00  0.00000000E+00  6.89990666E-02  3.16423961E-01  7.44308291E-01
  1.00000000E+00  1.00000000E+00  0.00000000E+00  0.00000000E+00  0.00000000E+00
  0.00000000E+00  0.00000000E+00  0.00000000E+00  0.00000000E+00  0.00000000E+00
  0.00000000E+00  0.00000000E+00  0.00000000E+00  0.00000000E+00  0.00000000E+00
  0.00000000E+00  0.00000000E+00  0.00000000E+00  0.00000000E+00  0.00000000E+00
  7.08742682E-02  3.39752839E-01  7.27158577E-01  1.00000000E+00  1.00000000E+00
  0.00000000E+00  0.00000000E+00  0.00000000E+00  0.00000000E+00  0.00000000E+00
  0.00000000E+00  7.08742682E-02  3.39752839E-01  7.27158577E-01  1.00000000E+00
  1.00000000E+00  0.00000000E+00  0.00000000E+00  0.00000000E+00  0.00000000E+00
  0.00000000E+00  0.00000000E+00  6.89990666E-02  3.16423961E-01  7.44308291E-01
  1.00000000E+00  1.00000000E+00  0.00000000E+00  0.00000000E+00  0.00000000E+00
  0.00000000E+00  0.00000000E+00  0.00000000E+00  0.00000000E+00  0.00000000E+00
  0.00000000E+00  0.00000000E+00  0.00000000E+00  0.00000000E+00
Coordinates of each shell                  R   N=          96
  3.40889957E+00 -1.01373199E+00  2.60975903E-03  3.40889957E+00 -1.01373199E+00
  2.60975903E-03  3.40889957E+00 -1.01373199E+00  2.60975903E-03  3.40889957E+00
 -1.01373199E+00  2.60975903E-03  9.14050981E-01  3.19832575E-01 -7.81774977E-03
  9.14050981E-01  3.19832575E-01 -7.81774977E-03  9.14050981E-01  3.19832575E-01
 -7.81774977E-03  9.14050981E-01  3.19832575E-01 -7.81774977E-03  3.63875076E+00
 -2.05397898E+00  1.77465887E+00  3.63875076E+00 -2.05397898E+00  1.77465887E+00
  4.92351693E+00  3.68272000E-01 -1.86389310E-01  4.92351693E+00  3.68272000E-01
 -1.86389310E-01  3.49620872E+00 -2.38182757E+00 -1.54188231E+00  3.49620872E+00
 -2.38182757E+00 -1.54188231E+00 -1.05685587E+00 -1.34898839E+00 -9.96447866E-03
 -1.05685587E+00 -1.34898839E+00 -9.96447866E-03 -1.05685587E+00 -1.34898839E+00
 -9.96447866E-03 -1.05685587E+00 -1.34898839E+00 -9.96447866E-03  5.95531929E-01
  2.62543262E+00 -6.12224024E-04  5.95531929E-01  2.62543262E+00 -6.12224024E-04
  5.95531929E-01  2.62543262E+00 -6.12224024E-04  5.95531929E-01  2.62543262E+00
 -6.12224024E-04 -3.60993825E+00 -2.94543932E-01  6.38921130E-03 -3.60993825E+00
 -2.94543932E-01  6.38921130E-03 -3.60993825E+00 -2.94543932E-01  6.38921130E-03
 -3.60993825E+00 -2.94543932E-01  6.38921130E-03 -3.89822355E+00  8.27902363E-01
  1.71265695E+00 -3.89822355E+00  8.27902363E-01  1.71265695E+00 -4.85174907E+00
 -1.93088427E+00 -2.36668828E-02 -4.85174907E+00 -1.93088427E+00 -2.36668828E-02
 -3.89598612E+00  8.89622708E-01 -1.65785102E+00 -3.89598612E+00  8.89622708E-01
 -1.65785102E+00
Constraint Structure                       R   N=          33
  3.40889957E+00 -1.01373199E+00  2.60975903E-03  9.14050981E-01  3.19832575E-01
 -7.81774977E-03  3.63875076E+00 -2.05397898E+00  1.77465887E+00  4.92351693E+00
  3.68272000E-01 -1.86389310E-01  3.49620872E+00 -2.38182757E+00 -1.54188231E+00
 -1.05685587E+00 -1.34898839E+00 -9.96447866E-03  5.95531929E-01  2.62543262E+00
 -6.12224024E-04 -3.60993825E+00 -2.94543932E-01  6.38921130E-03 -3.89822355E+00
  8.27902363E-01  1.71265695E+00 -4.85174907E+00 -1.93088427E+00 -2.36668828E-02
 -3.89598612E+00  8.89622708E-01 -1.65785102E+00
Num ILSW                                   I              100
ILSW                                       I   N=         100
           0           1           0           0           2           0
           0           0           0           0        4639          -1
           0           0           0           0           2           0
           0           0           0           0           1           0
           1           0           0           0           0           0
           0           0      100000           0          -1           0
           0           0           0           0           0           0
           0           0           0           1           0           0
           0           0           1           0           0           0
           0           0         121          41           0           0
           0           0          58           0           0           0
           0           0           0          11           0           0
           0           0           0           0           0           0
           0           0           0           0           0           0
           0           0           0           0           0           0
           0           0           0           0           0           0
           0           0           0           0
Num RLSW                                   I               41
RLSW                                       R   N=          41
  1.00000000E+00  1.00000000E+00  1.00000000E+00  1.00000000E+00  1.00000000E+00
  0.00000000E+00  2.00000000E-01  2.22036000E-01  0.00000000E+00  7.77964000E-01
  0.00000000E+00  2.00000000E-01  0.00000000E+00  0.00000000E+00  1.00000000E+00
  0.00000000E+00  0.00000000E+00  1.00000000E+00  0.00000000E+00  0.00000000E+00
  0.00000000E+00  0.00000000E+00  1.00000000E+00  0.00000000E+00  0.00000000E+00
  0.00000000E+00  0.00000000E+00  1.00000000E+00  0.00000000E+00  0.00000000E+00
  0.00000000E+00  0.00000000E+00  1.00000000E+00  0.00000000E+00  0.00000000E+00
  0.00000000E+00  0.00000000E+00  0.00000000E+00  1.00000000E+00  1.00000000E+00
  0.00000000E+00
MxBond                                     I                4
NBond                                      I   N=          11
           4           3           1           1           1           2
           1           4           1           1           1
IBond                                      I   N=          44
           2           3           4           5           1           6
           7           0           1           0           0           0
           1           0           0           0           1           0
           0           0           2           8           0           0
           2           0           0           0           6           9
          10          11           8           0           0           0
           8           0           0           0           8           0
           0           0
RBond                                      R   N=          44
  1.00000000E+00  1.00000000E+00  1.00000000E+00  1.00000000E+00  1.00000000E+00
  1.50000000E+00  2.00000000E+00  0.00000000E+00  1.00000000E+00  0.00000000E+00
  0.00000000E+00  0.00000000E+00  1.00000000E+00  0.00000000E+00  0.00000000E+00
  0.00000000E+00  1.00000000E+00  0.00000000E+00  0.00000000E+00  0.00000000E+00
  1.50000000E+00  1.00000000E+00  0.00000000E+00  0.00000000E+00  2.00000000E+00
  0.00000000E+00  0.00000000E+00  0.00000000E+00  1.00000000E+00  1.00000000E+00
  1.00000000E+00  1.00000000E+00  1.00000000E+00  0.00000000E+00  0.00000000E+00
  0.00000000E+00  1.00000000E+00  0.00000000E+00  0.00000000E+00  0.00000000E+00
  1.00000000E+00  0.00000000E+00  0.00000000E+00  0.00000000E+00
Virial Ratio                               R      2.005746056519006E+00
SCF Energy                                 R     -2.682217251865535E+02
Total Energy                               R     -2.682217251865535E+02
RMS Force                                  R      1.224482976769203E-05
RMS Density                                R      4.006199563615038E-09
External E-field                           R   N=          35
  0.00000000E+00  0.00000000E+00  0.00000000E+00  0.00000000E+00  0.00000000E+00
  0.00000000E+00  0.00000000E+00  0.00000000E+00  0.00000000E+00  0.00000000E+00
  0.00000000E+00  0.00000000E+00  0.00000000E+00  0.00000000E+00  0.00000000E+00
  0.00000000E+00  0.00000000E+00  0.00000000E+00  0.00000000E+00  0.00000000E+00
  0.00000000E+00  0.00000000E+00  0.00000000E+00  0.00000000E+00  0.00000000E+00
  0.00000000E+00  0.00000000E+00  0.00000000E+00  0.00000000E+00  0.00000000E+00
  0.00000000E+00  0.00000000E+00  0.00000000E+00  0.00000000E+00  0.00000000E+00
IOpCl                                      I                0
IROHF                                      I                0
Alpha Orbital Energies                     R   N=          77
 -1.93262834E+01 -1.92759678E+01 -1.04499414E+01 -1.03556102E+01 -1.03101051E+01
 -1.22459953E+00 -1.13514104E+00 -8.81355705E-01 -8.13347394E-01 -6.65369817E-01
 -5.96548199E-01 -5.85776671E-01 -5.68761408E-01 -5.28876957E-01 -5.15792027E-01
 -4.94569774E-01 -4.62349125E-01 -4.43312630E-01 -3.91722768E-01 -3.67517343E-01
  6.39764947E-02  7.23609503E-02  7.89060070E-02  1.00645365E-01  1.02485751E-01
  1.11852875E-01  1.27204113E-01  1.34294083E-01  1.51618457E-01  1.59401265E-01
  1.67542961E-01  1.99247072E-01  2.05725663E-01  2.32011651E-01  2.52464155E-01
  2.59723392E-01  2.66511117E-01  2.74464463E-01  3.03264790E-01  3.14922651E-01
  3.33361198E-01  3.44211735E-01  3.62308531E-01  3.66693558E-01  3.68550808E-01
  4.06945272E-01  4.20647456E-01  4.27737137E-01  4.39195777E-01  4.67536266E-01
  5.58769808E-01  7.38475082E-01  7.39082312E-01  7.59623954E-01  7.72971753E-01
  7.98506301E-01  8.17592358E-01  8.18888384E-01  9.17657242E-01  9.58271081E-01
  1.06404260E+00  1.10081220E+00  1.13485048E+00  1.15305137E+00  1.18411209E+00
  1.21723417E+00  1.26180843E+00  1.26562883E+00  1.28501557E+00  1.37012806E+00
  1.39722400E+00  1.46580433E+00  1.48643319E+00  1.57407935E+00  1.67517827E+00
  1.99066507E+00  2.00687670E+00
Alpha MO coefficients                      R   N=        5929
 -2.63302301E-05 -3.52881822E-04  6.25104281E-05 -4.28288224E-05  8.71537000E-07
  1.92312855E-03  2.63580265E-04  1.51229638E-03 -1.91849841E-05  1.85612802E-02
 -4.59025404E-03  1.22735330E-03 -2.81777136E-05  8.81722330E-05  3.43809062E-04
 -3.91298922E-04 -1.55427505E-04 -4.89125197E-07  3.83283864E-03 -4.87266111E-03
 -1.79422126E-03  8.53299574E-06 -2.18243551E-02 -4.00106160E-03  5.55301514E-03
 -6.97524438E-06  6.54617337E-05 -3.84107165E-04 -1.76063198E-04 -7.49788435E-04
  8.66475929E-05 -3.63113987E-04  9.95238892E-01  2.99108661E-02 -1.25009212E-04
  1.93565861E-03  1.37271265E-05 -2.18114213E-02 -2.35578951E-04 -4.14232825E-03
 -2.67758125E-05  9.49742018E-03  1.01274394E-03  1.26598176E-03  1.02292876E-05
 -3.14944189E-04 -8.58039181E-05 -5.96919439E-05  7.06395193E-05  3.72587188E-07
 -3.10167444E-04  1.05980127E-03  6.60965969E-04  1.27297827E-06 -1.53114997E-03
  1.03267455E-03  1.82356512E-04 -1.79604000E-05 -3.71889238E-05 -2.18451550E-04
  7.09748071E-04 -2.07712540E-04 -3.28355300E-06  4.69894776E-03  1.43600770E-03
 -3.15866036E-04 -1.18617660E-05  7.84135091E-04 -2.70529770E-04  5.11486295E-05
  6.21613326E-06 -3.23357579E-04 -1.31463406E-03 -2.46277245E-04 -1.01262906E-03
 -3.26245316E-04 -1.32390656E-03 -7.16187178E-06 -1.79245901E-04 -1.67626616E-05
 -9.25793776E-05  1.07475232E-06  2.81487197E-03 -2.02974996E-03 -1.18530103E-03
 -4.67922279E-05 -4.81072007E-03  1.47360363E-03  4.26773859E-04  2.12116881E-05
  2.36645182E-04  3.76755725E-04  1.70620509E-04 -5.69140604E-05 -3.35896618E-06
  7.11889623E-03 -2.91794907E-03  1.02553416E-02  4.90703798E-05 -2.05908231E-03
  3.22736830E-03 -3.77686855E-03 -1.76497647E-05 -1.17733952E-04 -1.15855019E-04
  1.47750399E-04  3.66195643E-04 -1.75718002E-04 -2.10488850E-04  3.32452357E-04
 -1.18050675E-04 -2.62498901E-04  7.98855592E-06 -5.00219389E-07  5.00898083E-04
  1.75468364E-03 -1.26762231E-03 -2.58489174E-06 -1.93430500E-03  1.11165135E-03
 -4.24560479E-04 -4.40307399E-05  9.95239470E-01  2.98516587E-02  1.97611942E-04
 -2.27772159E-03 -4.42844802E-06 -2.38641139E-02 -3.94295207E-04  5.99761121E-03
  8.42785459E-06  6.69635572E-03 -3.74992934E-04 -1.31359730E-04  1.51178993E-05
 -1.37188662E-05 -1.42748679E-04  1.24933489E-04 -1.39643963E-04 -5.36564015E-06
  2.14747943E-03  2.23457258E-04 -7.70086874E-04  1.00626183E-05  4.19364349E-03
  1.39787322E-03  5.56426150E-04  8.45091960E-06 -3.01243043E-06 -4.07552177E-04
 -1.89976982E-04 -4.34074951E-04 -9.28882218E-06 -3.84531035E-04  7.41389687E-04
 -8.01642668E-04  1.92447395E-04 -2.99500342E-04  4.05424964E-05  6.48138695E-03
 -1.74931362E-03  2.26618941E-03 -3.07510497E-04  1.44838873E-02 -3.05885894E-03
  4.75394773E-04 -1.75845128E-04  9.95573279E-01  3.71188394E-02 -1.18825671E-03
  5.41506362E-04  2.17987121E-06 -3.63703599E-02  3.11949235E-04  2.58664216E-04
  7.01470846E-05 -2.53426421E-02 -1.23455772E-03  5.41451440E-03  1.10233371E-04
 -1.45925640E-04 -1.49503717E-04 -1.33578997E-04 -1.86487678E-03 -1.12670068E-04
 -6.40417148E-04  3.99527204E-05  4.68726279E-04 -1.73498192E-04 -2.08559694E-04
  3.47895032E-07 -2.36087213E-04 -2.12203975E-04  2.30121246E-05 -7.96703802E-06
  1.28698850E-02  6.43847729E-03  4.49482867E-03 -4.92028732E-05 -1.32110411E-04
  1.32731228E-05 -1.26549436E-04  5.16031080E-04  3.51865710E-06  8.99722223E-04
  4.63698350E-04 -1.63735037E-06 -1.39728636E-05  9.36806233E-03  1.12676471E-03
 -5.34360730E-03 -4.95239506E-05 -5.64157211E-05 -3.05310905E-04  1.09510606E-04
  3.37031059E-05 -7.78337156E-06  7.63493765E-04 -7.17517842E-04  4.26726676E-04
  5.93150262E-05  6.39944796E-03  2.12361883E-03 -1.00656522E-03 -2.56093376E-06
  3.19423591E-05 -1.96490411E-03 -1.96930421E-05  3.32174038E-04  2.89921622E-05
 -1.90936388E-03 -2.58628718E-04 -8.19716538E-04 -2.70128873E-06  1.05172181E-04
 -2.22657780E-05  5.75786986E-03 -3.05313368E-03 -7.68422816E-06  1.69871226E-04
  2.02798928E-03 -1.77175000E-03 -1.06443932E-04  1.05867277E-04 -1.26527157E-05
 -1.46506013E-04  1.81190165E-04 -1.74619926E-04  2.72681116E-06 -1.43222380E-03
 -2.91117048E-03  3.96104245E-03 -5.87690280E-05  1.38718867E-03  1.65599659E-03
 -1.75344773E-03 -1.00171593E-04 -1.71513865E-04 -7.87443056E-04 -8.61885092E-05
  4.67918267E-04 -1.99338136E-04 -5.15657231E-04  4.32268030E-05  3.25267036E-04
 -5.30182233E-06 -2.51742641E-06 -2.04541451E-06  1.68911067E-03  1.77084545E-04
  8.65740446E-06  1.74911825E-05  1.55587409E-02 -9.35881929E-03  4.33404957E-03
  5.00618744E-05  1.32064221E-05  1.91183028E-05  8.80928037E-05  1.02862934E-04
 -1.54869560E-06 -1.71449733E-03  2.48924098E-04  2.74350992E-04  1.29082234E-05
 -2.20476207E-03 -5.11240157E-04  2.37868362E-03  4.94136501E-05  9.95569277E-01
  3.75240096E-02  1.27133481E-03 -4.50390550E-04 -8.19261663E-06 -3.67294225E-02
 -3.90285337E-03  1.03990115E-03  2.06601746E-05 -9.13073158E-03 -3.12926139E-03
  1.20077106E-03  2.68373602E-05 -4.63813738E-04  5.54753068E-03 -4.52318955E-04
  4.73582261E-03 -4.58635660E-04  5.53725456E-03  9.95494797E-01  3.77990395E-02
 -5.06872179E-04 -5.16035857E-05  5.61563471E-05 -3.96813778E-02  4.23245504E-03
 -1.11865586E-03 -2.14333758E-04 -3.54503002E-02  7.11953231E-03 -4.48088876E-03
  7.05509520E-05 -7.44710395E-04 -9.26749390E-04 -6.61429373E-04  3.52520564E-04
  1.77072630E-05  8.07767481E-03  7.53695586E-03 -2.48021690E-03 -2.09128069E-05
  2.45175010E-02  1.42986504E-02 -2.91768794E-03 -2.35990362E-04 -5.11762749E-04
  8.22004942E-03 -5.61727408E-04  7.03009810E-03 -4.97406854E-04  7.96499326E-03
 -6.07271510E-06 -2.55769772E-04 -2.37786040E-04 -2.37820726E-05 -1.54052745E-06
  1.33160696E-04  1.34699934E-03  3.73107343E-04 -2.90265199E-06 -7.28803618E-04
  4.35987220E-03 -1.36078252E-03  1.69523250E-04  1.71550210E-06 -1.09511730E-04
 -3.83672676E-05  8.97866218E-05  3.90332315E-06 -1.20323425E-04 -7.15608362E-04
 -1.35660958E-04 -2.70392230E-05  1.73391842E-03 -1.30589941E-03 -1.33611211E-03
  1.60925448E-04  5.70663643E-05 -8.12646466E-04 -1.03266091E-05  5.34687641E-06
  1.68256699E-05  4.12209265E-03  1.84947953E-03 -5.46173366E-04 -1.05521994E-04
  8.08574591E-03  2.49959368E-03  3.18428674E-04  8.96276588E-08 -1.53872521E-04
  1.83923385E-04 -1.82353159E-04  4.69319025E-04 -1.83172457E-04  1.76785026E-04
 -1.69561818E-02  3.09553868E-02 -2.22573743E-02  1.09787017E-02 -6.78171460E-05
  5.85993692E-03  1.10997730E-03 -5.83952271E-03  7.21409511E-04 -4.26123399E-02
  1.29008658E-02 -2.87332502E-03  1.64989534E-04 -1.18478805E-01  2.42692806E-01
 -9.16017237E-02  4.77457516E-02  4.32432110E-04  3.04872795E-02  3.84967510E-02
 -3.12850913E-02 -1.78948185E-04  1.01175575E-01 -1.19217982E-02 -1.21516367E-02
  2.10421480E-04  4.55869731E-03 -2.21078157E-03  4.91391485E-03  1.46152990E-03
  4.66470297E-03 -1.36818265E-03 -1.51571062E-01  3.25269608E-01  2.02961074E-02
  1.02500954E-01  5.54687207E-04  3.57983993E-01  3.69748800E-03  6.91721326E-02
  3.86977126E-04 -4.01345191E-02 -2.05556251E-02 -1.41447960E-02 -1.05285670E-04
 -1.11090591E-01  2.41722256E-01  4.69241489E-03 -1.16216801E-01 -3.08642573E-04
  2.40372416E-01 -3.17956310E-03 -5.06835845E-02 -9.69356942E-05  1.31090492E-03
 -5.86691523E-03 -4.86743749E-03 -9.80776896E-05 -4.11475039E-02  7.62346127E-02
  5.60572893E-02 -1.59400586E-02 -3.31084810E-04  2.10256892E-02 -5.28649593E-03
  9.42431349E-03  1.62847180E-04 -3.62474613E-02 -9.34675869E-03 -1.83115011E-03
  1.35430751E-05  1.22524951E-02  2.07650308E-03  1.16514393E-02  3.72972635E-03
  1.23392951E-02  2.10682618E-03 -4.78294045E-03  9.21834576E-03 -1.05587224E-03
  1.42853828E-02 -8.88446727E-06 -3.58108410E-04  1.33974292E-02  1.67082990E-02
  5.59763076E-04  1.82025052E-01 -4.36457673E-02  1.58207091E-02 -1.33771587E-04
 -4.62646988E-02  9.69345575E-02  4.73522232E-02  2.27443272E-01  6.44825831E-04
  2.97254954E-02 -1.96555204E-02 -7.62234708E-02 -3.22691808E-04 -1.28007878E-01
 -7.99661749E-02  3.56070403E-02 -1.60076550E-04  9.69089162E-04 -2.43084749E-03
  3.56873724E-03 -6.59776774E-03  6.27535684E-04 -9.25730516E-04  1.35954201E-01
 -2.93616257E-01  1.12460097E-02 -5.90605460E-02 -4.60846016E-04 -3.51793246E-01
  2.94366519E-03 -4.75273878E-02 -4.09898429E-04 -1.05447685E-02 -2.84329076E-02
  4.98792237E-04  4.32042116E-04 -1.59707870E-01  3.51260545E-01  2.72984169E-02
 -1.39101271E-01 -4.25334579E-04  3.59868959E-01  1.06251587E-02 -5.77241728E-02
 -7.15229765E-05  1.28335787E-02  1.85635440E-02 -1.12744285E-02 -2.63391047E-04
  4.29721686E-02 -8.56311049E-02 -5.49545366E-02  2.31928741E-02  3.61787844E-04
 -2.83194389E-02  1.34284618E-02  4.93745249E-03 -1.58496180E-04 -4.86948828E-02
 -1.99993224E-02  2.71820924E-04  6.64005544E-05 -1.41916154E-02 -2.85066028E-03
 -1.42270161E-02 -6.02429241E-04 -1.41178444E-02 -3.04391151E-03 -1.47130521E-01
  2.76427891E-01 -5.68597903E-02  1.46521460E-02  8.78327628E-04  2.79265118E-01
 -1.52244826E-02 -1.66783318E-03  8.01681070E-04  3.54734543E-02 -8.63207030E-03
  9.53079949E-03 -1.65392588E-04 -8.36831963E-02  1.77974009E-01  9.17995032E-02
 -1.59375872E-01  3.96446664E-04  1.35106284E-01  1.08205419E-02 -7.17421186E-03
  4.43907541E-04  1.97535462E-02 -1.18784662E-02 -1.93405577E-02  6.73357171E-04
  8.65892739E-02  3.95428419E-03  7.90168259E-02  3.40518848E-03  8.65794949E-02
  4.38102840E-03  7.23971039E-03 -1.55561569E-02  1.87566963E-01 -3.03004471E-03
 -3.69984584E-04 -2.21020183E-02  8.11501677E-02 -6.18051223E-03 -3.06015811E-04
  9.70306294E-03 -3.23064251E-02  4.88994086E-03 -3.71549394E-04  4.46840264E-02
 -1.01308209E-01  2.35741260E-02  5.17982383E-03  2.23141225E-04 -1.15970385E-01
  1.07021036E-02  4.06067825E-03  1.51482569E-05 -2.31601813E-02 -4.81615683E-03
  1.72293540E-02 -3.24824337E-04  9.51320036E-02 -1.83363267E-01 -3.26614899E-02
  1.93133690E-02  2.65629081E-04 -1.81132841E-01 -4.61787242E-03 -4.13559883E-03
  2.34126025E-04 -5.03475125E-02 -1.82332629E-02  5.40428658E-03  4.33436072E-05
 -5.34349024E-02 -1.32085856E-03 -5.76550685E-02 -1.12777429E-02 -5.33880264E-02
 -1.12612062E-03 -1.17067972E-01  2.19931440E-01  1.70589287E-02  9.36368444E-03
  1.37069140E-03  2.49928233E-01  7.92819719E-03  1.04829602E-02 -7.95795649E-05
  1.95613321E-01 -3.87683493E-02  2.25831539E-02 -9.12294754E-04  1.33527068E-02
 -3.39596685E-02  1.70032793E-01  4.13195102E-02  8.00544713E-04 -2.37350655E-02
  4.46756193E-03 -9.48707892E-03  5.73314255E-04 -2.12221652E-01 -5.57005118E-02
  3.46843945E-02  8.60548729E-04  7.92363493E-02  8.44862466E-03  8.61585007E-02
  4.74535324E-03  7.71003852E-02  6.79130483E-03  3.97657855E-02 -9.10396201E-02
 -1.89808283E-01 -4.20392333E-02  8.52856085E-04 -1.34480507E-01 -8.65982265E-02
 -2.55631320E-02  2.08584018E-04 -3.75058713E-02  2.81979924E-02 -2.08724147E-03
 -4.20925546E-04  2.20288132E-03 -6.58902277E-03  3.29349728E-02  1.18605095E-02
  2.94009180E-04 -1.34266274E-03  1.20440650E-02  2.66470589E-03  5.53615770E-05
  1.70754779E-02  1.11419054E-02 -7.93956548E-03 -5.55266232E-04 -1.49417332E-01
  2.91931588E-01 -2.87597388E-02 -9.21045997E-03  1.44199297E-04  3.17629090E-01
 -8.97667833E-03 -3.27310428E-03  1.72894387E-04  4.81496634E-02  1.51721080E-02