O.pdb                                                                   
FOpt      RwB97XD                                                     6-31+G              
Number of atoms                            I               11
Info1-9                                    I   N=           9
          22          22           0           0           0         100
           2          18        -802
Charge                                     I                0
Multiplicity                               I                1
Number of electrons                        I               40
Number of alpha electrons                  I               20
Number of beta electrons                   I               20
Number of basis functions                  I               77
Number of independent functions            I               77
Number of point charges in /Mol/           I                0
Number of translation vectors              I                0
Atomic numbers                             I   N=          11
           6           6           1           1           1           8
           8           6           1           1           1
Nuclear charges                            R   N=          11
  6.00000000E+00  6.00000000E+00  1.00000000E+00  1.00000000E+00  1.00000000E+00
  8.00000000E+00  8.00000000E+00  6.00000000E+00  1.00000000E+00  1.00000000E+00
  1.00000000E+00
Current cartesian coordinates              R   N=          33
 -2.24922190E+00  2.17014600E+00 -8.94953037E-02 -1.04637138E+00 -3.91364471E-01
  1.18735509E-01 -2.48804176E+00  2.95562010E+00  1.80961710E+00 -4.08524768E+00
  2.01704973E+00 -1.00928737E+00 -1.04656815E+00  3.47517204E+00 -1.15134754E+00
  1.39024716E+00 -3.68232187E-01  1.11940408E+00 -2.09826842E+00 -2.39126170E+00
 -3.54769389E-01  3.49492582E+00  2.79271259E-01 -5.37152527E-01  3.65690945E+00
 -1.11792042E+00 -2.05063608E+00  5.16416816E+00  2.18605481E-01  6.59781108E-01
  3.26695482E+00  2.17910741E+00 -1.32773079E+00
Force Field                                I                0
Int Atom Types                             I   N=          11
           0           0           0           0           0           0
           0           0           0           0           0
MM charges                                 R   N=          11
  0.00000000E+00  0.00000000E+00  0.00000000E+00  0.00000000E+00  0.00000000E+00
  0.00000000E+00  0.00000000E+00  0.00000000E+00  0.00000000E+00  0.00000000E+00
  0.00000000E+00
Integer atomic weights                     I   N=          11
          12          12           1           1           1          16
          16          12           1           1           1
Real atomic weights                        R   N=          11
  1.20000000E+01  1.20000000E+01  1.00782504E+00  1.00782504E+00  1.00782504E+00
  1.59949146E+01  1.59949146E+01  1.20000000E+01  1.00782504E+00  1.00782504E+00
  1.00782504E+00
Atom fragment info                         I   N=          11
           0           0           0           0           0           0
           0           0           0           0           0
Atom residue num                           I   N=          11
           0           0           0           0           0           0
           0           0           0           0           0
Nuclear spins                              I   N=          11
           0           0           1           1           1           0
           0           0           1           1           1
Nuclear ZEff                               R   N=          11
 -3.60000000E+00 -3.60000000E+00 -1.00000000E+00 -1.00000000E+00 -1.00000000E+00
 -5.60000000E+00 -5.60000000E+00 -3.60000000E+00 -1.00000000E+00 -1.00000000E+00
 -1.00000000E+00
Nuclear ZNuc                               R   N=          11
  6.00000000E+00  6.00000000E+00  1.00000000E+00  1.00000000E+00  1.00000000E+00
  8.00000000E+00  8.00000000E+00  6.00000000E+00  1.00000000E+00  1.00000000E+00
  1.00000000E+00
Nuclear QMom                               R   N=          11
  0.00000000E+00  0.00000000E+00  0.00000000E+00  0.00000000E+00  0.00000000E+00
  0.00000000E+00  0.00000000E+00  0.00000000E+00  0.00000000E+00  0.00000000E+00
  0.00000000E+00
Nuclear GFac                               R   N=          11
  0.00000000E+00  0.00000000E+00  2.79284600E+00  2.79284600E+00  2.79284600E+00
  0.00000000E+00  0.00000000E+00  0.00000000E+00  2.79284600E+00  2.79284600E+00
  2.79284600E+00
MicOpt                                     I   N=          11
          -1          -1          -1          -1          -1          -1
          -1          -1          -1          -1          -1
Number of contracted shells                I               32
Number of primitive shells                 I               79
Pure/Cartesian d shells                    I                1
Pure/Cartesian f shells                    I                0
Highest angular momentum                   I                1
Largest degree of contraction              I                6
Shell types                                I   N=          32
           0          -1          -1          -1           0          -1
          -1          -1           0           0           0           0
           0           0           0          -1          -1          -1
           0          -1          -1          -1           0          -1
          -1          -1           0           0           0           0
           0           0
Number of primitives per shell             I   N=          32
           6           3           1           1           6           3
           1           1           3           1           3           1
           3           1           6           3           1           1
           6           3           1           1           6           3
           1           1           3           1           3           1
           3           1
Shell to atom map                          I   N=          32
           1           1           1           1           2           2
           2           2           3           3           4           4
           5           5           6           6           6           6
           7           7           7           7           8           8
           8           8           9           9          10          10
          11          11
Primitive exponents                        R   N=          79
  3.04752488E+03  4.57369518E+02  1.03948685E+02  2.92101553E+01  9.28666296E+00
  3.16392696E+00  7.86827235E+00  1.88128854E+00  5.44249258E-01  1.68714478E-01
  4.38000000E-02  3.04752488E+03  4.57369518E+02  1.03948685E+02  2.92101553E+01
  9.28666296E+00  3.16392696E+00  7.86827235E+00  1.88128854E+00  5.44249258E-01
  1.68714478E-01  4.38000000E-02  1.87311370E+01  2.82539436E+00  6.40121692E-01
  1.61277759E-01  1.87311370E+01  2.82539436E+00  6.40121692E-01  1.61277759E-01
  1.87311370E+01  2.82539436E+00  6.40121692E-01  1.61277759E-01  5.48467166E+03
  8.25234946E+02  1.88046958E+02  5.29645000E+01  1.68975704E+01  5.79963534E+00
  1.55396162E+01  3.59993359E+00  1.01376175E+00  2.70005823E-01  8.45000000E-02
  5.48467166E+03  8.25234946E+02  1.88046958E+02  5.29645000E+01  1.68975704E+01
  5.79963534E+00  1.55396162E+01  3.59993359E+00  1.01376175E+00  2.70005823E-01
  8.45000000E-02  3.04752488E+03  4.57369518E+02  1.03948685E+02  2.92101553E+01
  9.28666296E+00  3.16392696E+00  7.86827235E+00  1.88128854E+00  5.44249258E-01
  1.68714478E-01  4.38000000E-02  1.87311370E+01  2.82539436E+00  6.40121692E-01
  1.61277759E-01  1.87311370E+01  2.82539436E+00  6.40121692E-01  1.61277759E-01
  1.87311370E+01  2.82539436E+00  6.40121692E-01  1.61277759E-01
Contraction coefficients                   R   N=          79
  1.83473713E-03  1.40373228E-02  6.88426223E-02  2.32184443E-01  4.67941348E-01
  3.62311985E-01 -1.19332420E-01 -1.60854152E-01  1.14345644E+00  1.00000000E+00
  1.00000000E+00  1.83473713E-03  1.40373228E-02  6.88426223E-02  2.32184443E-01
  4.67941348E-01  3.62311985E-01 -1.19332420E-01 -1.60854152E-01  1.14345644E+00
  1.00000000E+00  1.00000000E+00  3.34946043E-02  2.34726953E-01  8.13757326E-01
  1.00000000E+00  3.34946043E-02  2.34726953E-01  8.13757326E-01  1.00000000E+00
  3.34946043E-02  2.34726953E-01  8.13757326E-01  1.00000000E+00  1.83107443E-03
  1.39501722E-02  6.84450781E-02  2.32714336E-01  4.70192898E-01  3.58520853E-01
 -1.10777550E-01 -1.48026263E-01  1.13076702E+00  1.00000000E+00  1.00000000E+00
  1.83107443E-03  1.39501722E-02  6.84450781E-02  2.32714336E-01  4.70192898E-01
  3.58520853E-01 -1.10777550E-01 -1.48026263E-01  1.13076702E+00  1.00000000E+00
  1.00000000E+00  1.83473713E-03  1.40373228E-02  6.88426223E-02  2.32184443E-01
  4.67941348E-01  3.62311985E-01 -1.19332420E-01 -1.60854152E-01  1.14345644E+00
  1.00000000E+00  1.00000000E+00  3.34946043E-02  2.34726953E-01  8.13757326E-01
  1.00000000E+00  3.34946043E-02  2.34726953E-01  8.13757326E-01  1.00000000E+00
  3.34946043E-02  2.34726953E-01  8.13757326E-01  1.00000000E+00
P(S=P) Contraction coefficients            R   N=          79
  0.00000000E+00  0.00000000E+00  0.00000000E+00  0.00000000E+00  0.00000000E+00
  0.00000000E+00  6.89990666E-02  3.16423961E-01  7.44308291E-01  1.00000000E+00
  1.00000000E+00  0.00000000E+00  0.00000000E+00  0.00000000E+00  0.00000000E+00
  0.00000000E+00  0.00000000E+00  6.89990666E-02  3.16423961E-01  7.44308291E-01
  1.00000000E+00  1.00000000E+00  0.00000000E+00  0.00000000E+00  0.00000000E+00
  0.00000000E+00  0.00000000E+00  0.00000000E+00  0.00000000E+00  0.00000000E+00
  0.00000000E+00  0.00000000E+00  0.00000000E+00  0.00000000E+00  0.00000000E+00
  0.00000000E+00  0.00000000E+00  0.00000000E+00  0.00000000E+00  0.00000000E+00
  7.08742682E-02  3.39752839E-01  7.27158577E-01  1.00000000E+00  1.00000000E+00
  0.00000000E+00  0.00000000E+00  0.00000000E+00  0.00000000E+00  0.00000000E+00
  0.00000000E+00  7.08742682E-02  3.39752839E-01  7.27158577E-01  1.00000000E+00
  1.00000000E+00  0.00000000E+00  0.00000000E+00  0.00000000E+00  0.00000000E+00
  0.00000000E+00  0.00000000E+00  6.89990666E-02  3.16423961E-01  7.44308291E-01
  1.00000000E+00  1.00000000E+00  0.00000000E+00  0.00000000E+00  0.00000000E+00
  0.00000000E+00  0.00000000E+00  0.00000000E+00  0.00000000E+00  0.00000000E+00
  0.00000000E+00  0.00000000E+00  0.00000000E+00  0.00000000E+00
Coordinates of each shell                  R   N=          96
 -2.24922190E+00  2.17014600E+00 -8.94953037E-02 -2.24922190E+00  2.17014600E+00
 -8.94953037E-02 -2.24922190E+00  2.17014600E+00 -8.94953037E-02 -2.24922190E+00
  2.17014600E+00 -8.94953037E-02 -1.04637138E+00 -3.91364471E-01  1.18735509E-01
 -1.04637138E+00 -3.91364471E-01  1.18735509E-01 -1.04637138E+00 -3.91364471E-01
  1.18735509E-01 -1.04637138E+00 -3.91364471E-01  1.18735509E-01 -2.48804176E+00
  2.95562010E+00  1.80961710E+00 -2.48804176E+00  2.95562010E+00  1.80961710E+00
 -4.08524768E+00  2.01704973E+00 -1.00928737E+00 -4.08524768E+00  2.01704973E+00
 -1.00928737E+00 -1.04656815E+00  3.47517204E+00 -1.15134754E+00 -1.04656815E+00
  3.47517204E+00 -1.15134754E+00  1.39024716E+00 -3.68232187E-01  1.11940408E+00
  1.39024716E+00 -3.68232187E-01  1.11940408E+00  1.39024716E+00 -3.68232187E-01
  1.11940408E+00  1.39024716E+00 -3.68232187E-01  1.11940408E+00 -2.09826842E+00
 -2.39126170E+00 -3.54769389E-01 -2.09826842E+00 -2.39126170E+00 -3.54769389E-01
 -2.09826842E+00 -2.39126170E+00 -3.54769389E-01 -2.09826842E+00 -2.39126170E+00
 -3.54769389E-01  3.49492582E+00  2.79271259E-01 -5.37152527E-01  3.49492582E+00
  2.79271259E-01 -5.37152527E-01  3.49492582E+00  2.79271259E-01 -5.37152527E-01
  3.49492582E+00  2.79271259E-01 -5.37152527E-01  3.65690945E+00 -1.11792042E+00
 -2.05063608E+00  3.65690945E+00 -1.11792042E+00 -2.05063608E+00  5.16416816E+00
  2.18605481E-01  6.59781108E-01  5.16416816E+00  2.18605481E-01  6.59781108E-01
  3.26695482E+00  2.17910741E+00 -1.32773079E+00  3.26695482E+00  2.17910741E+00
 -1.32773079E+00
Constraint Structure                       R   N=          33
 -2.24922190E+00  2.17014600E+00 -8.94953037E-02 -1.04637138E+00 -3.91364471E-01
  1.18735509E-01 -2.48804176E+00  2.95562010E+00  1.80961710E+00 -4.08524768E+00
  2.01704973E+00 -1.00928737E+00 -1.04656815E+00  3.47517204E+00 -1.15134754E+00
  1.39024716E+00 -3.68232187E-01  1.11940408E+00 -2.09826842E+00 -2.39126170E+00
 -3.54769389E-01  3.49492582E+00  2.79271259E-01 -5.37152527E-01  3.65690945E+00
 -1.11792042E+00 -2.05063608E+00  5.16416816E+00  2.18605481E-01  6.59781108E-01
  3.26695482E+00  2.17910741E+00 -1.32773079E+00
Num ILSW                                   I              100
ILSW                                       I   N=         100
           0           1           0           0           2           0
           0           0           0           0        4639          -1
           0           0           0           0           2           0
           0           0           0           0           1           0
           1           0           0           0           0           0
           0           0      100000           0          -1           0
           0           0           0           0           0           0
           0           0           0           1           0           0
           0           0           1           0           0           0
           0           0         121          41           0           0
           0           0          58           0           0           0
           0           0           0          11           0           0
           0           0           0           0           0           0
           0           0           0           0           0           0
           0           0           0           0           0           0
           0           0           0           0           0           0
           0           0           0           0
Num RLSW                                   I               41
RLSW                                       R   N=          41
  1.00000000E+00  1.00000000E+00  1.00000000E+00  1.00000000E+00  1.00000000E+00
  0.00000000E+00  2.00000000E-01  2.22036000E-01  0.00000000E+00  7.77964000E-01
  0.00000000E+00  2.00000000E-01  0.00000000E+00  0.00000000E+00  1.00000000E+00
  0.00000000E+00  0.00000000E+00  1.00000000E+00  0.00000000E+00  0.00000000E+00
  0.00000000E+00  0.00000000E+00  1.00000000E+00  0.00000000E+00  0.00000000E+00
  0.00000000E+00  0.00000000E+00  1.00000000E+00  0.00000000E+00  0.00000000E+00
  0.00000000E+00  0.00000000E+00  1.00000000E+00  0.00000000E+00  0.00000000E+00
  0.00000000E+00  0.00000000E+00  0.00000000E+00  1.00000000E+00  1.00000000E+00
  0.00000000E+00
MxBond                                     I                4
NBond                                      I   N=          11
           4           3           1           1           1           2
           1           4           1           1           1
IBond                                      I   N=          44
           2           3           4           5           1           6
           7           0           1           0           0           0
           1           0           0           0           1           0
           0           0           2           8           0           0
           2           0           0           0           6           9
          10          11           8           0           0           0
           8           0           0           0           8           0
           0           0
RBond                                      R   N=          44
  1.00000000E+00  1.00000000E+00  1.00000000E+00  1.00000000E+00  1.00000000E+00
  1.00000000E+00  2.00000000E+00  0.00000000E+00  1.00000000E+00  0.00000000E+00
  0.00000000E+00  0.00000000E+00  1.00000000E+00  0.00000000E+00  0.00000000E+00
  0.00000000E+00  1.00000000E+00  0.00000000E+00  0.00000000E+00  0.00000000E+00
  1.00000000E+00  1.00000000E+00  0.00000000E+00  0.00000000E+00  2.00000000E+00
  0.00000000E+00  0.00000000E+00  0.00000000E+00  1.00000000E+00  1.00000000E+00
  1.00000000E+00  1.00000000E+00  1.00000000E+00  0.00000000E+00  0.00000000E+00
  0.00000000E+00  1.00000000E+00  0.00000000E+00  0.00000000E+00  0.00000000E+00
  1.00000000E+00  0.00000000E+00  0.00000000E+00  0.00000000E+00
Virial Ratio                               R      2.005740763177925E+00
SCF Energy                                 R     -2.681995263374495E+02
Total Energy                               R     -2.681995263374495E+02
RMS Force                                  R      2.321288661259219E-04
RMS Density                                R      1.863615859887572E-09
External E-field                           R   N=          35
  0.00000000E+00  0.00000000E+00  0.00000000E+00  0.00000000E+00  0.00000000E+00
  0.00000000E+00  0.00000000E+00  0.00000000E+00  0.00000000E+00  0.00000000E+00
  0.00000000E+00  0.00000000E+00  0.00000000E+00  0.00000000E+00  0.00000000E+00
  0.00000000E+00  0.00000000E+00  0.00000000E+00  0.00000000E+00  0.00000000E+00
  0.00000000E+00  0.00000000E+00  0.00000000E+00  0.00000000E+00  0.00000000E+00
  0.00000000E+00  0.00000000E+00  0.00000000E+00  0.00000000E+00  0.00000000E+00
  0.00000000E+00  0.00000000E+00  0.00000000E+00  0.00000000E+00  0.00000000E+00
IOpCl                                      I                0
IROHF                                      I                0
Alpha Orbital Energies                     R   N=          77
 -1.93055038E+01 -1.92869658E+01 -1.04554582E+01 -1.03669632E+01 -1.03176873E+01
 -1.21491705E+00 -1.13813038E+00 -8.74224103E-01 -8.25933345E-01 -6.66820834E-01
 -5.99016251E-01 -5.83924504E-01 -5.74867488E-01 -5.34526506E-01 -5.22999059E-01
 -5.09252165E-01 -4.73876363E-01 -4.26766884E-01 -3.81720999E-01 -3.66168960E-01
  3.99794195E-02  6.56207649E-02  7.82954404E-02  9.73491709E-02  9.93829164E-02
  1.14067117E-01  1.24548079E-01  1.29924914E-01  1.46797191E-01  1.48103623E-01
  1.62607560E-01  1.71446226E-01  1.95277795E-01  2.26674533E-01  2.36093746E-01
  2.69230885E-01  2.76406656E-01  2.81343826E-01  2.97951619E-01  3.26050747E-01
  3.28708353E-01  3.52135724E-01  3.62207840E-01  3.80180380E-01  3.83341612E-01
  3.98090416E-01  4.08740642E-01  4.25925396E-01  4.36325878E-01  4.63586049E-01
  5.62236734E-01  7.13534164E-01  7.23766574E-01  7.43805421E-01  7.58383330E-01
  7.88457256E-01  8.05509717E-01  8.71676745E-01  9.10065786E-01  9.32374061E-01
  1.06166381E+00  1.09753483E+00  1.11248339E+00  1.14790917E+00  1.16122737E+00
  1.20194527E+00  1.24520850E+00  1.28811154E+00  1.33468038E+00  1.38933303E+00
  1.41393201E+00  1.44358411E+00  1.47515188E+00  1.53770581E+00  1.60685775E+00
  1.91331832E+00  2.01022996E+00
Alpha MO coefficients                      R   N=        5929
 -3.75970472E-05 -5.45402414E-04 -1.34898160E-04  9.86958923E-05 -4.51875664E-05
  1.98952552E-03 -9.50474133E-04 -1.01357406E-03 -3.26600732E-04  1.55020879E-02
  2.73925736E-03 -2.94115118E-03  4.55029570E-04  7.79472159E-05  3.85379848E-04
  4.08432479E-04  4.25624654E-05  7.86555125E-05  1.43930574E-03  4.97128116E-03
  1.67343701E-04  1.66023080E-03 -1.92929884E-02 -9.43565785E-04 -5.41569044E-03
 -1.15238681E-04  2.69635847E-05 -5.44671521E-04 -1.98043121E-04 -6.92699579E-04
  7.18683922E-05 -3.94542888E-04  9.95226333E-01  2.97238241E-02 -4.40763840E-04
  4.72107977E-04 -1.67982435E-03 -2.09275494E-02  1.48138865E-03 -7.47196496E-04
  2.93270662E-03  1.04339160E-02 -2.35830318E-04  6.30184979E-04 -5.92152914E-04
 -1.09106148E-03 -3.00869151E-04 -2.57498446E-05 -1.19597571E-04 -3.25315303E-05
  1.03433060E-03 -6.70736494E-04  8.56025243E-04 -6.41490433E-05  1.20658713E-03
  9.42714036E-05  6.99939592E-04 -2.59981286E-04 -3.49881790E-06  4.99861760E-05
 -5.96074113E-04 -1.46328484E-04  3.06307526E-04  3.18235147E-03 -8.62220116E-04
 -2.29546973E-04  6.17542051E-04 -6.12716257E-04  9.17725404E-04  1.61111686E-04
 -9.56203530E-04 -2.76499386E-04 -6.77967622E-04 -2.15154718E-04 -8.57126194E-04
 -2.85775244E-04 -7.49446168E-04 -1.86039954E-05 -3.56753590E-04 -5.77881656E-05
  1.25934631E-04  6.87116506E-06  2.63127040E-03  2.48410115E-03 -4.76533095E-05
  6.79021388E-04  9.59017279E-03  3.26740555E-04 -2.59769183E-03 -2.90340989E-04
  2.31151595E-04  2.19602150E-04 -5.65031924E-05  1.14178992E-04 -1.65931679E-05
  7.82340577E-03 -3.19471182E-03 -8.70040185E-03 -1.57394742E-03 -1.39356978E-02
  2.54757961E-03 -8.72428724E-04  1.50920392E-03 -8.14984947E-05 -2.94226245E-04
  1.76149981E-04  4.09241386E-04 -1.86169192E-04 -4.93841528E-04  1.08654816E-03
 -2.02634561E-04  1.33009097E-04 -7.53986354E-05  6.21146728E-05  6.29722652E-04
 -8.18435027E-05  1.36790539E-03 -5.15223155E-05 -7.98154859E-04  1.02269542E-03
  6.07959654E-04  6.12815092E-04  9.95232821E-01  2.97924339E-02  1.06465066E-03
  1.96932365E-03  4.53870821E-04 -2.34163439E-02 -2.84607703E-03 -4.89030474E-03
 -1.18978738E-03  7.82655278E-03  4.14586794E-04  6.48814690E-04 -4.88173155E-05
  5.37981269E-06  6.04151039E-05  1.02570531E-05 -2.06360650E-05 -2.08042310E-05
 -1.63453650E-04 -1.17771589E-04 -3.58484330E-04 -2.98502677E-04  3.40063732E-04
 -2.96555539E-04 -4.42455351E-04 -5.60998972E-04  9.80160998E-05 -5.32690843E-04
  3.50403038E-05  5.39642128E-05 -4.10221455E-05  5.97021476E-04  7.27701374E-04
 -7.90487991E-04 -1.92735712E-05  3.36221503E-04  8.93390195E-05  6.24513554E-03
  5.40941444E-04 -2.77795030E-03 -5.37709104E-04 -2.55000491E-03 -4.06312678E-04
  1.69009726E-03 -4.45105086E-04  9.95554129E-01  3.67739672E-02  4.05067492E-04
 -1.13846122E-03  1.51971777E-04 -3.40174305E-02 -1.57352669E-04 -4.50159139E-04
 -2.10136466E-04 -7.48102661E-03 -3.52606395E-03 -4.68981925E-04 -9.57694770E-05
 -2.17254506E-04  5.39370508E-04 -1.54211936E-04 -1.28554081E-03 -1.96391424E-04
 -1.37444514E-04  4.85973711E-05  4.64497829E-04  1.68135857E-04 -1.31874415E-05
  6.14260500E-05 -1.58732081E-04  7.70068066E-05  1.25683077E-04  3.06832545E-04
  8.15958374E-03 -6.44953016E-03  1.01569303E-03 -1.60686974E-03 -1.55672664E-04
 -6.88719856E-05 -2.41462278E-04 -4.64202334E-04 -1.17136006E-04  8.51596305E-04
 -2.14228150E-04  2.25208299E-05 -3.32963969E-05  8.92127563E-03  2.04155179E-03
  4.54003509E-03  6.38888394E-04 -1.80226420E-04 -7.19824324E-04  1.06766469E-04
  7.95353052E-05  1.01138103E-04  1.96580474E-03 -1.08674981E-03 -6.05801356E-04
 -1.00102912E-03  6.30517668E-03 -1.80556310E-03 -6.37107863E-04  8.71025233E-04
 -1.54680136E-04 -1.85974557E-03 -1.32336388E-05  1.29258382E-03 -1.46801684E-04
 -9.03957710E-04  1.26432719E-04  5.00473790E-04  1.58371943E-05  5.44335358E-05
  4.41215274E-05 -2.62001855E-03 -1.64374639E-03  9.09664332E-04 -5.81459319E-04
 -2.60139471E-03 -4.63509503E-04  7.31858844E-04 -8.40116225E-04  9.59163485E-06
 -7.44220366E-04 -7.02665646E-05 -9.92732950E-05 -5.81525114E-05  2.84893283E-03
  4.04330662E-04  1.23381092E-03  6.51519473E-04  1.39869061E-02  3.93363987E-03
  4.56114479E-04  1.62843073E-03  2.22019268E-04  4.54425325E-05 -3.93194574E-05
 -4.84125075E-04  2.41336989E-04 -6.41940631E-04  5.96941923E-05  5.43325854E-04
 -1.14541757E-04 -4.00573117E-06  1.22571893E-04 -3.53335457E-05  1.27073417E-03
 -1.36191581E-05 -6.49065585E-04  1.48481002E-02  6.45621394E-03  2.26935437E-03
 -6.32255487E-03 -9.13081721E-07  1.90910391E-05  5.28054255E-05  5.63664730E-05
 -2.85205960E-05  3.31401550E-04 -3.00614814E-04 -3.75847711E-04  1.15004807E-04
 -2.83756979E-03 -1.30230395E-03 -6.61921163E-05 -1.82975067E-04  9.95573291E-01
  3.73577051E-02 -9.85322828E-04 -2.08219284E-04  5.77736007E-04 -3.71148781E-02
  3.50236521E-03  9.73947495E-04 -2.06660420E-03 -1.49819940E-02  4.73875713E-03
  1.11169353E-03 -1.95610282E-03 -4.25670447E-04  5.61183005E-03 -4.60979302E-04
  5.25553320E-03 -5.13661495E-04  5.62734522E-03  9.95496990E-01  3.77853901E-02
  3.76182403E-04 -1.52070501E-04  1.36197374E-04 -3.99577764E-02 -2.56354832E-03
  3.43111701E-03 -9.52616397E-04 -1.29411959E-02 -1.43438484E-03  2.43053870E-03
 -3.96715615E-04 -7.05181977E-04 -7.72910541E-04  2.98146936E-04 -6.51899584E-04
  5.62076485E-05  5.82965069E-03 -4.97450760E-03  7.84223463E-03 -7.05352621E-04
  1.14362301E-02 -5.83606142E-04  2.25146045E-03 -5.83617622E-04 -4.41608919E-04
  7.99129132E-03 -5.33746210E-04  6.83746836E-03 -4.96098406E-04  7.58065865E-03
 -1.53895878E-05 -4.06951083E-04  1.73463112E-04 -5.55715744E-05  1.38255257E-04
  9.11328969E-04 -7.24741223E-04 -3.71754824E-04 -9.83743656E-04  7.65878836E-03
 -3.23350121E-04  1.15385235E-03 -2.82005148E-03 -1.08609345E-05 -3.00702492E-04
 -7.76646083E-05 -8.49697299E-05 -1.48550198E-05  1.08106790E-03  1.14819410E-03
 -7.94158659E-05  2.29471825E-04  5.27562287E-04 -1.15728773E-04  7.13798494E-04
  5.78410016E-04  8.48702137E-06  5.00660543E-04 -4.08960336E-06 -4.78884849E-05
  2.89470609E-05 -2.69779043E-03  1.67825341E-03  4.23061231E-04 -4.28934240E-04
 -1.86417936E-03  9.26450731E-04  2.05580478E-04  3.64603500E-05  2.00406545E-04
 -6.36323087E-04  5.14109522E-05 -7.17517460E-04  1.56741466E-04 -9.37592770E-04
 -1.83498876E-02  3.75826607E-02  1.15152857E-02 -2.44291019E-02  1.87943543E-03
 -8.17633911E-03 -8.82499084E-03  7.56737803E-03 -6.16584237E-05 -1.20748149E-01
 -1.11943834E-02  2.77804547E-02  2.17402284E-03 -1.24974821E-01  2.55934596E-01
  6.30335596E-03 -1.16614310E-01 -3.37546910E-03  5.08533962E-02 -1.25569440E-03
  5.90170241E-02 -8.96421632E-05  1.37481536E-01 -2.07811800E-02  3.41318572E-02
 -1.05546954E-02  5.76557587E-03 -3.34207883E-04  5.77149693E-03  3.10782540E-04
  5.93939596E-03  4.12263681E-03 -1.25864518E-01  2.69618629E-01 -4.50414826E-02
  7.66439518E-03 -6.99350434E-02  2.92262960E-01 -2.14785861E-02  3.78963444E-03
 -4.72946446E-02 -4.06851535E-02  6.34413721E-03 -1.10181724E-02  1.16493616E-02
 -1.37993216E-01  3.03281642E-01  6.97134281E-02  1.19453933E-01  3.02205830E-02
  2.94290766E-01  2.83614279E-02  4.46481313E-02  1.18141353E-02 -7.62962465E-03
  7.95557207E-03 -1.93215146E-03  4.27513434E-03 -3.40451535E-02  6.46424716E-02
 -3.97383466E-02 -1.08074753E-02  2.52076907E-02  2.15808843E-02  5.57295839E-03
  3.42636345E-03 -2.42800109E-03  9.91613812E-03 -7.80740951E-03  1.18906163E-03
  5.79028751E-03  1.02972991E-02  5.11775536E-03  9.36987432E-03  5.56139489E-04
  1.10132588E-02 -3.02189101E-04  8.26546298E-04 -2.85612627E-04  9.98872159E-03
  7.69568301E-03  3.73064385E-03  1.24946403E-03  2.01723686E-02  4.93672904E-03
  5.76534497E-03 -1.00691484E-01 -1.97713744E-02  1.79063100E-02 -3.16676112E-03
  2.69181918E-02 -5.98086730E-02  1.62800318E-01  1.35174028E-01  6.25420225E-02
  7.17947515E-03 -5.45754861E-02 -4.92074911E-02 -2.14874831E-02  8.68272199E-02
 -6.32671962E-03  4.06726404E-02 -1.91100179E-03  7.14615540E-04  3.83389060E-03
 -1.97289817E-03  7.63629562E-03  1.03959399E-03  4.21086746E-03 -1.56908932E-01
  3.38081941E-01 -3.84743892E-03  3.22348913E-02 -8.11846050E-02  3.92005021E-01
 -1.16531306E-02  2.50870809E-02 -5.65661099E-02 -1.27616035E-02 -1.51168044E-02
 -2.27269780E-03  6.66969491E-03  1.36384816E-01 -3.00316064E-01 -4.51611848E-02
 -1.09170693E-01 -2.12946805E-02 -3.11785583E-01 -1.85795928E-02 -4.84754068E-02
 -9.32466294E-03 -3.01474319E-02 -3.98163555E-03 -1.99563312E-02 -6.37469011E-04
 -5.63164712E-02  1.06007954E-01 -5.91798545E-02 -1.59125801E-02  4.20008350E-02
  5.52290447E-02  1.05655820E-04  8.83408955E-04 -8.61282604E-03  2.67963918E-02
 -1.42342163E-02 -5.89265832E-03  6.14243830E-03  1.86099783E-02 -7.09089275E-03
  1.84894900E-02  5.36225092E-03  1.81836394E-02 -5.71461268E-04 -1.67826851E-01
  3.14587096E-01  3.02358854E-02 -4.01926170E-02  9.91972359E-03  3.26268145E-01
  1.03460950E-02 -6.65644302E-03  4.61083409E-03  8.83921271E-02  7.32398308E-03
 -2.24317218E-02 -3.80628089E-04 -7.80611166E-02  1.64387461E-01 -8.99424821E-03
  1.83482349E-01  2.15462257E-02  1.26634895E-01 -6.78754290E-04  1.87463122E-02
  1.15691442E-03 -3.14365669E-02  2.93301791E-02 -5.51881327E-03  8.26532502E-03
  1.02448765E-01  3.16985431E-03  9.46434299E-02  2.98215699E-03  1.01586849E-01
  5.05730980E-03  1.65902678E-02 -3.74156888E-02 -1.24939304E-01  1.65620717E-02
  2.16723181E-02 -4.72345449E-02 -5.33451561E-02  6.23608041E-03  1.28384016E-02
 -2.10495960E-03  2.24895916E-02 -6.72632989E-04 -2.79692367E-03  4.90760895E-02
 -1.13114260E-01 -2.23746920E-02  8.88677491E-03 -3.05210717E-03 -1.24022013E-01
 -7.62978119E-03  2.88764831E-03 -1.67111596E-05 -1.11167452E-02 -5.69832617E-03
 -9.87067207E-03 -1.94193554E-03  7.10398475E-02 -1.39518492E-01  1.06170111E-02
  1.39779893E-02 -2.28115315E-02 -1.33881112E-01 -4.70852856E-03  2.14574443E-03
  1.43119214E-03 -4.97916968E-02  1.59544887E-02  1.64970473E-03 -8.71172507E-03
 -4.19086301E-02 -8.28866614E-04 -4.65986653E-02 -5.47900920E-03 -3.67166431E-02
  3.44700344E-03 -8.22903896E-02  1.53376109E-01 -1.10322329E-02  4.36744374E-03
 -1.07209716E-02  1.75171886E-01 -5.31317053E-03 -5.90978827E-03 -3.52732026E-03
  8.54829984E-02  9.79275699E-03 -1.80642732E-02  4.63066641E-03  2.24056463E-02
 -5.32246940E-02 -1.46127824E-01  5.46061395E-02 -7.74362296E-02 -4.77625715E-02
  4.37263609E-03  1.41608466E-02 -7.36095208E-03 -1.37355644E-01 -9.60006949E-03
 -2.17790567E-02 -4.29335741E-03  5.24770220E-02  4.06132662E-03  6.02871641E-02
  6.37779629E-03  5.88262632E-02  1.52099788E-02  4.85341426E-02 -1.09940325E-01
  2.05297584E-01  4.33642367E-02 -3.22101219E-02 -1.57676588E-01  9.18351166E-02
  1.51642979E-02 -4.74471683E-03 -3.77444795E-02 -3.01488624E-02 -5.84948332E-03
  1.30114130E-02 -1.32785808E-02  2.87320701E-02 -3.51614685E-02  1.70170865E-02
 -2.04507862E-02  4.47806647E-02 -1.17917513E-02  1.32372827E-02 -6.94163769E-03
  2.35684609E-02  3.45923254E-04  6.50921680E-03 -2.15307174E-04 -1.63257149E-01
  3.17846522E-01  2.71120720E-02  1.01096576E-02 -5.69565459E-03  3.48291118E-01
 -1.43612152E-03  5.60842749E-03 -7.82250117E-03  7.18781655E-02 -1.99050900E-02