 Entering Gaussian System, Link 0=/opt/cluster/programs/g09_d.01/g09//g09
 Input=/home/unibas/boittier/RDKit_G2/L.pdb/SCAN_1_2_3_4_S_17_20.0/0_SCAN_1_2_3_4_F/0_SCAN_L.pdb.com
 Output=/scratch/boittier/0_SCAN_L.pdb/0_SCAN_L.pdb.out
 Initial command:
 /opt/cluster/programs/g09_d.01/g09/l1.exe "/scratch/boittier/0_SCAN_L.pdb/Gau-4858.inp" -scrdir="/scratch/boittier/0_SCAN_L.pdb/"
 Entering Link 1 = /opt/cluster/programs/g09_d.01/g09/l1.exe PID=      4860.
  
 Copyright (c) 1988,1990,1992,1993,1995,1998,2003,2009,2013,
            Gaussian, Inc.  All Rights Reserved.
  
 This is part of the Gaussian(R) 09 program.  It is based on
 the Gaussian(R) 03 system (copyright 2003, Gaussian, Inc.),
 the Gaussian(R) 98 system (copyright 1998, Gaussian, Inc.),
 the Gaussian(R) 94 system (copyright 1995, Gaussian, Inc.),
 the Gaussian 92(TM) system (copyright 1992, Gaussian, Inc.),
 the Gaussian 90(TM) system (copyright 1990, Gaussian, Inc.),
 the Gaussian 88(TM) system (copyright 1988, Gaussian, Inc.),
 the Gaussian 86(TM) system (copyright 1986, Carnegie Mellon
 University), and the Gaussian 82(TM) system (copyright 1983,
 Carnegie Mellon University). Gaussian is a federally registered
 trademark of Gaussian, Inc.
  
 This software contains proprietary and confidential information,
 including trade secrets, belonging to Gaussian, Inc.
  
 This software is provided under written license and may be
 used, copied, transmitted, or stored only in accord with that
 written license.
  
 The following legend is applicable only to US Government
 contracts under FAR:
  
                    RESTRICTED RIGHTS LEGEND
  
 Use, reproduction and disclosure by the US Government is
 subject to restrictions as set forth in subparagraphs (a)
 and (c) of the Commercial Computer Software - Restricted
 Rights clause in FAR 52.227-19.
  
 Gaussian, Inc.
 340 Quinnipiac St., Bldg. 40, Wallingford CT 06492
  
  
 ---------------------------------------------------------------
 Warning -- This program may not be used in any manner that
 competes with the business of Gaussian, Inc. or will provide
 assistance to any competitor of Gaussian, Inc.  The licensee
 of this program is prohibited from giving any competitor of
 Gaussian, Inc. access to this program.  By using this program,
 the user acknowledges that Gaussian, Inc. is engaged in the
 business of creating and licensing software in the field of
 computational chemistry and represents and warrants to the
 licensee that it is not a competitor of Gaussian, Inc. and that
 it will not use this program in any manner prohibited above.
 ---------------------------------------------------------------
  

 Cite this work as:
 Gaussian 09, Revision D.01,
 M. J. Frisch, G. W. Trucks, H. B. Schlegel, G. E. Scuseria, 
 M. A. Robb, J. R. Cheeseman, G. Scalmani, V. Barone, B. Mennucci, 
 G. A. Petersson, H. Nakatsuji, M. Caricato, X. Li, H. P. Hratchian, 
 A. F. Izmaylov, J. Bloino, G. Zheng, J. L. Sonnenberg, M. Hada, 
 M. Ehara, K. Toyota, R. Fukuda, J. Hasegawa, M. Ishida, T. Nakajima, 
 Y. Honda, O. Kitao, H. Nakai, T. Vreven, J. A. Montgomery, Jr., 
 J. E. Peralta, F. Ogliaro, M. Bearpark, J. J. Heyd, E. Brothers, 
 K. N. Kudin, V. N. Staroverov, T. Keith, R. Kobayashi, J. Normand, 
 K. Raghavachari, A. Rendell, J. C. Burant, S. S. Iyengar, J. Tomasi, 
 M. Cossi, N. Rega, J. M. Millam, M. Klene, J. E. Knox, J. B. Cross, 
 V. Bakken, C. Adamo, J. Jaramillo, R. Gomperts, R. E. Stratmann, 
 O. Yazyev, A. J. Austin, R. Cammi, C. Pomelli, J. W. Ochterski, 
 R. L. Martin, K. Morokuma, V. G. Zakrzewski, G. A. Voth, 
 P. Salvador, J. J. Dannenberg, S. Dapprich, A. D. Daniels, 
 O. Farkas, J. B. Foresman, J. V. Ortiz, J. Cioslowski, 
 and D. J. Fox, Gaussian, Inc., Wallingford CT, 2013.
 
 ******************************************
 Gaussian 09:  ES64L-G09RevD.01 24-Apr-2013
                12-May-2021 
 ******************************************
 %chk=/home/unibas/boittier/RDKit_G2/L.pdb/SCAN_1_2_3_4_S_17_20.0/0_SCAN_1_2_3_4_
 F/L.pdb.chk
 %nproc=8
 Will use up to    8 processors via shared memory.
 %mem=16GB
 -----------------------------
 #p wB97XD/6-31+G Opt=ModRedun
 -----------------------------
 1/14=-1,18=120,19=15,26=3,38=1/1,3;
 2/9=110,12=2,17=6,18=5,40=1/2;
 3/5=1,6=6,7=10,11=2,16=1,25=1,30=1,71=1,74=-58/1,2,3;
 4//1;
 5/5=2,38=5/2;
 6/7=2,8=2,9=2,10=2,28=1/1;
 7//1,2,3,16;
 1/14=-1,18=20,19=15,26=3/3(2);
 2/9=110/2;
 99//99;
 2/9=110/2;
 3/5=1,6=6,7=10,11=2,16=1,25=1,30=1,71=1,74=-58/1,2,3;
 4/5=5,16=3,69=1/1;
 5/5=2,38=5/2;
 7//1,2,3,16;
 1/14=-1,18=20,19=15,26=3/3(-5);
 2/9=110/2;
 6/7=2,8=2,9=2,10=2,19=2,28=1/1;
 99/9=1/99;
 Leave Link    1 at Wed May 12 11:58:23 2021, MaxMem=  2147483648 cpu:         0.2
 (Enter /opt/cluster/programs/g09_d.01/g09/l101.exe)
 -----
 L.pdb
 -----
 Symbolic Z-matrix:
 Charge =  0 Multiplicity = 1
 C                     1.7761    0.13528   0. 
 C                     0.56159  -0.44372  0. 
 C                    -0.66764   0.35869  -0.00001 
 O                    -1.8134   -0.12581   0. 
 H                    -0.52945   1.45541   0.00002 
 H                     2.69311  -0.44477   0. 
 H                     1.88692   1.21809   0. 
 H                     0.43632  -1.52373   0. 
 
 The following ModRedundant input section has been read:
 D       1       2       3       4 F                                           
 
 NAtoms=      8 NQM=        8 NQMF=       0 NMMI=      0 NMMIF=      0
                NMic=       0 NMicF=      0.
                    Isotopes and Nuclear Properties:
 (Nuclear quadrupole moments (NQMom) in fm**2, nuclear magnetic moments (NMagM)
  in nuclear magnetons)

  Atom         1           2           3           4           5           6           7           8
 IAtWgt=          12          12          12          16           1           1           1           1
 AtmWgt=  12.0000000  12.0000000  12.0000000  15.9949146   1.0078250   1.0078250   1.0078250   1.0078250
 NucSpn=           0           0           0           0           1           1           1           1
 AtZEff=   0.0000000   0.0000000   0.0000000   0.0000000   0.0000000   0.0000000   0.0000000   0.0000000
 NQMom=    0.0000000   0.0000000   0.0000000   0.0000000   0.0000000   0.0000000   0.0000000   0.0000000
 NMagM=    0.0000000   0.0000000   0.0000000   0.0000000   2.7928460   2.7928460   2.7928460   2.7928460
 AtZNuc=   6.0000000   6.0000000   6.0000000   8.0000000   1.0000000   1.0000000   1.0000000   1.0000000
 Leave Link  101 at Wed May 12 11:58:23 2021, MaxMem=  2147483648 cpu:         4.1
 (Enter /opt/cluster/programs/g09_d.01/g09/l103.exe)

 GradGradGradGradGradGradGradGradGradGradGradGradGradGradGradGradGradGrad
 Berny optimization.
 Initialization pass.
                           ----------------------------
                           !    Initial Parameters    !
                           ! (Angstroms and Degrees)  !
 --------------------------                            --------------------------
 ! Name  Definition              Value          Derivative Info.                !
 --------------------------------------------------------------------------------
 ! R1    R(1,2)                  1.3455         estimate D2E/DX2                !
 ! R2    R(1,6)                  1.0851         estimate D2E/DX2                !
 ! R3    R(1,7)                  1.0885         estimate D2E/DX2                !
 ! R4    R(2,3)                  1.4679         estimate D2E/DX2                !
 ! R5    R(2,8)                  1.0873         estimate D2E/DX2                !
 ! R6    R(3,4)                  1.244          estimate D2E/DX2                !
 ! R7    R(3,5)                  1.1054         estimate D2E/DX2                !
 ! A1    A(2,1,6)              122.1968         estimate D2E/DX2                !
 ! A2    A(2,1,7)              121.3322         estimate D2E/DX2                !
 ! A3    A(6,1,7)              116.471          estimate D2E/DX2                !
 ! A4    A(1,2,3)              121.3762         estimate D2E/DX2                !
 ! A5    A(1,2,8)              122.1042         estimate D2E/DX2                !
 ! A6    A(3,2,8)              116.5196         estimate D2E/DX2                !
 ! A7    A(2,3,4)              123.9426         estimate D2E/DX2                !
 ! A8    A(2,3,5)              115.9539         estimate D2E/DX2                !
 ! A9    A(4,3,5)              120.1035         estimate D2E/DX2                !
 ! D1    D(6,1,2,3)           -179.9997         estimate D2E/DX2                !
 ! D2    D(6,1,2,8)              0.0002         estimate D2E/DX2                !
 ! D3    D(7,1,2,3)              0.0002         estimate D2E/DX2                !
 ! D4    D(7,1,2,8)           -179.9999         estimate D2E/DX2                !
 ! D5    D(1,2,3,4)           -179.999          Frozen                          !
 ! D6    D(1,2,3,5)             -0.0021         estimate D2E/DX2                !
 ! D7    D(8,2,3,4)              0.0011         estimate D2E/DX2                !
 ! D8    D(8,2,3,5)            179.998          estimate D2E/DX2                !
 --------------------------------------------------------------------------------
 Trust Radius=3.00D-01 FncErr=1.00D-07 GrdErr=1.00D-06
 Number of steps in this run=     34 maximum allowed number of steps=    100.
 GradGradGradGradGradGradGradGradGradGradGradGradGradGradGradGradGradGrad

 Leave Link  103 at Wed May 12 11:58:24 2021, MaxMem=  2147483648 cpu:         0.1
 (Enter /opt/cluster/programs/g09_d.01/g09/l202.exe)
                          Input orientation:                          
 ---------------------------------------------------------------------
 Center     Atomic      Atomic             Coordinates (Angstroms)
 Number     Number       Type             X           Y           Z
 ---------------------------------------------------------------------
      1          6           0        1.776099    0.135275    0.000002
      2          6           0        0.561588   -0.443715   -0.000001
      3          6           0       -0.667641    0.358692   -0.000011
      4          8           0       -1.813397   -0.125813    0.000004
      5          1           0       -0.529453    1.455413    0.000020
      6          1           0        2.693113   -0.444769    0.000004
      7          1           0        1.886924    1.218085    0.000000
      8          1           0        0.436324   -1.523729    0.000002
 ---------------------------------------------------------------------
                    Distance matrix (angstroms):
                    1          2          3          4          5
     1  C    0.000000
     2  C    1.345461   0.000000
     3  C    2.453932   1.467944   0.000000
     4  O    3.598979   2.396167   1.243986   0.000000
     5  H    2.656753   2.190219   1.105393   2.036857   0.000000
     6  H    1.085065   2.131525   3.455462   4.517783   3.741072
     7  H    1.088467   2.125581   2.695247   3.936805   2.428004
     8  H    2.132438   1.087254   2.182257   2.648663   3.131775
                    6          7          8
     6  H    0.000000
     7  H    1.847978   0.000000
     8  H    2.501450   3.101900   0.000000
 Stoichiometry    C3H4O
 Framework group  C1[X(C3H4O)]
 Deg. of freedom    18
 Full point group                 C1      NOp   1
 Largest Abelian subgroup         C1      NOp   1
 Largest concise Abelian subgroup C1      NOp   1
                         Standard orientation:                         
 ---------------------------------------------------------------------
 Center     Atomic      Atomic             Coordinates (Angstroms)
 Number     Number       Type             X           Y           Z
 ---------------------------------------------------------------------
      1          6           0        1.776099    0.135275    0.000002
      2          6           0        0.561588   -0.443715   -0.000001
      3          6           0       -0.667641    0.358692   -0.000011
      4          8           0       -1.813397   -0.125813    0.000004
      5          1           0       -0.529453    1.455413    0.000020
      6          1           0        2.693113   -0.444769    0.000004
      7          1           0        1.886924    1.218085    0.000000
      8          1           0        0.436324   -1.523729    0.000002
 ---------------------------------------------------------------------
 Rotational constants (GHZ):     47.9521182      4.5691627      4.1716619
 Leave Link  202 at Wed May 12 11:58:24 2021, MaxMem=  2147483648 cpu:         0.0
 (Enter /opt/cluster/programs/g09_d.01/g09/l301.exe)
 Standard basis: 6-31+G (6D, 7F)
 Ernie: Thresh=  0.10000D-02 Tol=  0.10000D-05 Strict=F.
 There are    60 symmetry adapted cartesian basis functions of A   symmetry.
 There are    60 symmetry adapted basis functions of A   symmetry.
    60 basis functions,   120 primitive gaussians,    60 cartesian basis functions
    15 alpha electrons       15 beta electrons
       nuclear repulsion energy       102.1671704585 Hartrees.
 IExCor= 4639 DFT=T Ex+Corr=wB97XD ExCW=0 ScaHFX=  1.000000
 ScaDFX=  1.000000  1.000000  1.000000  1.000000 ScalE2=  1.000000  1.000000
 IRadAn=      0 IRanWt=     -1 IRanGd=            0 ICorTp=0 IEmpDi=121
  HFx wShort=  0.000000 wLong=  0.200000 cFull=  0.222036 cShort=  0.000000 cLong=  0.777964
  DFx wShort=  0.000000 wLong=  0.200000 cFull=  0.000000 cShort=  0.000000 cLong=  1.000000
 NAtoms=    8 NActive=    8 NUniq=    8 SFac= 1.00D+00 NAtFMM=   60 NAOKFM=F Big=F
 Integral buffers will be    131072 words long.
 Raffenetti 2 integral format.
 Two-electron integral symmetry is turned on.
 R6Disp:  Grimme-D2 Dispersion energy=       -0.0018048011 Hartrees.
 Nuclear repulsion after empirical dispersion term =      102.1653656574 Hartrees.
 Leave Link  301 at Wed May 12 11:58:24 2021, MaxMem=  2147483648 cpu:         0.3
 (Enter /opt/cluster/programs/g09_d.01/g09/l302.exe)
 NPDir=0 NMtPBC=     1 NCelOv=     1 NCel=       1 NClECP=     1 NCelD=      1
         NCelK=      1 NCelE2=     1 NClLst=     1 CellRange=     0.0.
 One-electron integrals computed using PRISM.
 NBasis=    60 RedAO= T EigKep=  1.16D-04  NBF=    60
 NBsUse=    60 1.00D-06 EigRej= -1.00D+00 NBFU=    60
 Precomputing XC quadrature grid using
 IXCGrd= 4 IRadAn=           0 IRanWt=          -1 IRanGd=           0 AccXCQ= 0.00D+00.
 Generated NRdTot=       0 NPtTot=           0 NUsed=           0 NTot=          32
 NSgBfM=    60    60    60    60    60 MxSgAt=     8 MxSgA2=     8.
 Leave Link  302 at Wed May 12 11:58:24 2021, MaxMem=  2147483648 cpu:         0.8
 (Enter /opt/cluster/programs/g09_d.01/g09/l303.exe)
 DipDrv:  MaxL=1.
 Leave Link  303 at Wed May 12 11:58:24 2021, MaxMem=  2147483648 cpu:         0.2
 (Enter /opt/cluster/programs/g09_d.01/g09/l401.exe)
 ExpMin= 4.38D-02 ExpMax= 5.48D+03 ExpMxC= 8.25D+02 IAcc=2 IRadAn=         4 AccDes= 0.00D+00
 Harris functional with IExCor= 4639 and IRadAn=       4 diagonalized for initial guess.
 HarFok:  IExCor= 4639 AccDes= 0.00D+00 IRadAn=         4 IDoV= 1 UseB2=F ITyADJ=14
 ICtDFT=  3500011 ScaDFX=  1.000000  1.000000  1.000000  1.000000
 FoFCou: FMM=F IPFlag=           0 FMFlag=      100000 FMFlg1=           0
         NFxFlg=           0 DoJE=T BraDBF=F KetDBF=T FulRan=T
         wScrn=  0.000000 ICntrl=     500 IOpCl=  0 I1Cent=   200000004 NGrid=           0
         NMat0=    1 NMatS0=      1 NMatT0=    0 NMatD0=    1 NMtDS0=    0 NMtDT0=    0
 Petite list used in FoFCou.
 Harris En= -183.750175874335    
 JPrj=0 DoOrth=F DoCkMO=F.
 Leave Link  401 at Wed May 12 11:58:24 2021, MaxMem=  2147483648 cpu:         1.0
 (Enter /opt/cluster/programs/g09_d.01/g09/l502.exe)
 Closed shell SCF:
 Using DIIS extrapolation, IDIIS=  1040.
 Integral symmetry usage will be decided dynamically.
 Keep R1 ints in memory in canonical form, NReq=4262490.
 IVT=       30290 IEndB=       30290 NGot=  2147483648 MDV=  2144102629
 LenX=  2144102629 LenY=  2144098588
 Requested convergence on RMS density matrix=1.00D-08 within 128 cycles.
 Requested convergence on MAX density matrix=1.00D-06.
 Requested convergence on             energy=1.00D-06.
 No special actions if energy rises.
 FoFCou: FMM=F IPFlag=           0 FMFlag=           0 FMFlg1=           0
         NFxFlg=           0 DoJE=F BraDBF=F KetDBF=F FulRan=T
         wScrn=  0.000000 ICntrl=     600 IOpCl=  0 I1Cent=           0 NGrid=           0
         NMat0=    1 NMatS0=   1830 NMatT0=    0 NMatD0=    1 NMtDS0=    0 NMtDT0=    0
 Symmetry not used in FoFCou.

 Cycle   1  Pass 1  IDiag  1:
 E= -191.758428092482    
 DIIS: error= 2.43D-02 at cycle   1 NSaved=   1.
 NSaved= 1 IEnMin= 1 EnMin= -191.758428092482     IErMin= 1 ErrMin= 2.43D-02
 ErrMax= 2.43D-02  0.00D+00 EMaxC= 1.00D-01 BMatC= 7.11D-02 BMatP= 7.11D-02
 IDIUse=3 WtCom= 7.57D-01 WtEn= 2.43D-01
 Coeff-Com:  0.100D+01
 Coeff-En:   0.100D+01
 Coeff:      0.100D+01
 Gap=     0.392 Goal=   None    Shift=    0.000
 GapD=    0.392 DampG=1.000 DampE=0.500 DampFc=0.5000 IDamp=-1.
 Damping current iteration by 5.00D-01
 RMSDP=4.15D-02 MaxDP=1.27D+00              OVMax= 8.84D-02

 Cycle   2  Pass 1  IDiag  1:
 E= -191.775132505187     Delta-E=       -0.016704412705 Rises=F Damp=T
 DIIS: error= 1.10D-02 at cycle   2 NSaved=   2.
 NSaved= 2 IEnMin= 2 EnMin= -191.775132505187     IErMin= 2 ErrMin= 1.10D-02
 ErrMax= 1.10D-02  0.00D+00 EMaxC= 1.00D-01 BMatC= 1.12D-02 BMatP= 7.11D-02
 IDIUse=3 WtCom= 8.90D-01 WtEn= 1.10D-01
 Coeff-Com: -0.186D+00 0.119D+01
 Coeff-En:   0.000D+00 0.100D+01
 Coeff:     -0.166D+00 0.117D+01
 Gap=     0.384 Goal=   None    Shift=    0.000
 RMSDP=1.59D-02 MaxDP=5.04D-01 DE=-1.67D-02 OVMax= 9.90D-02

 Cycle   3  Pass 1  IDiag  1:
 E= -191.788863117394     Delta-E=       -0.013730612206 Rises=F Damp=F
 DIIS: error= 1.57D-02 at cycle   3 NSaved=   3.
 NSaved= 3 IEnMin= 3 EnMin= -191.788863117394     IErMin= 2 ErrMin= 1.10D-02
 ErrMax= 1.57D-02  0.00D+00 EMaxC= 1.00D-01 BMatC= 8.43D-03 BMatP= 1.12D-02
 IDIUse=3 WtCom= 8.43D-01 WtEn= 1.57D-01
 Coeff-Com: -0.265D+00 0.646D+00 0.618D+00
 Coeff-En:   0.000D+00 0.000D+00 0.100D+01
 Coeff:     -0.223D+00 0.545D+00 0.678D+00
 Gap=     0.345 Goal=   None    Shift=    0.000
 RMSDP=6.62D-03 MaxDP=1.59D-01 DE=-1.37D-02 OVMax= 3.78D-02

 Cycle   4  Pass 1  IDiag  1:
 E= -191.794455452817     Delta-E=       -0.005592335424 Rises=F Damp=F
 DIIS: error= 4.97D-03 at cycle   4 NSaved=   4.
 NSaved= 4 IEnMin= 4 EnMin= -191.794455452817     IErMin= 4 ErrMin= 4.97D-03
 ErrMax= 4.97D-03  0.00D+00 EMaxC= 1.00D-01 BMatC= 1.39D-03 BMatP= 8.43D-03
 IDIUse=3 WtCom= 9.50D-01 WtEn= 4.97D-02
 Coeff-Com: -0.774D-01 0.145D+00 0.361D+00 0.571D+00
 Coeff-En:   0.000D+00 0.000D+00 0.137D+00 0.863D+00
 Coeff:     -0.735D-01 0.138D+00 0.350D+00 0.586D+00
 Gap=     0.339 Goal=   None    Shift=    0.000
 RMSDP=7.52D-04 MaxDP=1.23D-02 DE=-5.59D-03 OVMax= 1.21D-02

 Cycle   5  Pass 1  IDiag  1:
 E= -191.795554830285     Delta-E=       -0.001099377468 Rises=F Damp=F
 DIIS: error= 6.51D-04 at cycle   5 NSaved=   5.
 NSaved= 5 IEnMin= 5 EnMin= -191.795554830285     IErMin= 5 ErrMin= 6.51D-04
 ErrMax= 6.51D-04  0.00D+00 EMaxC= 1.00D-01 BMatC= 1.28D-05 BMatP= 1.39D-03
 IDIUse=3 WtCom= 9.93D-01 WtEn= 6.51D-03
 Coeff-Com: -0.147D-01 0.221D-01 0.929D-01 0.193D+00 0.706D+00
 Coeff-En:   0.000D+00 0.000D+00 0.000D+00 0.000D+00 0.100D+01
 Coeff:     -0.146D-01 0.219D-01 0.923D-01 0.192D+00 0.708D+00
 Gap=     0.338 Goal=   None    Shift=    0.000
 RMSDP=5.57D-04 MaxDP=1.38D-02 DE=-1.10D-03 OVMax= 2.29D-03

 Cycle   6  Pass 1  IDiag  1:
 E= -191.795571379017     Delta-E=       -0.000016548731 Rises=F Damp=F
 DIIS: error= 3.45D-04 at cycle   6 NSaved=   6.
 NSaved= 6 IEnMin= 6 EnMin= -191.795571379017     IErMin= 6 ErrMin= 3.45D-04
 ErrMax= 3.45D-04  0.00D+00 EMaxC= 1.00D-01 BMatC= 2.29D-06 BMatP= 1.28D-05
 IDIUse=3 WtCom= 9.97D-01 WtEn= 3.45D-03
 Coeff-Com:  0.117D-01-0.235D-01-0.453D-01-0.595D-01 0.256D+00 0.861D+00
 Coeff-En:   0.000D+00 0.000D+00 0.000D+00 0.000D+00 0.000D+00 0.100D+01
 Coeff:      0.117D-01-0.234D-01-0.451D-01-0.593D-01 0.255D+00 0.861D+00
 Gap=     0.339 Goal=   None    Shift=    0.000
 RMSDP=4.00D-04 MaxDP=9.83D-03 DE=-1.65D-05 OVMax= 1.33D-03

 Cycle   7  Pass 1  IDiag  1:
 E= -191.795575199979     Delta-E=       -0.000003820962 Rises=F Damp=F
 DIIS: error= 5.03D-05 at cycle   7 NSaved=   7.
 NSaved= 7 IEnMin= 7 EnMin= -191.795575199979     IErMin= 7 ErrMin= 5.03D-05
 ErrMax= 5.03D-05  0.00D+00 EMaxC= 1.00D-01 BMatC= 1.36D-07 BMatP= 2.29D-06
 IDIUse=1 WtCom= 1.00D+00 WtEn= 0.00D+00
 Coeff-Com:  0.437D-02-0.796D-02-0.218D-01-0.333D-01 0.266D-01 0.233D+00
 Coeff-Com:  0.799D+00
 Coeff:      0.437D-02-0.796D-02-0.218D-01-0.333D-01 0.266D-01 0.233D+00
 Coeff:      0.799D+00
 Gap=     0.339 Goal=   None    Shift=    0.000
 RMSDP=7.55D-05 MaxDP=1.79D-03 DE=-3.82D-06 OVMax= 2.59D-04

 Cycle   8  Pass 1  IDiag  1:
 E= -191.795575447388     Delta-E=       -0.000000247410 Rises=F Damp=F
 DIIS: error= 1.45D-05 at cycle   8 NSaved=   8.
 NSaved= 8 IEnMin= 8 EnMin= -191.795575447388     IErMin= 8 ErrMin= 1.45D-05
 ErrMax= 1.45D-05  0.00D+00 EMaxC= 1.00D-01 BMatC= 1.33D-08 BMatP= 1.36D-07
 IDIUse=1 WtCom= 1.00D+00 WtEn= 0.00D+00
 Coeff-Com: -0.144D-02 0.288D-02 0.411D-02 0.594D-02-0.211D-01-0.940D-01
 Coeff-Com:  0.716D-01 0.103D+01
 Coeff:     -0.144D-02 0.288D-02 0.411D-02 0.594D-02-0.211D-01-0.940D-01
 Coeff:      0.716D-01 0.103D+01
 Gap=     0.339 Goal=   None    Shift=    0.000
 RMSDP=1.52D-05 MaxDP=3.30D-04 DE=-2.47D-07 OVMax= 1.15D-04

 Cycle   9  Pass 1  IDiag  1:
 E= -191.795575473908     Delta-E=       -0.000000026519 Rises=F Damp=F
 DIIS: error= 2.11D-06 at cycle   9 NSaved=   9.
 NSaved= 9 IEnMin= 9 EnMin= -191.795575473908     IErMin= 9 ErrMin= 2.11D-06
 ErrMax= 2.11D-06  0.00D+00 EMaxC= 1.00D-01 BMatC= 2.87D-10 BMatP= 1.33D-08
 IDIUse=1 WtCom= 1.00D+00 WtEn= 0.00D+00
 Coeff-Com: -0.102D-03 0.176D-03 0.582D-03 0.943D-03 0.117D-02-0.587D-02
 Coeff-Com: -0.482D-01-0.888D-01 0.114D+01
 Coeff:     -0.102D-03 0.176D-03 0.582D-03 0.943D-03 0.117D-02-0.587D-02
 Coeff:     -0.482D-01-0.888D-01 0.114D+01
 Gap=     0.339 Goal=   None    Shift=    0.000
 RMSDP=1.59D-06 MaxDP=1.62D-05 DE=-2.65D-08 OVMax= 3.16D-05

 Cycle  10  Pass 1  IDiag  1:
 E= -191.795575474955     Delta-E=       -0.000000001048 Rises=F Damp=F
 DIIS: error= 7.37D-07 at cycle  10 NSaved=  10.
 NSaved=10 IEnMin=10 EnMin= -191.795575474955     IErMin=10 ErrMin= 7.37D-07
 ErrMax= 7.37D-07  0.00D+00 EMaxC= 1.00D-01 BMatC= 2.49D-11 BMatP= 2.87D-10
 IDIUse=1 WtCom= 1.00D+00 WtEn= 0.00D+00
 Coeff-Com:  0.501D-04-0.970D-04-0.221D-03-0.249D-03 0.866D-03 0.276D-02
 Coeff-Com:  0.353D-02-0.235D-01-0.116D+00 0.113D+01
 Coeff:      0.501D-04-0.970D-04-0.221D-03-0.249D-03 0.866D-03 0.276D-02
 Coeff:      0.353D-02-0.235D-01-0.116D+00 0.113D+01
 Gap=     0.339 Goal=   None    Shift=    0.000
 RMSDP=3.89D-07 MaxDP=6.23D-06 DE=-1.05D-09 OVMax= 2.93D-06

 Cycle  11  Pass 1  IDiag  1:
 E= -191.795575474991     Delta-E=       -0.000000000035 Rises=F Damp=F
 DIIS: error= 8.99D-08 at cycle  11 NSaved=  11.
 NSaved=11 IEnMin=11 EnMin= -191.795575474991     IErMin=11 ErrMin= 8.99D-08
 ErrMax= 8.99D-08  0.00D+00 EMaxC= 1.00D-01 BMatC= 5.13D-13 BMatP= 2.49D-11
 IDIUse=1 WtCom= 1.00D+00 WtEn= 0.00D+00
 Coeff-Com: -0.720D-06 0.202D-05-0.412D-05-0.571D-05-0.380D-04-0.127D-03
 Coeff-Com:  0.131D-02 0.428D-02-0.210D-01-0.141D+00 0.116D+01
 Coeff:     -0.720D-06 0.202D-05-0.412D-05-0.571D-05-0.380D-04-0.127D-03
 Coeff:      0.131D-02 0.428D-02-0.210D-01-0.141D+00 0.116D+01
 Gap=     0.339 Goal=   None    Shift=    0.000
 RMSDP=5.48D-08 MaxDP=4.25D-07 DE=-3.55D-11 OVMax= 5.15D-07

 Cycle  12  Pass 1  IDiag  1:
 E= -191.795575474991     Delta-E=       -0.000000000001 Rises=F Damp=F
 DIIS: error= 1.29D-08 at cycle  12 NSaved=  12.
 NSaved=12 IEnMin=12 EnMin= -191.795575474991     IErMin=12 ErrMin= 1.29D-08
 ErrMax= 1.29D-08  0.00D+00 EMaxC= 1.00D-01 BMatC= 7.32D-15 BMatP= 5.13D-13
 IDIUse=1 WtCom= 1.00D+00 WtEn= 0.00D+00
 Coeff-Com: -0.106D-05 0.195D-05 0.632D-05 0.829D-05-0.929D-05-0.795D-04
 Coeff-Com: -0.223D-03-0.888D-04 0.658D-02-0.115D-01-0.162D+00 0.117D+01
 Coeff:     -0.106D-05 0.195D-05 0.632D-05 0.829D-05-0.929D-05-0.795D-04
 Coeff:     -0.223D-03-0.888D-04 0.658D-02-0.115D-01-0.162D+00 0.117D+01
 Gap=     0.339 Goal=   None    Shift=    0.000
 RMSDP=2.00D-08 MaxDP=4.22D-07 DE=-6.25D-13 OVMax= 8.17D-08

 Cycle  13  Pass 1  IDiag  1:
 E= -191.795575474992     Delta-E=        0.000000000000 Rises=F Damp=F
 DIIS: error= 1.18D-09 at cycle  13 NSaved=  13.
 NSaved=13 IEnMin=13 EnMin= -191.795575474992     IErMin=13 ErrMin= 1.18D-09
 ErrMax= 1.18D-09  0.00D+00 EMaxC= 1.00D-01 BMatC= 1.49D-16 BMatP= 7.32D-15
 IDIUse=1 WtCom= 1.00D+00 WtEn= 0.00D+00
 Coeff-Com:  0.129D-06-0.244D-06-0.726D-06-0.678D-06 0.128D-05 0.915D-05
 Coeff-Com:  0.155D-04-0.537D-04-0.700D-03 0.467D-02 0.416D-02-0.206D+00
 Coeff-Com:  0.120D+01
 Coeff:      0.129D-06-0.244D-06-0.726D-06-0.678D-06 0.128D-05 0.915D-05
 Coeff:      0.155D-04-0.537D-04-0.700D-03 0.467D-02 0.416D-02-0.206D+00
 Coeff:      0.120D+01
 Gap=     0.339 Goal=   None    Shift=    0.000
 RMSDP=5.43D-09 MaxDP=1.19D-07 DE=-3.98D-13 OVMax= 1.42D-08

 SCF Done:  E(RwB97XD) =  -191.795575475     A.U. after   13 cycles
            NFock= 13  Conv=0.54D-08     -V/T= 2.0060
 KE= 1.906438348313D+02 PE=-6.517009028302D+02 EE= 1.670961268665D+02
 Leave Link  502 at Wed May 12 11:58:25 2021, MaxMem=  2147483648 cpu:         8.6
 (Enter /opt/cluster/programs/g09_d.01/g09/l601.exe)
 Copying SCF densities to generalized density rwf, IOpCl= 0 IROHF=0.

 **********************************************************************

            Population analysis using the SCF density.

 **********************************************************************

 Orbital symmetries:
       Occupied  (A) (A) (A) (A) (A) (A) (A) (A) (A) (A) (A) (A)
                 (A) (A) (A)
       Virtual   (A) (A) (A) (A) (A) (A) (A) (A) (A) (A) (A) (A)
                 (A) (A) (A) (A) (A) (A) (A) (A) (A) (A) (A) (A)
                 (A) (A) (A) (A) (A) (A) (A) (A) (A) (A) (A) (A)
                 (A) (A) (A) (A) (A) (A) (A) (A) (A)
 The electronic state is 1-A.
 Alpha  occ. eigenvalues --  -19.28873 -10.40673 -10.34166 -10.33437  -1.16716
 Alpha  occ. eigenvalues --   -0.92042  -0.76127  -0.68245  -0.58355  -0.57605
 Alpha  occ. eigenvalues --   -0.51220  -0.49640  -0.48898  -0.38144  -0.35397
 Alpha virt. eigenvalues --   -0.01513   0.06922   0.08347   0.08472   0.09253
 Alpha virt. eigenvalues --    0.12038   0.12450   0.12720   0.14876   0.15487
 Alpha virt. eigenvalues --    0.17745   0.18749   0.20197   0.22077   0.26019
 Alpha virt. eigenvalues --    0.28556   0.29018   0.32975   0.33203   0.34553
 Alpha virt. eigenvalues --    0.36320   0.38566   0.43710   0.47356   0.49155
 Alpha virt. eigenvalues --    0.70975   0.71658   0.76566   0.76953   0.80387
 Alpha virt. eigenvalues --    0.86168   0.87902   0.98061   1.02471   1.08422
 Alpha virt. eigenvalues --    1.09571   1.12758   1.20894   1.23896   1.30226
 Alpha virt. eigenvalues --    1.31047   1.37286   1.40320   1.46430   1.92912
          Condensed to atoms (all electrons):
               1          2          3          4          5          6
     1  C    5.762578  -0.436536   0.259473   0.062126   0.116985   0.355892
     2  C   -0.436536   6.581245  -0.027884  -0.220692  -0.259575  -0.009442
     3  C    0.259473  -0.027884   5.025506   0.318046   0.410041   0.004861
     4  O    0.062126  -0.220692   0.318046   8.337535  -0.055578  -0.000521
     5  H    0.116985  -0.259575   0.410041  -0.055578   0.603272   0.000142
     6  H    0.355892  -0.009442   0.004861  -0.000521   0.000142   0.461986
     7  H    0.379477  -0.049454   0.009933   0.000674   0.000959  -0.022917
     8  H   -0.019552   0.351459  -0.006892  -0.006047   0.001499  -0.002105
               7          8
     1  C    0.379477  -0.019552
     2  C   -0.049454   0.351459
     3  C    0.009933  -0.006892
     4  O    0.000674  -0.006047
     5  H    0.000959   0.001499
     6  H   -0.022917  -0.002105
     7  H    0.473743   0.002256
     8  H    0.002256   0.440882
 Mulliken charges:
               1
     1  C   -0.480442
     2  C    0.070879
     3  C    0.006916
     4  O   -0.435542
     5  H    0.182254
     6  H    0.212105
     7  H    0.205330
     8  H    0.238501
 Sum of Mulliken charges =   0.00000
 Mulliken charges with hydrogens summed into heavy atoms:
               1
     1  C   -0.063008
     2  C    0.309380
     3  C    0.189170
     4  O   -0.435542
 Electronic spatial extent (au):  <R**2>=            303.7694
 Charge=              0.0000 electrons
 Dipole moment (field-independent basis, Debye):
    X=              3.7865    Y=              0.8810    Z=              0.0000  Tot=              3.8876
 Quadrupole moment (field-independent basis, Debye-Ang):
   XX=            -28.1795   YY=            -21.6526   ZZ=            -25.4228
   XY=             -1.1694   XZ=              0.0000   YZ=              0.0000
 Traceless Quadrupole moment (field-independent basis, Debye-Ang):
   XX=             -3.0945   YY=              3.4323   ZZ=             -0.3378
   XY=             -1.1694   XZ=              0.0000   YZ=              0.0000
 Octapole moment (field-independent basis, Debye-Ang**2):
  XXX=             19.0756  YYY=              0.1857  ZZZ=              0.0000  XYY=              0.3083
  XXY=              1.1272  XXZ=              0.0000  XZZ=             -4.3698  YZZ=              0.1671
  YYZ=              0.0001  XYZ=              0.0000
 Hexadecapole moment (field-independent basis, Debye-Ang**3):
 XXXX=           -313.9744 YYYY=            -54.7950 ZZZZ=            -27.4688 XXXY=             -3.9421
 XXXZ=              0.0000 YYYX=             -0.1387 YYYZ=              0.0001 ZZZX=             -0.0001
 ZZZY=              0.0000 XXYY=            -59.1512 XXZZ=            -58.7581 YYZZ=            -15.5069
 XXYZ=              0.0000 YYXZ=              0.0000 ZZXY=              0.3002
 N-N= 1.021653656574D+02 E-N=-6.517009028395D+02  KE= 1.906438348313D+02
 No NMR shielding tensors so no spin-rotation constants.
 Leave Link  601 at Wed May 12 11:58:25 2021, MaxMem=  2147483648 cpu:         0.6
 (Enter /opt/cluster/programs/g09_d.01/g09/l701.exe)
 Compute integral first derivatives.
 ... and contract with generalized density number  0.
 R6Disp: Adding Grimme-D2 dispersion energy 1st derivatives to the gradient.
 Leave Link  701 at Wed May 12 11:58:25 2021, MaxMem=  2147483648 cpu:         0.6
 (Enter /opt/cluster/programs/g09_d.01/g09/l702.exe)
 L702 exits ... SP integral derivatives will be done elsewhere.
 Leave Link  702 at Wed May 12 11:58:25 2021, MaxMem=  2147483648 cpu:         0.2
 (Enter /opt/cluster/programs/g09_d.01/g09/l703.exe)
 Compute integral first derivatives, UseDBF=F ICtDFT=           0.
 Integral derivatives from FoFJK, PRISM(SPDF).
 Calling FoFJK, ICntrl=      2127 FMM=F ISym2X=0 I1Cent= 0 IOpClX= 0 NMat=1 NMatS=1 NMatT=0.
 FoFJK:  IHMeth= 1 ICntrl=    2127 DoSepK=T KAlg= 0 I1Cent=   0 FoldK=F
 IRaf=         1 NMat=   1 IRICut=       1 DoRegI=T DoRafI=F ISym2E= 0.
 FoFCou: FMM=F IPFlag=           0 FMFlag=      100000 FMFlg1=         800
         NFxFlg=           0 DoJE=F BraDBF=F KetDBF=F FulRan=T
         wScrn=  0.000000 ICntrl=    2527 IOpCl=  0 I1Cent=           0 NGrid=           0
         NMat0=    1 NMatS0=      1 NMatT0=    0 NMatD0=    1 NMtDS0=    0 NMtDT0=    0
 Symmetry not used in FoFCou.
 Leave Link  703 at Wed May 12 11:58:25 2021, MaxMem=  2147483648 cpu:         2.4
 (Enter /opt/cluster/programs/g09_d.01/g09/l716.exe)
 Dipole        = 1.48972031D+00 3.46624862D-01-2.12891330D-06
 ***** Axes restored to original set *****
 -------------------------------------------------------------------
 Center     Atomic                   Forces (Hartrees/Bohr)
 Number     Number              X              Y              Z
 -------------------------------------------------------------------
      1        6          -0.005343730   -0.001809992   -0.000000170
      2        6           0.005112875    0.000282495   -0.000001922
      3        6          -0.008689751   -0.001289324    0.000006331
      4        8           0.010260486    0.003779651   -0.000002131
      5        1          -0.000624187   -0.001260644   -0.000002196
      6        1          -0.000753128   -0.000089790    0.000000370
      7        1          -0.000245175   -0.000204905   -0.000000143
      8        1           0.000282610    0.000592509   -0.000000138
 -------------------------------------------------------------------
 Cartesian Forces:  Max     0.010260486 RMS     0.003277940
 Leave Link  716 at Wed May 12 11:58:26 2021, MaxMem=  2147483648 cpu:         0.2
 (Enter /opt/cluster/programs/g09_d.01/g09/l103.exe)

 GradGradGradGradGradGradGradGradGradGradGradGradGradGradGradGradGradGrad
 Berny optimization.
 FormGI is forming the generalized inverse of G from B-inverse, IUseBI=4.
 Internal  Forces:  Max     0.010920761 RMS     0.002669439
 Search for a local minimum.
 Step number   1 out of a maximum of   34
 All quantities printed in internal units (Hartrees-Bohrs-Radians)
 RMS Force = .27269D-02 SwitMx=.10000D-02 MixMth= 1
 Mixed Optimization -- RFO/linear search
 Second derivative matrix not updated -- first step.
 ITU=  0
     Eigenvalues ---    0.01190   0.01881   0.02810   0.02810   0.16000
     Eigenvalues ---    0.16000   0.16000   0.16000   0.22000   0.22000
     Eigenvalues ---    0.33093   0.34990   0.35132   0.35389   0.35987
     Eigenvalues ---    0.55998   0.854991000.000001000.000001000.00000
     Eigenvalues --- 1000.000001000.000001000.000001000.00000
 RFO step:  Lambda=-2.51140361D-04 EMin= 1.18998083D-02
 Linear search not attempted -- first point.
 Iteration  1 RMS(Cart)=  0.00688894 RMS(Int)=  0.00000705
 Iteration  2 RMS(Cart)=  0.00000691 RMS(Int)=  0.00000001
 Iteration  3 RMS(Cart)=  0.00000000 RMS(Int)=  0.00000001
 Iteration  1 RMS(Cart)=  0.00000000 RMS(Int)=  0.00000000
 ITry= 1 IFail=0 DXMaxC= 2.14D-02 DCOld= 1.00D+10 DXMaxT= 3.00D-01 DXLimC= 3.00D+00 Rises=F
 Variable       Old X    -DE/DX   Delta X   Delta X   Delta X     New X
                                 (Linear)    (Quad)   (Total)
    R1        2.54255  -0.00663   0.00000  -0.01183  -0.01183   2.53072
    R2        2.05048  -0.00059   0.00000  -0.00167  -0.00167   2.04881
    R3        2.05690  -0.00023   0.00000  -0.00065  -0.00065   2.05626
    R4        2.77401  -0.00012   0.00000  -0.00034  -0.00034   2.77367
    R5        2.05461  -0.00062   0.00000  -0.00177  -0.00177   2.05285
    R6        2.35079  -0.01092   0.00000  -0.01277  -0.01277   2.33802
    R7        2.08889  -0.00133   0.00000  -0.00402  -0.00402   2.08487
    A1        2.13274  -0.00049   0.00000  -0.00308  -0.00308   2.12966
    A2        2.11765   0.00001   0.00000   0.00009   0.00009   2.11774
    A3        2.03280   0.00048   0.00000   0.00299   0.00299   2.03579
    A4        2.11841  -0.00123   0.00000  -0.00560  -0.00560   2.11282
    A5        2.13112   0.00039   0.00000   0.00141   0.00141   2.13253
    A6        2.03365   0.00084   0.00000   0.00418   0.00418   2.03783
    A7        2.16321  -0.00114   0.00000  -0.00517  -0.00517   2.15804
    A8        2.02378   0.00105   0.00000   0.00561   0.00561   2.02939
    A9        2.09620   0.00008   0.00000  -0.00044  -0.00044   2.09576
    D1       -3.14159   0.00000   0.00000  -0.00004  -0.00004   3.14156
    D2        0.00000   0.00000   0.00000   0.00001   0.00001   0.00002
    D3        0.00000   0.00000   0.00000  -0.00003  -0.00003  -0.00003
    D4       -3.14159   0.00000   0.00000   0.00002   0.00002  -3.14157
    D5       -3.14158   0.00000   0.00000   0.00000   0.00000  -3.14158
    D6       -0.00004   0.00000   0.00000   0.00019   0.00019   0.00015
    D7        0.00002   0.00000   0.00000  -0.00005  -0.00005  -0.00003
    D8        3.14156   0.00000   0.00000   0.00014   0.00014  -3.14148
         Item               Value     Threshold  Converged?
 Maximum Force            0.010921     0.000450     NO 
 RMS     Force            0.002727     0.000300     NO 
 Maximum Displacement     0.021446     0.001800     NO 
 RMS     Displacement     0.006890     0.001200     NO 
 Predicted change in Energy=-1.256271D-04
 Lowest energy point so far.  Saving SCF results.
 GradGradGradGradGradGradGradGradGradGradGradGradGradGradGradGradGradGrad

 Leave Link  103 at Wed May 12 11:58:26 2021, MaxMem=  2147483648 cpu:         0.0
 (Enter /opt/cluster/programs/g09_d.01/g09/l202.exe)
                          Input orientation:                          
 ---------------------------------------------------------------------
 Center     Atomic      Atomic             Coordinates (Angstroms)
 Number     Number       Type             X           Y           Z
 ---------------------------------------------------------------------
      1          6           0        1.770445    0.134392    0.000008
      2          6           0        0.563122   -0.445118   -0.000014
      3          6           0       -0.663595    0.360794    0.000037
      4          8           0       -1.802048   -0.123622    0.000037
      5          1           0       -0.528602    1.455769   -0.000059
      6          1           0        2.686473   -0.445561   -0.000002
      7          1           0        1.878450    1.217144    0.000040
      8          1           0        0.439312   -1.524359   -0.000027
 ---------------------------------------------------------------------
                    Distance matrix (angstroms):
                    1          2          3          4          5
     1  C    0.000000
     2  C    1.339201   0.000000
     3  C    2.444546   1.467763   0.000000
     4  O    3.581798   2.386921   1.237229   0.000000
     5  H    2.651726   2.192084   1.103265   2.028828   0.000000
     6  H    1.084183   2.123351   3.445745   4.500052   3.735206
     7  H    1.088125   2.119718   2.682411   3.917107   2.418852
     8  H    2.126821   1.086319   2.184080   2.643058   3.133372
                    6          7          8
     6  H    0.000000
     7  H    1.848645   0.000000
     8  H    2.492697   3.096281   0.000000
 Stoichiometry    C3H4O
 Framework group  C1[X(C3H4O)]
 Deg. of freedom    18
 Full point group                 C1      NOp   1
 RotChk:  IX=2 Diff= 2.18D-03
 Largest Abelian subgroup         C1      NOp   1
 Largest concise Abelian subgroup C1      NOp   1
                         Standard orientation:                         
 ---------------------------------------------------------------------
 Center     Atomic      Atomic             Coordinates (Angstroms)
 Number     Number       Type             X           Y           Z
 ---------------------------------------------------------------------
      1          6           0        1.767600    0.136638   -0.000007
      2          6           0        0.561173   -0.444734   -0.000029
      3          6           0       -0.666786    0.359285    0.000022
      4          8           0       -1.804491   -0.126886    0.000023
      5          1           0       -0.533481    1.454467   -0.000074
      6          1           0        2.684522   -0.441902   -0.000016
      7          1           0        1.873936    1.219554    0.000025
      8          1           0        0.439027   -1.524164   -0.000042
 ---------------------------------------------------------------------
 Rotational constants (GHZ):     47.8421387      4.6100721      4.2048887
 Leave Link  202 at Wed May 12 11:58:26 2021, MaxMem=  2147483648 cpu:         0.0
 (Enter /opt/cluster/programs/g09_d.01/g09/l301.exe)
 Standard basis: 6-31+G (6D, 7F)
 Ernie: Thresh=  0.10000D-02 Tol=  0.10000D-05 Strict=F.
 There are    60 symmetry adapted cartesian basis functions of A   symmetry.
 There are    60 symmetry adapted basis functions of A   symmetry.
    60 basis functions,   120 primitive gaussians,    60 cartesian basis functions
    15 alpha electrons       15 beta electrons
       nuclear repulsion energy       102.5070126339 Hartrees.
 IExCor= 4639 DFT=T Ex+Corr=wB97XD ExCW=0 ScaHFX=  1.000000
 ScaDFX=  1.000000  1.000000  1.000000  1.000000 ScalE2=  1.000000  1.000000
 IRadAn=      0 IRanWt=     -1 IRanGd=            0 ICorTp=0 IEmpDi=121
  HFx wShort=  0.000000 wLong=  0.200000 cFull=  0.222036 cShort=  0.000000 cLong=  0.777964
  DFx wShort=  0.000000 wLong=  0.200000 cFull=  0.000000 cShort=  0.000000 cLong=  1.000000
 NAtoms=    8 NActive=    8 NUniq=    8 SFac= 1.00D+00 NAtFMM=   60 NAOKFM=F Big=F
 Integral buffers will be    131072 words long.
 Raffenetti 2 integral format.
 Two-electron integral symmetry is turned on.
 R6Disp:  Grimme-D2 Dispersion energy=       -0.0018038580 Hartrees.
 Nuclear repulsion after empirical dispersion term =      102.5052087759 Hartrees.
 Leave Link  301 at Wed May 12 11:58:26 2021, MaxMem=  2147483648 cpu:         0.3
 (Enter /opt/cluster/programs/g09_d.01/g09/l302.exe)
 NPDir=0 NMtPBC=     1 NCelOv=     1 NCel=       1 NClECP=     1 NCelD=      1
         NCelK=      1 NCelE2=     1 NClLst=     1 CellRange=     0.0.
 One-electron integrals computed using PRISM.
 NBasis=    60 RedAO= T EigKep=  1.14D-04  NBF=    60
 NBsUse=    60 1.00D-06 EigRej= -1.00D+00 NBFU=    60
 Precomputing XC quadrature grid using
 IXCGrd= 4 IRadAn=           0 IRanWt=          -1 IRanGd=           0 AccXCQ= 0.00D+00.
 Generated NRdTot=       0 NPtTot=           0 NUsed=           0 NTot=          32
 NSgBfM=    60    60    60    60    60 MxSgAt=     8 MxSgA2=     8.
 Leave Link  302 at Wed May 12 11:58:26 2021, MaxMem=  2147483648 cpu:         0.8
 (Enter /opt/cluster/programs/g09_d.01/g09/l303.exe)
 DipDrv:  MaxL=1.
 Leave Link  303 at Wed May 12 11:58:26 2021, MaxMem=  2147483648 cpu:         0.2
 (Enter /opt/cluster/programs/g09_d.01/g09/l401.exe)
 Initial guess from the checkpoint file:  "/home/unibas/boittier/RDKit_G2/L.pdb/SCAN_1_2_3_4_S_17_20.0/0_SCAN_1_2_3_4_F/L.pdb.chk"
 B after Tr=     0.000000    0.000000    0.000000
         Rot=    1.000000   -0.000005   -0.000005   -0.000506 Ang=  -0.06 deg.
 Guess basis will be translated and rotated to current coordinates.
 JPrj=2 DoOrth=T DoCkMO=T.
 Generating alternative initial guess.
 ExpMin= 4.38D-02 ExpMax= 5.48D+03 ExpMxC= 8.25D+02 IAcc=2 IRadAn=         4 AccDes= 0.00D+00
 Harris functional with IExCor= 4639 and IRadAn=       4 diagonalized for initial guess.
 HarFok:  IExCor= 4639 AccDes= 0.00D+00 IRadAn=         4 IDoV= 1 UseB2=F ITyADJ=14
 ICtDFT=  3500011 ScaDFX=  1.000000  1.000000  1.000000  1.000000
 FoFCou: FMM=F IPFlag=           0 FMFlag=      100000 FMFlg1=           0
         NFxFlg=           0 DoJE=T BraDBF=F KetDBF=T FulRan=T
         wScrn=  0.000000 ICntrl=     500 IOpCl=  0 I1Cent=   200000004 NGrid=           0
         NMat0=    1 NMatS0=      1 NMatT0=    0 NMatD0=    1 NMtDS0=    0 NMtDT0=    0
 Petite list used in FoFCou.
 Harris En= -183.747706190740    
 Leave Link  401 at Wed May 12 11:58:26 2021, MaxMem=  2147483648 cpu:         1.4
 (Enter /opt/cluster/programs/g09_d.01/g09/l502.exe)
 Closed shell SCF:
 Using DIIS extrapolation, IDIIS=  1040.
 Integral symmetry usage will be decided dynamically.
 Keep R1 ints in memory in canonical form, NReq=4262490.
 IVT=       30290 IEndB=       30290 NGot=  2147483648 MDV=  2144102629
 LenX=  2144102629 LenY=  2144098588
 Requested convergence on RMS density matrix=1.00D-08 within 128 cycles.
 Requested convergence on MAX density matrix=1.00D-06.
 Requested convergence on             energy=1.00D-06.
 No special actions if energy rises.
 FoFCou: FMM=F IPFlag=           0 FMFlag=           0 FMFlg1=           0
         NFxFlg=           0 DoJE=F BraDBF=F KetDBF=F FulRan=T
         wScrn=  0.000000 ICntrl=     600 IOpCl=  0 I1Cent=           0 NGrid=           0
         NMat0=    1 NMatS0=   1830 NMatT0=    0 NMatD0=    1 NMtDS0=    0 NMtDT0=    0
 Symmetry not used in FoFCou.

 Cycle   1  Pass 1  IDiag  1:
 E= -191.795645194014    
 DIIS: error= 6.25D-04 at cycle   1 NSaved=   1.
 NSaved= 1 IEnMin= 1 EnMin= -191.795645194014     IErMin= 1 ErrMin= 6.25D-04
 ErrMax= 6.25D-04  0.00D+00 EMaxC= 1.00D-01 BMatC= 3.69D-05 BMatP= 3.69D-05
 IDIUse=3 WtCom= 9.94D-01 WtEn= 6.25D-03
 Coeff-Com:  0.100D+01
 Coeff-En:   0.100D+01
 Coeff:      0.100D+01
 Gap=     0.615 Goal=   None    Shift=    0.000
 RMSDP=3.24D-04 MaxDP=3.39D-03              OVMax= 1.73D-03

 Cycle   2  Pass 1  IDiag  1:
 E= -191.795690878794     Delta-E=       -0.000045684780 Rises=F Damp=F
 DIIS: error= 1.75D-04 at cycle   2 NSaved=   2.
 NSaved= 2 IEnMin= 2 EnMin= -191.795690878794     IErMin= 2 ErrMin= 1.75D-04
 ErrMax= 1.75D-04  0.00D+00 EMaxC= 1.00D-01 BMatC= 2.64D-06 BMatP= 3.69D-05
 IDIUse=3 WtCom= 9.98D-01 WtEn= 1.75D-03
 Coeff-Com:  0.690D-01 0.931D+00
 Coeff-En:   0.000D+00 0.100D+01
 Coeff:      0.689D-01 0.931D+00
 Gap=     0.341 Goal=   None    Shift=    0.000
 RMSDP=1.27D-04 MaxDP=2.94D-03 DE=-4.57D-05 OVMax= 5.45D-04

 Cycle   3  Pass 1  IDiag  1:
 E= -191.795693928103     Delta-E=       -0.000003049309 Rises=F Damp=F
 DIIS: error= 9.66D-05 at cycle   3 NSaved=   3.
 NSaved= 3 IEnMin= 3 EnMin= -191.795693928103     IErMin= 3 ErrMin= 9.66D-05
 ErrMax= 9.66D-05  0.00D+00 EMaxC= 1.00D-01 BMatC= 4.90D-07 BMatP= 2.64D-06
 IDIUse=1 WtCom= 1.00D+00 WtEn= 0.00D+00
 Coeff-Com: -0.501D-01 0.253D+00 0.797D+00
 Coeff:     -0.501D-01 0.253D+00 0.797D+00
 Gap=     0.341 Goal=   None    Shift=    0.000
 RMSDP=2.28D-05 MaxDP=2.95D-04 DE=-3.05D-06 OVMax= 2.33D-04

 Cycle   4  Pass 1  IDiag  1:
 E= -191.795694523589     Delta-E=       -0.000000595486 Rises=F Damp=F
 DIIS: error= 2.07D-05 at cycle   4 NSaved=   4.
 NSaved= 4 IEnMin= 4 EnMin= -191.795694523589     IErMin= 4 ErrMin= 2.07D-05
 ErrMax= 2.07D-05  0.00D+00 EMaxC= 1.00D-01 BMatC= 1.15D-08 BMatP= 4.90D-07
 IDIUse=1 WtCom= 1.00D+00 WtEn= 0.00D+00
 Coeff-Com: -0.490D-02-0.134D-01 0.573D-01 0.961D+00
 Coeff:     -0.490D-02-0.134D-01 0.573D-01 0.961D+00
 Gap=     0.341 Goal=   None    Shift=    0.000
 RMSDP=9.02D-06 MaxDP=1.43D-04 DE=-5.95D-07 OVMax= 7.45D-05

 Cycle   5  Pass 1  IDiag  1:
 E= -191.795694538361     Delta-E=       -0.000000014772 Rises=F Damp=F
 DIIS: error= 1.37D-05 at cycle   5 NSaved=   5.
 NSaved= 5 IEnMin= 5 EnMin= -191.795694538361     IErMin= 5 ErrMin= 1.37D-05
 ErrMax= 1.37D-05  0.00D+00 EMaxC= 1.00D-01 BMatC= 7.23D-09 BMatP= 1.15D-08
 IDIUse=1 WtCom= 1.00D+00 WtEn= 0.00D+00
 Coeff-Com:  0.320D-02-0.339D-01-0.587D-01 0.505D+00 0.584D+00
 Coeff:      0.320D-02-0.339D-01-0.587D-01 0.505D+00 0.584D+00
 Gap=     0.341 Goal=   None    Shift=    0.000
 RMSDP=1.98D-06 MaxDP=1.87D-05 DE=-1.48D-08 OVMax= 3.40D-05

 Cycle   6  Pass 1  IDiag  1:
 E= -191.795694545736     Delta-E=       -0.000000007375 Rises=F Damp=F
 DIIS: error= 3.44D-06 at cycle   6 NSaved=   6.
 NSaved= 6 IEnMin= 6 EnMin= -191.795694545736     IErMin= 6 ErrMin= 3.44D-06
 ErrMax= 3.44D-06  0.00D+00 EMaxC= 1.00D-01 BMatC= 3.73D-10 BMatP= 7.23D-09
 IDIUse=1 WtCom= 1.00D+00 WtEn= 0.00D+00
 Coeff-Com:  0.181D-02-0.129D-01-0.283D-01 0.114D+00 0.225D+00 0.700D+00
 Coeff:      0.181D-02-0.129D-01-0.283D-01 0.114D+00 0.225D+00 0.700D+00
 Gap=     0.341 Goal=   None    Shift=    0.000
 RMSDP=8.46D-07 MaxDP=9.89D-06 DE=-7.37D-09 OVMax= 1.53D-05

 Cycle   7  Pass 1  IDiag  1:
 E= -191.795694546114     Delta-E=       -0.000000000378 Rises=F Damp=F
 DIIS: error= 1.63D-06 at cycle   7 NSaved=   7.
 NSaved= 7 IEnMin= 7 EnMin= -191.795694546114     IErMin= 7 ErrMin= 1.63D-06
 ErrMax= 1.63D-06  0.00D+00 EMaxC= 1.00D-01 BMatC= 1.27D-10 BMatP= 3.73D-10
 IDIUse=1 WtCom= 1.00D+00 WtEn= 0.00D+00
 Coeff-Com:  0.129D-03 0.138D-02-0.894D-03-0.594D-01-0.144D-01 0.389D+00
 Coeff-Com:  0.684D+00
 Coeff:      0.129D-03 0.138D-02-0.894D-03-0.594D-01-0.144D-01 0.389D+00
 Coeff:      0.684D+00
 Gap=     0.341 Goal=   None    Shift=    0.000
 RMSDP=8.45D-07 MaxDP=1.87D-05 DE=-3.78D-10 OVMax= 3.82D-06

 Cycle   8  Pass 1  IDiag  1:
 E= -191.795694546245     Delta-E=       -0.000000000132 Rises=F Damp=F
 DIIS: error= 3.40D-07 at cycle   8 NSaved=   8.
 NSaved= 8 IEnMin= 8 EnMin= -191.795694546245     IErMin= 8 ErrMin= 3.40D-07
 ErrMax= 3.40D-07  0.00D+00 EMaxC= 1.00D-01 BMatC= 4.81D-12 BMatP= 1.27D-10
 IDIUse=1 WtCom= 1.00D+00 WtEn= 0.00D+00
 Coeff-Com: -0.765D-04 0.140D-02 0.176D-02-0.310D-01-0.207D-01 0.917D-01
 Coeff-Com:  0.240D+00 0.717D+00
 Coeff:     -0.765D-04 0.140D-02 0.176D-02-0.310D-01-0.207D-01 0.917D-01
 Coeff:      0.240D+00 0.717D+00
 Gap=     0.341 Goal=   None    Shift=    0.000
 RMSDP=2.19D-07 MaxDP=5.16D-06 DE=-1.32D-10 OVMax= 1.54D-06

 Cycle   9  Pass 1  IDiag  1:
 E= -191.795694546253     Delta-E=       -0.000000000007 Rises=F Damp=F
 DIIS: error= 9.63D-08 at cycle   9 NSaved=   9.
 NSaved= 9 IEnMin= 9 EnMin= -191.795694546253     IErMin= 9 ErrMin= 9.63D-08
 ErrMax= 9.63D-08  0.00D+00 EMaxC= 1.00D-01 BMatC= 3.99D-13 BMatP= 4.81D-12
 IDIUse=1 WtCom= 1.00D+00 WtEn= 0.00D+00
 Coeff-Com: -0.206D-04-0.919D-04 0.337D-03 0.596D-02 0.199D-02-0.494D-01
 Coeff-Com: -0.899D-01 0.876D-01 0.104D+01
 Coeff:     -0.206D-04-0.919D-04 0.337D-03 0.596D-02 0.199D-02-0.494D-01
 Coeff:     -0.899D-01 0.876D-01 0.104D+01
 Gap=     0.341 Goal=   None    Shift=    0.000
 RMSDP=1.73D-07 MaxDP=4.17D-06 DE=-7.39D-12 OVMax= 8.17D-07

 Cycle  10  Pass 1  IDiag  1:
 E= -191.795694546254     Delta-E=       -0.000000000002 Rises=F Damp=F
 DIIS: error= 1.91D-08 at cycle  10 NSaved=  10.
 NSaved=10 IEnMin=10 EnMin= -191.795694546254     IErMin=10 ErrMin= 1.91D-08
 ErrMax= 1.91D-08  0.00D+00 EMaxC= 1.00D-01 BMatC= 1.65D-14 BMatP= 3.99D-13
 IDIUse=1 WtCom= 1.00D+00 WtEn= 0.00D+00
 Coeff-Com:  0.556D-05-0.459D-04-0.104D-03 0.460D-03 0.839D-03 0.323D-02
 Coeff-Com: -0.700D-02-0.273D-01-0.128D+00 0.116D+01
 Coeff:      0.556D-05-0.459D-04-0.104D-03 0.460D-03 0.839D-03 0.323D-02
 Coeff:     -0.700D-02-0.273D-01-0.128D+00 0.116D+01
 Gap=     0.341 Goal=   None    Shift=    0.000
 RMSDP=3.50D-08 MaxDP=7.96D-07 DE=-1.65D-12 OVMax= 2.03D-07

 Cycle  11  Pass 1  IDiag  1:
 E= -191.795694546255     Delta-E=       -0.000000000001 Rises=F Damp=F
 DIIS: error= 9.27D-09 at cycle  11 NSaved=  11.
 NSaved=11 IEnMin=11 EnMin= -191.795694546255     IErMin=11 ErrMin= 9.27D-09
 ErrMax= 9.27D-09  0.00D+00 EMaxC= 1.00D-01 BMatC= 8.06D-16 BMatP= 1.65D-14
 IDIUse=1 WtCom= 1.00D+00 WtEn= 0.00D+00
 Coeff-Com: -0.793D-06 0.180D-04 0.191D-04-0.436D-03-0.338D-03 0.152D-02
 Coeff-Com:  0.634D-02 0.513D-02-0.123D-01-0.367D+00 0.137D+01
 Coeff:     -0.793D-06 0.180D-04 0.191D-04-0.436D-03-0.338D-03 0.152D-02
 Coeff:      0.634D-02 0.513D-02-0.123D-01-0.367D+00 0.137D+01
 Gap=     0.341 Goal=   None    Shift=    0.000
 RMSDP=5.51D-09 MaxDP=8.41D-08 DE=-6.82D-13 OVMax= 1.06D-07

 SCF Done:  E(RwB97XD) =  -191.795694546     A.U. after   11 cycles
            NFock= 11  Conv=0.55D-08     -V/T= 2.0058
 KE= 1.906952755036D+02 PE=-6.524213534853D+02 EE= 1.674251746596D+02
 Leave Link  502 at Wed May 12 11:58:27 2021, MaxMem=  2147483648 cpu:         7.5
 (Enter /opt/cluster/programs/g09_d.01/g09/l701.exe)
 Compute integral first derivatives.
 ... and contract with generalized density number  0.
 R6Disp: Adding Grimme-D2 dispersion energy 1st derivatives to the gradient.
 Leave Link  701 at Wed May 12 11:58:27 2021, MaxMem=  2147483648 cpu:         0.6
 (Enter /opt/cluster/programs/g09_d.01/g09/l702.exe)
 L702 exits ... SP integral derivatives will be done elsewhere.
 Leave Link  702 at Wed May 12 11:58:27 2021, MaxMem=  2147483648 cpu:         0.2
 (Enter /opt/cluster/programs/g09_d.01/g09/l703.exe)
 Compute integral first derivatives, UseDBF=F ICtDFT=           0.
 Integral derivatives from FoFJK, PRISM(SPDF).
 Calling FoFJK, ICntrl=      2127 FMM=F ISym2X=0 I1Cent= 0 IOpClX= 0 NMat=1 NMatS=1 NMatT=0.
 FoFJK:  IHMeth= 1 ICntrl=    2127 DoSepK=T KAlg= 0 I1Cent=   0 FoldK=F
 IRaf=         1 NMat=   1 IRICut=       1 DoRegI=T DoRafI=F ISym2E= 0.
 FoFCou: FMM=F IPFlag=           0 FMFlag=      100000 FMFlg1=         800
         NFxFlg=           0 DoJE=F BraDBF=F KetDBF=F FulRan=T
         wScrn=  0.000000 ICntrl=    2527 IOpCl=  0 I1Cent=           0 NGrid=           0
         NMat0=    1 NMatS0=      1 NMatT0=    0 NMatD0=    1 NMtDS0=    0 NMtDT0=    0
 Symmetry not used in FoFCou.
 Leave Link  703 at Wed May 12 11:58:27 2021, MaxMem=  2147483648 cpu:         2.4
 (Enter /opt/cluster/programs/g09_d.01/g09/l716.exe)
 Dipole        = 1.46943151D+00 3.46652661D-01-2.02365640D-05
 ***** Axes restored to original set *****
 -------------------------------------------------------------------
 Center     Atomic                   Forces (Hartrees/Bohr)
 Number     Number              X              Y              Z
 -------------------------------------------------------------------
      1        6           0.000847567    0.000325567   -0.000000803
      2        6           0.000393848   -0.000524149    0.000007659
      3        6          -0.002379817   -0.000650442   -0.000016502
      4        8           0.000738873    0.000531474    0.000004981
      5        1           0.000374330    0.000159300    0.000005835
      6        1           0.000177655    0.000077779   -0.000000660
      7        1           0.000089930   -0.000031825    0.000000145
      8        1          -0.000242385    0.000112296   -0.000000657
 -------------------------------------------------------------------
 Cartesian Forces:  Max     0.002379817 RMS     0.000593478
 Leave Link  716 at Wed May 12 11:58:27 2021, MaxMem=  2147483648 cpu:         0.2
 (Enter /opt/cluster/programs/g09_d.01/g09/l103.exe)

 GradGradGradGradGradGradGradGradGradGradGradGradGradGradGradGradGradGrad
 Berny optimization.
 Using GEDIIS/GDIIS optimizer.
 FormGI is forming the generalized inverse of G from B-inverse, IUseBI=4.
 Internal  Forces:  Max     0.001170187 RMS     0.000428045
 Search for a local minimum.
 Step number   2 out of a maximum of   34
 All quantities printed in internal units (Hartrees-Bohrs-Radians)
 RMS Force = .43725D-03 SwitMx=.10000D-02 MixMth= 2
 Mixed Optimization -- En-DIIS/RFO-DIIS
 Update second derivatives using D2CorX and points    1    2
 DE= -1.19D-04 DEPred=-1.26D-04 R= 9.48D-01
 TightC=F SS=  1.41D+00  RLast= 2.13D-02 DXNew= 5.0454D-01 6.3868D-02
 Trust test= 9.48D-01 RLast= 2.13D-02 DXMaxT set to 3.00D-01
 ITU=  1  0
 Use linear search instead of GDIIS.
     Eigenvalues ---    0.01190   0.01880   0.02810   0.02810   0.15975
     Eigenvalues ---    0.16000   0.16000   0.16374   0.21960   0.23005
     Eigenvalues ---    0.33148   0.34932   0.35026   0.35359   0.36062
     Eigenvalues ---    0.62092   0.765971000.000001000.000001000.00000
     Eigenvalues --- 1000.000001000.000001000.000001000.00000
 RFO step:  Lambda=-1.01599144D-05 EMin= 1.18999665D-02
 Quartic linear search produced a step of -0.05322.
 Iteration  1 RMS(Cart)=  0.00142842 RMS(Int)=  0.00000115
 Iteration  2 RMS(Cart)=  0.00000136 RMS(Int)=  0.00000004
 Iteration  3 RMS(Cart)=  0.00000000 RMS(Int)=  0.00000004
 Iteration  1 RMS(Cart)=  0.00000001 RMS(Int)=  0.00000001
 ITry= 1 IFail=0 DXMaxC= 3.46D-03 DCOld= 1.00D+10 DXMaxT= 3.00D-01 DXLimC= 3.00D+00 Rises=F
 Variable       Old X    -DE/DX   Delta X   Delta X   Delta X     New X
                                 (Linear)    (Quad)   (Total)
    R1        2.53072   0.00117   0.00063   0.00086   0.00149   2.53221
    R2        2.04881   0.00011   0.00009   0.00013   0.00022   2.04902
    R3        2.05626  -0.00002   0.00003  -0.00011  -0.00008   2.05618
    R4        2.77367   0.00108   0.00002   0.00280   0.00282   2.77649
    R5        2.05285  -0.00008   0.00009  -0.00039  -0.00030   2.05254
    R6        2.33802  -0.00089   0.00068  -0.00219  -0.00151   2.33652
    R7        2.08487   0.00020   0.00021   0.00019   0.00040   2.08527
    A1        2.12966   0.00017   0.00016   0.00069   0.00085   2.13051
    A2        2.11774   0.00001   0.00000   0.00006   0.00005   2.11779
    A3        2.03579  -0.00017  -0.00016  -0.00075  -0.00091   2.03488
    A4        2.11282   0.00029   0.00030   0.00072   0.00102   2.11384
    A5        2.13253   0.00011  -0.00008   0.00102   0.00094   2.13348
    A6        2.03783  -0.00040  -0.00022  -0.00174  -0.00196   2.03587
    A7        2.15804   0.00054   0.00028   0.00184   0.00212   2.16016
    A8        2.02939  -0.00064  -0.00030  -0.00278  -0.00308   2.02631
    A9        2.09576   0.00009   0.00002   0.00094   0.00096   2.09672
    D1        3.14156   0.00000   0.00000   0.00009   0.00009  -3.14153
    D2        0.00002   0.00000   0.00000  -0.00006  -0.00006  -0.00004
    D3       -0.00003   0.00000   0.00000   0.00008   0.00008   0.00005
    D4       -3.14157   0.00000   0.00000  -0.00007  -0.00007   3.14154
    D5       -3.14158   0.00000   0.00000   0.00000   0.00000  -3.14158
    D6        0.00015  -0.00001  -0.00001  -0.00049  -0.00050  -0.00034
    D7       -0.00003   0.00001   0.00000   0.00014   0.00014   0.00012
    D8       -3.14148   0.00000  -0.00001  -0.00035  -0.00035   3.14135
         Item               Value     Threshold  Converged?
 Maximum Force            0.001170     0.000450     NO 
 RMS     Force            0.000437     0.000300     NO 
 Maximum Displacement     0.003458     0.001800     NO 
 RMS     Displacement     0.001429     0.001200     NO 
 Predicted change in Energy=-5.477082D-06
 Lowest energy point so far.  Saving SCF results.
 GradGradGradGradGradGradGradGradGradGradGradGradGradGradGradGradGradGrad

 Leave Link  103 at Wed May 12 11:58:27 2021, MaxMem=  2147483648 cpu:         0.0
 (Enter /opt/cluster/programs/g09_d.01/g09/l202.exe)
                          Input orientation:                          
 ---------------------------------------------------------------------
 Center     Atomic      Atomic             Coordinates (Angstroms)
 Number     Number       Type             X           Y           Z
 ---------------------------------------------------------------------
      1          6           0        1.771397    0.134487   -0.000006
      2          6           0        0.563376   -0.445390    0.000026
      3          6           0       -0.665425    0.360066   -0.000087
      4          8           0       -1.803668   -0.122809   -0.000045
      5          1           0       -0.528173    1.454976    0.000142
      6          1           0        2.688028   -0.444727    0.000016
      7          1           0        1.879433    1.217193   -0.000066
      8          1           0        0.438588   -1.524357    0.000040
 ---------------------------------------------------------------------
                    Distance matrix (angstroms):
                    1          2          3          4          5
     1  C    0.000000
     2  C    1.339990   0.000000
     3  C    2.447241   1.469255   0.000000
     4  O    3.584312   2.388923   1.236432   0.000000
     5  H    2.651738   2.191545   1.103479   2.028865   0.000000
     6  H    1.084297   2.124652   3.448672   4.503217   3.735347
     7  H    1.088083   2.120422   2.685325   3.919291   2.419320
     8  H    2.127943   1.086160   2.184009   2.644248   3.132260
                    6          7          8
     6  H    0.000000
     7  H    1.848189   0.000000
     8  H    2.495111   3.097117   0.000000
 Stoichiometry    C3H4O
 Framework group  C1[X(C3H4O)]
 Deg. of freedom    18
 Full point group                 C1      NOp   1
 RotChk:  IX=0 Diff= 1.58D-04
 Largest Abelian subgroup         C1      NOp   1
 Largest concise Abelian subgroup C1      NOp   1
                         Standard orientation:                         
 ---------------------------------------------------------------------
 Center     Atomic      Atomic             Coordinates (Angstroms)
 Number     Number       Type             X           Y           Z
 ---------------------------------------------------------------------
      1          6           0        1.769019    0.136894    0.000015
      2          6           0        0.561959   -0.444980    0.000047
      3          6           0       -0.668173    0.358441   -0.000066
      4          8           0       -1.805615   -0.126316   -0.000024
      5          1           0       -0.532732    1.453577    0.000163
      6          1           0        2.686606   -0.440803    0.000037
      7          1           0        1.875264    1.219777   -0.000045
      8          1           0        0.438956   -1.524153    0.000061
 ---------------------------------------------------------------------
 Rotational constants (GHZ):     47.8836668      4.6028194      4.1991737
 Leave Link  202 at Wed May 12 11:58:27 2021, MaxMem=  2147483648 cpu:         0.0
 (Enter /opt/cluster/programs/g09_d.01/g09/l301.exe)
 Standard basis: 6-31+G (6D, 7F)
 Ernie: Thresh=  0.10000D-02 Tol=  0.10000D-05 Strict=F.
 There are    60 symmetry adapted cartesian basis functions of A   symmetry.
 There are    60 symmetry adapted basis functions of A   symmetry.
    60 basis functions,   120 primitive gaussians,    60 cartesian basis functions
    15 alpha electrons       15 beta electrons
       nuclear repulsion energy       102.4698380944 Hartrees.
 IExCor= 4639 DFT=T Ex+Corr=wB97XD ExCW=0 ScaHFX=  1.000000
 ScaDFX=  1.000000  1.000000  1.000000  1.000000 ScalE2=  1.000000  1.000000
 IRadAn=      0 IRanWt=     -1 IRanGd=            0 ICorTp=0 IEmpDi=121
  HFx wShort=  0.000000 wLong=  0.200000 cFull=  0.222036 cShort=  0.000000 cLong=  0.777964
  DFx wShort=  0.000000 wLong=  0.200000 cFull=  0.000000 cShort=  0.000000 cLong=  1.000000
 NAtoms=    8 NActive=    8 NUniq=    8 SFac= 1.00D+00 NAtFMM=   60 NAOKFM=F Big=F
 Integral buffers will be    131072 words long.
 Raffenetti 2 integral format.
 Two-electron integral symmetry is turned on.
 R6Disp:  Grimme-D2 Dispersion energy=       -0.0018039597 Hartrees.
 Nuclear repulsion after empirical dispersion term =      102.4680341347 Hartrees.
 Leave Link  301 at Wed May 12 11:58:27 2021, MaxMem=  2147483648 cpu:         0.3
 (Enter /opt/cluster/programs/g09_d.01/g09/l302.exe)
 NPDir=0 NMtPBC=     1 NCelOv=     1 NCel=       1 NClECP=     1 NCelD=      1
         NCelK=      1 NCelE2=     1 NClLst=     1 CellRange=     0.0.
 One-electron integrals computed using PRISM.
 NBasis=    60 RedAO= T EigKep=  1.15D-04  NBF=    60
 NBsUse=    60 1.00D-06 EigRej= -1.00D+00 NBFU=    60
 Precomputing XC quadrature grid using
 IXCGrd= 4 IRadAn=           0 IRanWt=          -1 IRanGd=           0 AccXCQ= 0.00D+00.
 Generated NRdTot=       0 NPtTot=           0 NUsed=           0 NTot=          32
 NSgBfM=    60    60    60    60    60 MxSgAt=     8 MxSgA2=     8.
 Leave Link  302 at Wed May 12 11:58:28 2021, MaxMem=  2147483648 cpu:         0.8
 (Enter /opt/cluster/programs/g09_d.01/g09/l303.exe)
 DipDrv:  MaxL=1.
 Leave Link  303 at Wed May 12 11:58:28 2021, MaxMem=  2147483648 cpu:         0.2
 (Enter /opt/cluster/programs/g09_d.01/g09/l401.exe)
 Initial guess from the checkpoint file:  "/home/unibas/boittier/RDKit_G2/L.pdb/SCAN_1_2_3_4_S_17_20.0/0_SCAN_1_2_3_4_F/L.pdb.chk"
 B after Tr=     0.000000    0.000000    0.000000
         Rot=    1.000000    0.000015    0.000012   -0.000013 Ang=   0.00 deg.
 Guess basis will be translated and rotated to current coordinates.
 JPrj=2 DoOrth=T DoCkMO=T.
 Leave Link  401 at Wed May 12 11:58:28 2021, MaxMem=  2147483648 cpu:         0.6
 (Enter /opt/cluster/programs/g09_d.01/g09/l502.exe)
 Closed shell SCF:
 Using DIIS extrapolation, IDIIS=  1040.
 Integral symmetry usage will be decided dynamically.
 Keep R1 ints in memory in canonical form, NReq=4262490.
 IVT=       30290 IEndB=       30290 NGot=  2147483648 MDV=  2144102629
 LenX=  2144102629 LenY=  2144098588
 Requested convergence on RMS density matrix=1.00D-08 within 128 cycles.
 Requested convergence on MAX density matrix=1.00D-06.
 Requested convergence on             energy=1.00D-06.
 No special actions if energy rises.
 FoFCou: FMM=F IPFlag=           0 FMFlag=           0 FMFlg1=           0
         NFxFlg=           0 DoJE=F BraDBF=F KetDBF=F FulRan=T
         wScrn=  0.000000 ICntrl=     600 IOpCl=  0 I1Cent=           0 NGrid=           0
         NMat0=    1 NMatS0=   1830 NMatT0=    0 NMatD0=    1 NMtDS0=    0 NMtDT0=    0
 Symmetry not used in FoFCou.

 Cycle   1  Pass 1  IDiag  1:
 E= -191.795698256015    
 DIIS: error= 1.14D-04 at cycle   1 NSaved=   1.
 NSaved= 1 IEnMin= 1 EnMin= -191.795698256015     IErMin= 1 ErrMin= 1.14D-04
 ErrMax= 1.14D-04  0.00D+00 EMaxC= 1.00D-01 BMatC= 1.77D-06 BMatP= 1.77D-06
 IDIUse=3 WtCom= 9.99D-01 WtEn= 1.14D-03
 Coeff-Com:  0.100D+01
 Coeff-En:   0.100D+01
 Coeff:      0.100D+01
 Gap=     0.616 Goal=   None    Shift=    0.000
 RMSDP=8.43D-05 MaxDP=1.14D-03              OVMax= 5.18D-04

 Cycle   2  Pass 1  IDiag  1:
 E= -191.795700142821     Delta-E=       -0.000001886807 Rises=F Damp=F
 DIIS: error= 1.19D-04 at cycle   2 NSaved=   2.
 NSaved= 2 IEnMin= 2 EnMin= -191.795700142821     IErMin= 1 ErrMin= 1.14D-04
 ErrMax= 1.19D-04  0.00D+00 EMaxC= 1.00D-01 BMatC= 6.78D-07 BMatP= 1.77D-06
 IDIUse=3 WtCom= 9.99D-01 WtEn= 1.19D-03
 Coeff-Com:  0.316D+00 0.684D+00
 Coeff-En:   0.000D+00 0.100D+01
 Coeff:      0.316D+00 0.684D+00
 Gap=     0.341 Goal=   None    Shift=    0.000
 RMSDP=3.84D-05 MaxDP=7.13D-04 DE=-1.89D-06 OVMax= 3.54D-04

 Cycle   3  Pass 1  IDiag  1:
 E= -191.795700423862     Delta-E=       -0.000000281040 Rises=F Damp=F
 DIIS: error= 8.94D-05 at cycle   3 NSaved=   3.
 NSaved= 3 IEnMin= 3 EnMin= -191.795700423862     IErMin= 3 ErrMin= 8.94D-05
 ErrMax= 8.94D-05  0.00D+00 EMaxC= 1.00D-01 BMatC= 3.75D-07 BMatP= 6.78D-07
 IDIUse=1 WtCom= 1.00D+00 WtEn= 0.00D+00
 Coeff-Com: -0.723D-01 0.430D+00 0.643D+00
 Coeff:     -0.723D-01 0.430D+00 0.643D+00
 Gap=     0.341 Goal=   None    Shift=    0.000
 RMSDP=1.84D-05 MaxDP=2.79D-04 DE=-2.81D-07 OVMax= 2.18D-04

 Cycle   4  Pass 1  IDiag  1:
 E= -191.795700722460     Delta-E=       -0.000000298598 Rises=F Damp=F
 DIIS: error= 8.76D-06 at cycle   4 NSaved=   4.
 NSaved= 4 IEnMin= 4 EnMin= -191.795700722460     IErMin= 4 ErrMin= 8.76D-06
 ErrMax= 8.76D-06  0.00D+00 EMaxC= 1.00D-01 BMatC= 6.43D-09 BMatP= 3.75D-07
 IDIUse=1 WtCom= 1.00D+00 WtEn= 0.00D+00
 Coeff-Com: -0.364D-01 0.120D+00 0.234D+00 0.682D+00
 Coeff:     -0.364D-01 0.120D+00 0.234D+00 0.682D+00
 Gap=     0.341 Goal=   None    Shift=    0.000
 RMSDP=3.34D-06 MaxDP=6.58D-05 DE=-2.99D-07 OVMax= 2.81D-05

 Cycle   5  Pass 1  IDiag  1:
 E= -191.795700728926     Delta-E=       -0.000000006466 Rises=F Damp=F
 DIIS: error= 3.88D-06 at cycle   5 NSaved=   5.
 NSaved= 5 IEnMin= 5 EnMin= -191.795700728926     IErMin= 5 ErrMin= 3.88D-06
 ErrMax= 3.88D-06  0.00D+00 EMaxC= 1.00D-01 BMatC= 4.26D-10 BMatP= 6.43D-09
 IDIUse=1 WtCom= 1.00D+00 WtEn= 0.00D+00
 Coeff-Com:  0.202D-02-0.331D-01-0.243D-01 0.126D+00 0.929D+00
 Coeff:      0.202D-02-0.331D-01-0.243D-01 0.126D+00 0.929D+00
 Gap=     0.341 Goal=   None    Shift=    0.000
 RMSDP=1.37D-06 MaxDP=2.16D-05 DE=-6.47D-09 OVMax= 1.48D-05

 Cycle   6  Pass 1  IDiag  1:
 E= -191.795700729582     Delta-E=       -0.000000000656 Rises=F Damp=F
 DIIS: error= 1.23D-06 at cycle   6 NSaved=   6.
 NSaved= 6 IEnMin= 6 EnMin= -191.795700729582     IErMin= 6 ErrMin= 1.23D-06
 ErrMax= 1.23D-06  0.00D+00 EMaxC= 1.00D-01 BMatC= 6.72D-11 BMatP= 4.26D-10
 IDIUse=1 WtCom= 1.00D+00 WtEn= 0.00D+00
 Coeff-Com:  0.324D-02-0.214D-01-0.245D-01 0.787D-02 0.388D+00 0.647D+00
 Coeff:      0.324D-02-0.214D-01-0.245D-01 0.787D-02 0.388D+00 0.647D+00
 Gap=     0.341 Goal=   None    Shift=    0.000
 RMSDP=3.39D-07 MaxDP=5.32D-06 DE=-6.56D-10 OVMax= 5.67D-06

 Cycle   7  Pass 1  IDiag  1:
 E= -191.795700729679     Delta-E=       -0.000000000097 Rises=F Damp=F
 DIIS: error= 3.03D-07 at cycle   7 NSaved=   7.
 NSaved= 7 IEnMin= 7 EnMin= -191.795700729679     IErMin= 7 ErrMin= 3.03D-07
 ErrMax= 3.03D-07  0.00D+00 EMaxC= 1.00D-01 BMatC= 5.01D-12 BMatP= 6.72D-11
 IDIUse=1 WtCom= 1.00D+00 WtEn= 0.00D+00
 Coeff-Com:  0.290D-04 0.267D-02 0.309D-03-0.189D-01-0.104D+00 0.101D+00
 Coeff-Com:  0.102D+01
 Coeff:      0.290D-04 0.267D-02 0.309D-03-0.189D-01-0.104D+00 0.101D+00
 Coeff:      0.102D+01
 Gap=     0.341 Goal=   None    Shift=    0.000
 RMSDP=1.28D-07 MaxDP=7.50D-07 DE=-9.71D-11 OVMax= 2.71D-06

 Cycle   8  Pass 1  IDiag  1:
 E= -191.795700729692     Delta-E=       -0.000000000013 Rises=F Damp=F
 DIIS: error= 1.38D-07 at cycle   8 NSaved=   8.
 NSaved= 8 IEnMin= 8 EnMin= -191.795700729692     IErMin= 8 ErrMin= 1.38D-07
 ErrMax= 1.38D-07  0.00D+00 EMaxC= 1.00D-01 BMatC= 3.22D-13 BMatP= 5.01D-12
 IDIUse=1 WtCom= 1.00D+00 WtEn= 0.00D+00
 Coeff-Com: -0.181D-03 0.191D-02 0.161D-02-0.429D-02-0.445D-01-0.150D-01
 Coeff-Com:  0.192D+00 0.868D+00
 Coeff:     -0.181D-03 0.191D-02 0.161D-02-0.429D-02-0.445D-01-0.150D-01
 Coeff:      0.192D+00 0.868D+00
 Gap=     0.341 Goal=   None    Shift=    0.000
 RMSDP=4.55D-08 MaxDP=7.85D-07 DE=-1.30D-11 OVMax= 1.07D-06

 Cycle   9  Pass 1  IDiag  1:
 E= -191.795700729694     Delta-E=       -0.000000000002 Rises=F Damp=F
 DIIS: error= 8.22D-08 at cycle   9 NSaved=   9.
 NSaved= 9 IEnMin= 9 EnMin= -191.795700729694     IErMin= 9 ErrMin= 8.22D-08
 ErrMax= 8.22D-08  0.00D+00 EMaxC= 1.00D-01 BMatC= 6.72D-14 BMatP= 3.22D-13
 IDIUse=1 WtCom= 1.00D+00 WtEn= 0.00D+00
 Coeff-Com:  0.349D-05-0.657D-03-0.146D-03 0.386D-02 0.228D-01-0.172D-01
 Coeff-Com: -0.215D+00-0.822D-01 0.129D+01
 Coeff:      0.349D-05-0.657D-03-0.146D-03 0.386D-02 0.228D-01-0.172D-01
 Coeff:     -0.215D+00-0.822D-01 0.129D+01
 Gap=     0.341 Goal=   None    Shift=    0.000
 RMSDP=4.88D-08 MaxDP=9.95D-07 DE=-1.65D-12 OVMax= 1.01D-06

 Cycle  10  Pass 1  IDiag  1:
 E= -191.795700729695     Delta-E=       -0.000000000001 Rises=F Damp=F
 DIIS: error= 2.86D-08 at cycle  10 NSaved=  10.
 NSaved=10 IEnMin=10 EnMin= -191.795700729695     IErMin=10 ErrMin= 2.86D-08
 ErrMax= 2.86D-08  0.00D+00 EMaxC= 1.00D-01 BMatC= 8.17D-15 BMatP= 6.72D-14
 IDIUse=1 WtCom= 1.00D+00 WtEn= 0.00D+00
 Coeff-Com:  0.217D-04-0.603D-04-0.212D-03-0.337D-03-0.200D-03 0.578D-02
 Coeff-Com:  0.351D-01-0.114D+00-0.343D+00 0.142D+01
 Coeff:      0.217D-04-0.603D-04-0.212D-03-0.337D-03-0.200D-03 0.578D-02
 Coeff:      0.351D-01-0.114D+00-0.343D+00 0.142D+01
 Gap=     0.341 Goal=   None    Shift=    0.000
 RMSDP=1.39D-08 MaxDP=1.19D-07 DE=-1.36D-12 OVMax= 4.52D-07

 Cycle  11  Pass 1  IDiag  1:
 E= -191.795700729695     Delta-E=        0.000000000000 Rises=F Damp=F
 DIIS: error= 4.39D-09 at cycle  11 NSaved=  11.
 NSaved=11 IEnMin=10 EnMin= -191.795700729695     IErMin=11 ErrMin= 4.39D-09
 ErrMax= 4.39D-09  0.00D+00 EMaxC= 1.00D-01 BMatC= 3.98D-16 BMatP= 8.17D-15
 IDIUse=1 WtCom= 1.00D+00 WtEn= 0.00D+00
 Coeff-Com: -0.408D-05 0.596D-04 0.529D-04-0.288D-03-0.179D-02-0.270D-05
 Coeff-Com:  0.143D-01 0.193D-01-0.491D-01-0.209D+00 0.123D+01
 Coeff:     -0.408D-05 0.596D-04 0.529D-04-0.288D-03-0.179D-02-0.270D-05
 Coeff:      0.143D-01 0.193D-01-0.491D-01-0.209D+00 0.123D+01
 Gap=     0.341 Goal=   None    Shift=    0.000
 RMSDP=5.51D-09 MaxDP=1.26D-07 DE= 2.27D-13 OVMax= 7.61D-08

 SCF Done:  E(RwB97XD) =  -191.795700730     A.U. after   11 cycles
            NFock= 11  Conv=0.55D-08     -V/T= 2.0058
 KE= 1.906920200946D+02 PE=-6.523422801036D+02 EE= 1.673865251446D+02
 Leave Link  502 at Wed May 12 11:58:29 2021, MaxMem=  2147483648 cpu:         7.4
 (Enter /opt/cluster/programs/g09_d.01/g09/l701.exe)
 Compute integral first derivatives.
 ... and contract with generalized density number  0.
 R6Disp: Adding Grimme-D2 dispersion energy 1st derivatives to the gradient.
 Leave Link  701 at Wed May 12 11:58:29 2021, MaxMem=  2147483648 cpu:         0.6
 (Enter /opt/cluster/programs/g09_d.01/g09/l702.exe)
 L702 exits ... SP integral derivatives will be done elsewhere.
 Leave Link  702 at Wed May 12 11:58:29 2021, MaxMem=  2147483648 cpu:         0.2
 (Enter /opt/cluster/programs/g09_d.01/g09/l703.exe)
 Compute integral first derivatives, UseDBF=F ICtDFT=           0.
 Integral derivatives from FoFJK, PRISM(SPDF).
 Calling FoFJK, ICntrl=      2127 FMM=F ISym2X=0 I1Cent= 0 IOpClX= 0 NMat=1 NMatS=1 NMatT=0.
 FoFJK:  IHMeth= 1 ICntrl=    2127 DoSepK=T KAlg= 0 I1Cent=   0 FoldK=F
 IRaf=         1 NMat=   1 IRICut=       1 DoRegI=T DoRafI=F ISym2E= 0.
 FoFCou: FMM=F IPFlag=           0 FMFlag=      100000 FMFlg1=         800
         NFxFlg=           0 DoJE=F BraDBF=F KetDBF=F FulRan=T
         wScrn=  0.000000 ICntrl=    2527 IOpCl=  0 I1Cent=           0 NGrid=           0
         NMat0=    1 NMatS0=      1 NMatT0=    0 NMatD0=    1 NMtDS0=    0 NMtDT0=    0
 Symmetry not used in FoFCou.
 Leave Link  703 at Wed May 12 11:58:29 2021, MaxMem=  2147483648 cpu:         2.4
 (Enter /opt/cluster/programs/g09_d.01/g09/l716.exe)
 Dipole        = 1.46791875D+00 3.45516674D-01 1.67638457D-05
 ***** Axes restored to original set *****
 -------------------------------------------------------------------
 Center     Atomic                   Forces (Hartrees/Bohr)
 Number     Number              X              Y              Z
 -------------------------------------------------------------------
      1        6          -0.000071651   -0.000004665    0.000001466
      2        6           0.000275768   -0.000048140   -0.000019437
      3        6          -0.000467043   -0.000053684    0.000043287
      4        8           0.000103989   -0.000004432   -0.000013467
      5        1           0.000170276    0.000150038   -0.000015028
      6        1           0.000025591    0.000003568    0.000001742
      7        1           0.000013493    0.000022795   -0.000000338
      8        1          -0.000050424   -0.000065480    0.000001774
 -------------------------------------------------------------------
 Cartesian Forces:  Max     0.000467043 RMS     0.000125455
 Leave Link  716 at Wed May 12 11:58:29 2021, MaxMem=  2147483648 cpu:         0.2
 (Enter /opt/cluster/programs/g09_d.01/g09/l103.exe)

 GradGradGradGradGradGradGradGradGradGradGradGradGradGradGradGradGradGrad
 Berny optimization.
 Using GEDIIS/GDIIS optimizer.
 FormGI is forming the generalized inverse of G from B-inverse, IUseBI=4.
 Internal  Forces:  Max     0.000207894 RMS     0.000078061
 Search for a local minimum.
 Step number   3 out of a maximum of   34
 All quantities printed in internal units (Hartrees-Bohrs-Radians)
 RMS Force = .79681D-04 SwitMx=.10000D-02 MixMth= 2
 Mixed Optimization -- En-DIIS/RFO-DIIS
 Swapping is turned off.
 Update second derivatives using D2CorX and points    1    2    3
 DE= -6.18D-06 DEPred=-5.48D-06 R= 1.13D+00
 TightC=F SS=  1.41D+00  RLast= 5.95D-03 DXNew= 5.0454D-01 1.7839D-02
 Trust test= 1.13D+00 RLast= 5.95D-03 DXMaxT set to 3.00D-01
 ITU=  1  1  0
     Eigenvalues ---    0.01193   0.01882   0.02810   0.02810   0.14023
     Eigenvalues ---    0.16000   0.16005   0.16141   0.21703   0.23982
     Eigenvalues ---    0.32031   0.34164   0.35003   0.35371   0.35482
     Eigenvalues ---    0.63878   0.769271000.000001000.000001000.00000
     Eigenvalues --- 1000.000001000.000001000.000001000.00000
 En-DIIS/RFO-DIIS IScMMF=        0 using points:     3    2
 RFO step:  Lambda=-3.30894393D-07.
 NNeg= 0 NP= 2 Switch=  2.50D-03 Rises=F DC=  6.18D-06 SmlDif=  1.00D-05
 RMS Error=  0.1837853625D-03 NUsed= 2 EDIIS=F
 DidBck=F Rises=F RFO-DIIS coefs:    1.15481   -0.15481
 Iteration  1 RMS(Cart)=  0.00072446 RMS(Int)=  0.00000077
 Iteration  2 RMS(Cart)=  0.00000069 RMS(Int)=  0.00000013
 Iteration  1 RMS(Cart)=  0.00000000 RMS(Int)=  0.00000000
 ITry= 1 IFail=0 DXMaxC= 2.25D-03 DCOld= 1.00D+10 DXMaxT= 3.00D-01 DXLimC= 3.00D+00 Rises=F
 Variable       Old X    -DE/DX   Delta X   Delta X   Delta X     New X
                                 (Linear)    (Quad)   (Total)
    R1        2.53221  -0.00002   0.00023  -0.00029  -0.00006   2.53216
    R2        2.04902   0.00002   0.00003   0.00002   0.00005   2.04908
    R3        2.05618   0.00003  -0.00001   0.00009   0.00008   2.05626
    R4        2.77649   0.00021   0.00044   0.00038   0.00082   2.77731
    R5        2.05254   0.00007  -0.00005   0.00025   0.00020   2.05275
    R6        2.33652  -0.00009  -0.00023  -0.00009  -0.00032   2.33620
    R7        2.08527   0.00017   0.00006   0.00051   0.00057   2.08584
    A1        2.13051   0.00003   0.00013   0.00007   0.00020   2.13072
    A2        2.11779  -0.00001   0.00001  -0.00004  -0.00003   2.11776
    A3        2.03488  -0.00002  -0.00014  -0.00003  -0.00017   2.03471
    A4        2.11384  -0.00007   0.00016  -0.00054  -0.00038   2.11346
    A5        2.13348   0.00008   0.00015   0.00039   0.00054   2.13402
    A6        2.03587   0.00000  -0.00030   0.00015  -0.00016   2.03571
    A7        2.16016   0.00002   0.00033  -0.00014   0.00019   2.16034
    A8        2.02631  -0.00016  -0.00048  -0.00081  -0.00129   2.02502
    A9        2.09672   0.00014   0.00015   0.00095   0.00110   2.09782
    D1       -3.14153   0.00000   0.00001  -0.00032  -0.00030   3.14135
    D2       -0.00004   0.00000  -0.00001   0.00019   0.00018   0.00014
    D3        0.00005   0.00000   0.00001  -0.00027  -0.00025  -0.00020
    D4        3.14154   0.00000  -0.00001   0.00024   0.00023  -3.14142
    D5       -3.14158  -0.00001   0.00000   0.00000   0.00000  -3.14158
    D6       -0.00034   0.00002  -0.00008   0.00167   0.00159   0.00125
    D7        0.00012  -0.00001   0.00002  -0.00048  -0.00045  -0.00034
    D8        3.14135   0.00001  -0.00005   0.00119   0.00114  -3.14070
         Item               Value     Threshold  Converged?
 Maximum Force            0.000208     0.000450     YES
 RMS     Force            0.000080     0.000300     YES
 Maximum Displacement     0.002253     0.001800     NO 
 RMS     Displacement     0.000725     0.001200     YES
 Predicted change in Energy=-4.053152D-07
 Lowest energy point so far.  Saving SCF results.
 GradGradGradGradGradGradGradGradGradGradGradGradGradGradGradGradGradGrad

 Leave Link  103 at Wed May 12 11:58:29 2021, MaxMem=  2147483648 cpu:         0.0
 (Enter /opt/cluster/programs/g09_d.01/g09/l202.exe)
                          Input orientation:                          
 ---------------------------------------------------------------------
 Center     Atomic      Atomic             Coordinates (Angstroms)
 Number     Number       Type             X           Y           Z
 ---------------------------------------------------------------------
      1          6           0        1.771223    0.134530    0.000038
      2          6           0        0.563436   -0.445762   -0.000102
      3          6           0       -0.665707    0.359963    0.000310
      4          8           0       -1.803897   -0.122604    0.000221
      5          1           0       -0.526981    1.454992   -0.000505
      6          1           0        2.688202   -0.444187   -0.000040
      7          1           0        1.878844    1.217321    0.000275
      8          1           0        0.438437   -1.524813   -0.000176
 ---------------------------------------------------------------------
                    Distance matrix (angstroms):
                    1          2          3          4          5
     1  C    0.000000
     2  C    1.339959   0.000000
     3  C    2.447336   1.469689   0.000000
     4  O    3.584356   2.389288   1.236263   0.000000
     5  H    2.650540   2.191318   1.103781   2.029612   0.000000
     6  H    1.084326   2.124767   3.448966   4.503596   3.734204
     7  H    1.088126   2.120411   2.685107   3.918925   2.417536
     8  H    2.128318   1.086266   2.184379   2.644664   3.132294
                    6          7          8
     6  H    0.000000
     7  H    1.848153   0.000000
     8  H    2.495836   3.097429   0.000000
 Stoichiometry    C3H4O
 Framework group  C1[X(C3H4O)]
 Deg. of freedom    18
 Full point group                 C1      NOp   1
 RotChk:  IX=2 Diff= 3.74D-05
 Largest Abelian subgroup         C1      NOp   1
 Largest concise Abelian subgroup C1      NOp   1
                         Standard orientation:                         
 ---------------------------------------------------------------------
[...]
 Coeff:     -0.157D-02 0.141D-01 0.249D-02-0.589D-01-0.599D-01 0.501D-01
 Coeff:      0.105D+01
 Gap=     0.341 Goal=   None    Shift=    0.000
 RMSDP=1.42D-07 MaxDP=1.40D-06 DE=-2.24D-10 OVMax= 4.73D-06

 Cycle   8  Pass 1  IDiag  1:
 E= -191.795701008310     Delta-E=       -0.000000000013 Rises=F Damp=F
 DIIS: error= 8.72D-08 at cycle   8 NSaved=   8.
 NSaved= 8 IEnMin= 8 EnMin= -191.795701008310     IErMin= 8 ErrMin= 8.72D-08
 ErrMax= 8.72D-08  0.00D+00 EMaxC= 1.00D-01 BMatC= 2.81D-13 BMatP= 1.71D-12
 IDIUse=1 WtCom= 1.00D+00 WtEn= 0.00D+00
 Coeff-Com: -0.163D-03-0.296D-02 0.388D-02 0.507D-01-0.282D-01-0.204D+00
 Coeff-Com:  0.215D+00 0.966D+00
 Coeff:     -0.163D-03-0.296D-02 0.388D-02 0.507D-01-0.282D-01-0.204D+00
 Coeff:      0.215D+00 0.966D+00
 Gap=     0.341 Goal=   None    Shift=    0.000
 RMSDP=4.75D-08 MaxDP=4.68D-07 DE=-1.27D-11 OVMax= 1.41D-06

 Cycle   9  Pass 1  IDiag  1:
 E= -191.795701008311     Delta-E=       -0.000000000001 Rises=F Damp=F
 DIIS: error= 3.05D-08 at cycle   9 NSaved=   9.
 NSaved= 9 IEnMin= 9 EnMin= -191.795701008311     IErMin= 9 ErrMin= 3.05D-08
 ErrMax= 3.05D-08  0.00D+00 EMaxC= 1.00D-01 BMatC= 1.14D-14 BMatP= 2.81D-13
 IDIUse=1 WtCom= 1.00D+00 WtEn= 0.00D+00
 Coeff-Com:  0.102D-03-0.935D-03-0.281D-03 0.357D-02 0.439D-02 0.856D-04
 Coeff-Com: -0.757D-01-0.145D-01 0.108D+01
 Coeff:      0.102D-03-0.935D-03-0.281D-03 0.357D-02 0.439D-02 0.856D-04
 Coeff:     -0.757D-01-0.145D-01 0.108D+01
 Gap=     0.341 Goal=   None    Shift=    0.000
 RMSDP=8.03D-09 MaxDP=8.96D-08 DE=-1.14D-12 OVMax= 1.68D-07

 SCF Done:  E(RwB97XD) =  -191.795701008     A.U. after    9 cycles
            NFock=  9  Conv=0.80D-08     -V/T= 2.0058
 KE= 1.906909341560D+02 PE=-6.523291138607D+02 EE= 1.673803426455D+02
 Leave Link  502 at Wed May 12 11:58:34 2021, MaxMem=  2147483648 cpu:         6.3
 (Enter /opt/cluster/programs/g09_d.01/g09/l701.exe)
 Compute integral first derivatives.
 ... and contract with generalized density number  0.
 R6Disp: Adding Grimme-D2 dispersion energy 1st derivatives to the gradient.
 Leave Link  701 at Wed May 12 11:58:34 2021, MaxMem=  2147483648 cpu:         0.6
 (Enter /opt/cluster/programs/g09_d.01/g09/l702.exe)
 L702 exits ... SP integral derivatives will be done elsewhere.
 Leave Link  702 at Wed May 12 11:58:34 2021, MaxMem=  2147483648 cpu:         0.2
 (Enter /opt/cluster/programs/g09_d.01/g09/l703.exe)
 Compute integral first derivatives, UseDBF=F ICtDFT=           0.
 Integral derivatives from FoFJK, PRISM(SPDF).
 Calling FoFJK, ICntrl=      2127 FMM=F ISym2X=0 I1Cent= 0 IOpClX= 0 NMat=1 NMatS=1 NMatT=0.
 FoFJK:  IHMeth= 1 ICntrl=    2127 DoSepK=T KAlg= 0 I1Cent=   0 FoldK=F
 IRaf=         1 NMat=   1 IRICut=       1 DoRegI=T DoRafI=F ISym2E= 0.
 FoFCou: FMM=F IPFlag=           0 FMFlag=      100000 FMFlg1=         800
         NFxFlg=           0 DoJE=F BraDBF=F KetDBF=F FulRan=T
         wScrn=  0.000000 ICntrl=    2527 IOpCl=  0 I1Cent=           0 NGrid=           0
         NMat0=    1 NMatS0=      1 NMatT0=    0 NMatD0=    1 NMtDS0=    0 NMtDT0=    0
 Symmetry not used in FoFCou.
 Leave Link  703 at Wed May 12 11:58:34 2021, MaxMem=  2147483648 cpu:         2.4
 (Enter /opt/cluster/programs/g09_d.01/g09/l716.exe)
 Dipole        = 1.46717394D+00 3.44929620D-01 9.96980581D-05
 ***** Axes restored to original set *****
 -------------------------------------------------------------------
 Center     Atomic                   Forces (Hartrees/Bohr)
 Number     Number              X              Y              Z
 -------------------------------------------------------------------
      1        6           0.000000983   -0.000007241    0.000006272
      2        6          -0.000071379   -0.000004271   -0.000079110
      3        6           0.000161368    0.000033470    0.000175521
      4        8          -0.000055234    0.000002521   -0.000054138
      5        1          -0.000040767   -0.000031488   -0.000061281
      6        1          -0.000007174   -0.000003846    0.000007135
      7        1          -0.000000447   -0.000007784   -0.000001387
      8        1           0.000012650    0.000018640    0.000006988
 -------------------------------------------------------------------
 Cartesian Forces:  Max     0.000175521 RMS     0.000058653
 Leave Link  716 at Wed May 12 11:58:34 2021, MaxMem=  2147483648 cpu:         0.2
 (Enter /opt/cluster/programs/g09_d.01/g09/l103.exe)

 GradGradGradGradGradGradGradGradGradGradGradGradGradGradGradGradGradGrad
 Berny optimization.
 Using GEDIIS/GDIIS optimizer.
 FormGI is forming the generalized inverse of G from B-inverse, IUseBI=4.
 Internal  Forces:  Max     0.000063978 RMS     0.000032103
 Search for a local minimum.
 Step number   5 out of a maximum of   34
 All quantities printed in internal units (Hartrees-Bohrs-Radians)
 RMS Force = .30404D-04 SwitMx=.10000D-02 MixMth= 2
 Mixed Optimization -- En-DIIS/RFO-DIIS
 Swapping is turned off.
 Update second derivatives using D2CorX and points    1    2    3    4    5
 DE=  4.96D-08 DEPred=-1.79D-07 R=-2.76D-01
 Trust test=-2.76D-01 RLast= 3.55D-03 DXMaxT set to 1.50D-01
 ITU= -1  0  1  1  0
     Eigenvalues ---    0.01669   0.02790   0.02810   0.05002   0.10666
     Eigenvalues ---    0.15988   0.16009   0.16233   0.20912   0.23368
     Eigenvalues ---    0.30064   0.33847   0.34995   0.35409   0.35683
     Eigenvalues ---    0.61572   0.751111000.000001000.000001000.00000
     Eigenvalues --- 1000.000001000.000001000.000001000.00000
 En-DIIS/RFO-DIIS IScMMF=        0 using points:     5    4    3    2
 RFO step:  Lambda=-6.64392295D-08.
 NNeg= 0 NP= 4 Switch=  2.50D-03 Rises=F DC=  6.18D-06 SmlDif=  1.00D-05
 RMS Error=  0.9881976837D-04 NUsed= 4 EDIIS=F
 DidBck=T Rises=F RFO-DIIS coefs:    0.42810    0.50618    0.05349    0.01222
 Iteration  1 RMS(Cart)=  0.00034038 RMS(Int)=  0.00000022
 Iteration  2 RMS(Cart)=  0.00000020 RMS(Int)=  0.00000008
 Iteration  1 RMS(Cart)=  0.00000000 RMS(Int)=  0.00000000
 ITry= 1 IFail=0 DXMaxC= 1.12D-03 DCOld= 1.00D+10 DXMaxT= 1.50D-01 DXLimC= 3.00D+00 Rises=F
 Variable       Old X    -DE/DX   Delta X   Delta X   Delta X     New X
                                 (Linear)    (Quad)   (Total)
    R1        2.53213  -0.00001   0.00000   0.00000   0.00000   2.53213
    R2        2.04909  -0.00001  -0.00001   0.00000  -0.00002   2.04908
    R3        2.05628   0.00000  -0.00002   0.00000  -0.00002   2.05627
    R4        2.77757  -0.00006  -0.00024   0.00002  -0.00021   2.77736
    R5        2.05278  -0.00002  -0.00003  -0.00002  -0.00005   2.05273
    R6        2.33610   0.00005   0.00010   0.00001   0.00011   2.33621
    R7        2.08599  -0.00004  -0.00013  -0.00001  -0.00014   2.08586
    A1        2.13081   0.00000  -0.00008   0.00005  -0.00002   2.13079
    A2        2.11772   0.00000   0.00002  -0.00003  -0.00001   2.11771
    A3        2.03465   0.00000   0.00006  -0.00003   0.00003   2.03468
    A4        2.11327  -0.00001   0.00012  -0.00010   0.00002   2.11329
    A5        2.13420  -0.00001  -0.00015   0.00003  -0.00012   2.13408
    A6        2.03572   0.00002   0.00003   0.00007   0.00010   2.03582
    A7        2.16045   0.00000  -0.00010   0.00007  -0.00003   2.16042
    A8        2.02466   0.00004   0.00033   0.00000   0.00033   2.02499
    A9        2.09808  -0.00004  -0.00023  -0.00006  -0.00029   2.09778
    D1       -3.14132  -0.00001  -0.00027   0.00000  -0.00028   3.14159
    D2       -0.00016   0.00000   0.00016   0.00000   0.00016   0.00000
    D3        0.00023  -0.00001  -0.00023   0.00000  -0.00023   0.00000
    D4        3.14139   0.00001   0.00020   0.00000   0.00021  -3.14159
    D5       -3.14158  -0.00005   0.00000   0.00000   0.00000  -3.14158
    D6       -0.00144   0.00006   0.00144   0.00001   0.00145   0.00001
    D7        0.00043  -0.00006  -0.00041   0.00000  -0.00041   0.00001
    D8        3.14056   0.00005   0.00103   0.00001   0.00104  -3.14158
         Item               Value     Threshold  Converged?
 Maximum Force            0.000073     0.000450     YES
 RMS     Force            0.000030     0.000300     YES
 Maximum Displacement     0.001117     0.001800     YES
 RMS     Displacement     0.000340     0.001200     YES
 Predicted change in Energy=-1.163667D-07
 Optimization completed.
    -- Stationary point found.
                           ----------------------------
                           !   Optimized Parameters   !
                           ! (Angstroms and Degrees)  !
 --------------------------                            --------------------------
 ! Name  Definition              Value          Derivative Info.                !
 --------------------------------------------------------------------------------
 ! R1    R(1,2)                  1.3399         -DE/DX =    0.0                 !
 ! R2    R(1,6)                  1.0843         -DE/DX =    0.0                 !
 ! R3    R(1,7)                  1.0881         -DE/DX =    0.0                 !
 ! R4    R(2,3)                  1.4698         -DE/DX =   -0.0001              !
 ! R5    R(2,8)                  1.0863         -DE/DX =    0.0                 !
 ! R6    R(3,4)                  1.2362         -DE/DX =    0.0001              !
 ! R7    R(3,5)                  1.1039         -DE/DX =    0.0                 !
 ! A1    A(2,1,6)              122.0866         -DE/DX =    0.0                 !
 ! A2    A(2,1,7)              121.3366         -DE/DX =    0.0                 !
 ! A3    A(6,1,7)              116.5767         -DE/DX =    0.0                 !
 ! A4    A(1,2,3)              121.0814         -DE/DX =    0.0                 !
 ! A5    A(1,2,8)              122.2806         -DE/DX =    0.0                 !
 ! A6    A(3,2,8)              116.638          -DE/DX =    0.0                 !
 ! A7    A(2,3,4)              123.7845         -DE/DX =    0.0                 !
 ! A8    A(2,3,5)              116.0045         -DE/DX =    0.0                 !
 ! A9    A(4,3,5)              120.2109         -DE/DX =    0.0                 !
 ! D1    D(6,1,2,3)            180.0156         -DE/DX =    0.0                 !
 ! D2    D(6,1,2,8)             -0.0091         -DE/DX =    0.0                 !
 ! D3    D(7,1,2,3)              0.013          -DE/DX =    0.0                 !
 ! D4    D(7,1,2,8)           -180.0117         -DE/DX =    0.0                 !
 ! D5    D(1,2,3,4)           -179.999          -DE/DX =    0.0                 !
 ! D6    D(1,2,3,5)             -0.0823         -DE/DX =    0.0001              !
 ! D7    D(8,2,3,4)              0.0244         -DE/DX =   -0.0001              !
 ! D8    D(8,2,3,5)           -180.0589         -DE/DX =    0.0001              !
 --------------------------------------------------------------------------------
 GradGradGradGradGradGradGradGradGradGradGradGradGradGradGradGradGradGrad

 Largest change from initial coordinates is atom    7       0.003 Angstoms.
 Leave Link  103 at Wed May 12 11:58:34 2021, MaxMem=  2147483648 cpu:         0.0
 (Enter /opt/cluster/programs/g09_d.01/g09/l202.exe)
                          Input orientation:                          
 ---------------------------------------------------------------------
 Center     Atomic      Atomic             Coordinates (Angstroms)
 Number     Number       Type             X           Y           Z
 ---------------------------------------------------------------------
      1          6           0        1.771151    0.134530   -0.000037
      2          6           0        0.563458   -0.445928    0.000113
      3          6           0       -0.665765    0.359925   -0.000359
      4          8           0       -1.803976   -0.122454   -0.000228
      5          1           0       -0.526583    1.454976    0.000589
      6          1           0        2.688273   -0.443970    0.000055
      7          1           0        1.878584    1.217352   -0.000301
      8          1           0        0.438415   -1.524993    0.000189
 ---------------------------------------------------------------------
                    Distance matrix (angstroms):
                    1          2          3          4          5
     1  C    0.000000
     2  C    1.339945   0.000000
     3  C    2.447317   1.469826   0.000000
     4  O    3.584351   2.389431   1.236210   0.000000
     5  H    2.650124   2.191261   1.103861   2.029783   0.000000
     6  H    1.084332   2.124816   3.449032   4.503740   3.733805
     7  H    1.088138   2.120391   2.684937   3.918714   2.416877
     8  H    2.128427   1.086285   2.184521   2.644888   3.132321
                    6          7          8
     6  H    0.000000
     7  H    1.848131   0.000000
     8  H    2.496091   3.097506   0.000000
 Stoichiometry    C3H4O
 Framework group  C1[X(C3H4O)]
 Deg. of freedom    18
 Full point group                 C1      NOp   1
 RotChk:  IX=0 Diff= 0.00D+00
 Largest Abelian subgroup         C1      NOp   1
 Largest concise Abelian subgroup C1      NOp   1
                         Standard orientation:                         
 ---------------------------------------------------------------------
 Center     Atomic      Atomic             Coordinates (Angstroms)
 Number     Number       Type             X           Y           Z
 ---------------------------------------------------------------------
      1          6           0        1.768920    0.137071    0.000063
      2          6           0        0.562226   -0.445460    0.000213
      3          6           0       -0.668379    0.358282   -0.000259
      4          8           0       -1.805760   -0.126051   -0.000129
      5          1           0       -0.531078    1.453570    0.000688
      6          1           0        2.687034   -0.439854    0.000155
      7          1           0        1.874493    1.220076   -0.000201
      8          1           0        0.439036   -1.524738    0.000289
 ---------------------------------------------------------------------
 Rotational constants (GHZ):     47.8612414      4.6024629      4.1987045
 Leave Link  202 at Wed May 12 11:58:34 2021, MaxMem=  2147483648 cpu:         0.0
 (Enter /opt/cluster/programs/g09_d.01/g09/l601.exe)
 Copying SCF densities to generalized density rwf, IOpCl= 0 IROHF=0.

 **********************************************************************

            Population analysis using the SCF density.

 **********************************************************************

 Orbital symmetries:
       Occupied  (A) (A) (A) (A) (A) (A) (A) (A) (A) (A) (A) (A)
                 (A) (A) (A)
       Virtual   (A) (A) (A) (A) (A) (A) (A) (A) (A) (A) (A) (A)
                 (A) (A) (A) (A) (A) (A) (A) (A) (A) (A) (A) (A)
                 (A) (A) (A) (A) (A) (A) (A) (A) (A) (A) (A) (A)
                 (A) (A) (A) (A) (A) (A) (A) (A) (A)
 The electronic state is 1-A.
 Alpha  occ. eigenvalues --  -19.28844 -10.40595 -10.33992 -10.33285  -1.17173
 Alpha  occ. eigenvalues --   -0.92096  -0.75983  -0.68272  -0.58434  -0.57599
 Alpha  occ. eigenvalues --   -0.51324  -0.49848  -0.48873  -0.38219  -0.35365
 Alpha virt. eigenvalues --   -0.01289   0.06949   0.08346   0.08520   0.09262
 Alpha virt. eigenvalues --    0.12063   0.12470   0.12738   0.14872   0.15493
 Alpha virt. eigenvalues --    0.17736   0.18818   0.20196   0.22091   0.26120
 Alpha virt. eigenvalues --    0.28587   0.29075   0.33018   0.33214   0.34707
 Alpha virt. eigenvalues --    0.36398   0.38609   0.43927   0.47460   0.49438
 Alpha virt. eigenvalues --    0.70946   0.71644   0.76994   0.77125   0.80419
 Alpha virt. eigenvalues --    0.86496   0.88129   0.98095   1.02513   1.08438
 Alpha virt. eigenvalues --    1.09658   1.12877   1.21006   1.24114   1.30226
 Alpha virt. eigenvalues --    1.31250   1.37217   1.40298   1.46559   1.93107
          Condensed to atoms (all electrons):
               1          2          3          4          5          6
     1  C    5.780570  -0.458034   0.261780   0.064481   0.118381   0.355301
     2  C   -0.458034   6.611356  -0.031189  -0.224764  -0.262279  -0.008927
     3  C    0.261780  -0.031189   5.025848   0.314233   0.411817   0.004916
     4  O    0.064481  -0.224764   0.314233   8.343936  -0.056819  -0.000558
     5  H    0.118381  -0.262279   0.411817  -0.056819   0.605155   0.000143
     6  H    0.355301  -0.008927   0.004916  -0.000558   0.000143   0.462586
     7  H    0.380669  -0.050398   0.009622   0.000738   0.001023  -0.022800
     8  H   -0.020319   0.352967  -0.007336  -0.006374   0.001452  -0.002135
               7          8
     1  C    0.380669  -0.020319
     2  C   -0.050398   0.352967
     3  C    0.009622  -0.007336
     4  O    0.000738  -0.006374
     5  H    0.001023   0.001452
     6  H   -0.022800  -0.002135
     7  H    0.473797   0.002286
     8  H    0.002286   0.441004
 Mulliken charges:
               1
     1  C   -0.482829
     2  C    0.071269
     3  C    0.010309
     4  O   -0.434871
     5  H    0.181128
     6  H    0.211476
     7  H    0.205063
     8  H    0.238456
 Sum of Mulliken charges =   0.00000
 Mulliken charges with hydrogens summed into heavy atoms:
               1
     1  C   -0.066290
     2  C    0.309725
     3  C    0.191436
     4  O   -0.434871
 Electronic spatial extent (au):  <R**2>=            302.1870
 Charge=              0.0000 electrons
 Dipole moment (field-independent basis, Debye):
    X=              3.7292    Y=              0.8767    Z=              0.0003  Tot=              3.8309
 Quadrupole moment (field-independent basis, Debye-Ang):
   XX=            -28.1624   YY=            -21.6456   ZZ=            -25.3829
   XY=             -1.1841   XZ=             -0.0009   YZ=             -0.0002
 Traceless Quadrupole moment (field-independent basis, Debye-Ang):
   XX=             -3.0987   YY=              3.4180   ZZ=             -0.3193
   XY=             -1.1841   XZ=             -0.0009   YZ=             -0.0002
 Octapole moment (field-independent basis, Debye-Ang**2):
  XXX=             18.6471  YYY=              0.1421  ZZZ=             -0.0012  XYY=              0.2717
  XXY=              1.1312  XXZ=              0.0011  XZZ=             -4.3846  YZZ=              0.1644
  YYZ=              0.0016  XYZ=             -0.0008
 Hexadecapole moment (field-independent basis, Debye-Ang**3):
 XXXX=           -312.0711 YYYY=            -54.8819 ZZZZ=            -27.3724 XXXY=             -3.9888
 XXXZ=             -0.0133 YYYX=             -0.1685 YYYZ=              0.0024 ZZZX=             -0.0111
 ZZZY=              0.0016 XXYY=            -58.8173 XXZZ=            -58.3262 YYZZ=            -15.4934
 XXYZ=             -0.0016 YYXZ=             -0.0046 ZZXY=              0.2910
 N-N= 1.024621360509D+02 E-N=-6.523291138146D+02  KE= 1.906909341560D+02
 No NMR shielding tensors so no spin-rotation constants.
 Leave Link  601 at Wed May 12 11:58:34 2021, MaxMem=  2147483648 cpu:         0.6
 (Enter /opt/cluster/programs/g09_d.01/g09/l9999.exe)
 1\1\GINC-NODE14\FOpt\RwB97XD\6-31+G\C3H4O1\BOITTIER\12-May-2021\0\\#p 
 wB97XD/6-31+G Opt=ModRedun\\L.pdb\\0,1\C,1.7711505276,0.1345302585,-0.
 0000371106\C,0.5634582335,-0.4459281525,0.0001133666\C,-0.6657647123,0
 .3599254911,-0.0003591962\O,-1.8039757949,-0.1224536213,-0.0002282807\
 H,-0.5265830649,1.454976022,0.0005886362\H,2.6882731364,-0.4439703817,
 0.0000548116\H,1.8785835985,1.2173521226,-0.0003010694\H,0.438415076,-
 1.5249927386,0.0001888426\\Version=ES64L-G09RevD.01\State=1-A\HF=-191.
 795701\RMSD=8.026e-09\RMSF=5.865e-05\Dipole=1.4677641,0.3424098,0.0000
 997\Quadrupole=-2.3068513,2.5442111,-0.2373598,-0.8720163,-0.0006661,-
 0.0001376\PG=C01 [X(C3H4O1)]\\@



 IN THIS SHORT LIFE

 THAT ONLY LASTS AN HOUR

 HOW MUCH, HOW LITTLE, IS WITHIN OUR POWER....


 EMILY DICKINSON BOLTS OF MELODY NO. 521
 Job cpu time:       0 days  0 hours  1 minutes 24.0 seconds.
 File lengths (MBytes):  RWF=      5 Int=      0 D2E=      0 Chk=      2 Scr=      1
 Normal termination of Gaussian 09 at Wed May 12 11:58:34 2021.
