 Entering Gaussian System, Link 0=/opt/cluster/programs/g09_d.01/g09//g09
 Input=/home/unibas/boittier/RDKit_G2/L.pdb/SCAN_1_2_3_4_S_17_20.0/11_SCAN_1_2_3_4_F/11_SCAN_L.pdb.com
 Output=/scratch/boittier/11_SCAN_L.pdb/11_SCAN_L.pdb.out
 Initial command:
 /opt/cluster/programs/g09_d.01/g09/l1.exe "/scratch/boittier/11_SCAN_L.pdb/Gau-156374.inp" -scrdir="/scratch/boittier/11_SCAN_L.pdb/"
 Entering Link 1 = /opt/cluster/programs/g09_d.01/g09/l1.exe PID=    156375.
  
 Copyright (c) 1988,1990,1992,1993,1995,1998,2003,2009,2013,
            Gaussian, Inc.  All Rights Reserved.
  
 This is part of the Gaussian(R) 09 program.  It is based on
 the Gaussian(R) 03 system (copyright 2003, Gaussian, Inc.),
 the Gaussian(R) 98 system (copyright 1998, Gaussian, Inc.),
 the Gaussian(R) 94 system (copyright 1995, Gaussian, Inc.),
 the Gaussian 92(TM) system (copyright 1992, Gaussian, Inc.),
 the Gaussian 90(TM) system (copyright 1990, Gaussian, Inc.),
 the Gaussian 88(TM) system (copyright 1988, Gaussian, Inc.),
 the Gaussian 86(TM) system (copyright 1986, Carnegie Mellon
 University), and the Gaussian 82(TM) system (copyright 1983,
 Carnegie Mellon University). Gaussian is a federally registered
 trademark of Gaussian, Inc.
  
 This software contains proprietary and confidential information,
 including trade secrets, belonging to Gaussian, Inc.
  
 This software is provided under written license and may be
 used, copied, transmitted, or stored only in accord with that
 written license.
  
 The following legend is applicable only to US Government
 contracts under FAR:
  
                    RESTRICTED RIGHTS LEGEND
  
 Use, reproduction and disclosure by the US Government is
 subject to restrictions as set forth in subparagraphs (a)
 and (c) of the Commercial Computer Software - Restricted
 Rights clause in FAR 52.227-19.
  
 Gaussian, Inc.
 340 Quinnipiac St., Bldg. 40, Wallingford CT 06492
  
  
 ---------------------------------------------------------------
 Warning -- This program may not be used in any manner that
 competes with the business of Gaussian, Inc. or will provide
 assistance to any competitor of Gaussian, Inc.  The licensee
 of this program is prohibited from giving any competitor of
 Gaussian, Inc. access to this program.  By using this program,
 the user acknowledges that Gaussian, Inc. is engaged in the
 business of creating and licensing software in the field of
 computational chemistry and represents and warrants to the
 licensee that it is not a competitor of Gaussian, Inc. and that
 it will not use this program in any manner prohibited above.
 ---------------------------------------------------------------
  

 Cite this work as:
 Gaussian 09, Revision D.01,
 M. J. Frisch, G. W. Trucks, H. B. Schlegel, G. E. Scuseria, 
 M. A. Robb, J. R. Cheeseman, G. Scalmani, V. Barone, B. Mennucci, 
 G. A. Petersson, H. Nakatsuji, M. Caricato, X. Li, H. P. Hratchian, 
 A. F. Izmaylov, J. Bloino, G. Zheng, J. L. Sonnenberg, M. Hada, 
 M. Ehara, K. Toyota, R. Fukuda, J. Hasegawa, M. Ishida, T. Nakajima, 
 Y. Honda, O. Kitao, H. Nakai, T. Vreven, J. A. Montgomery, Jr., 
 J. E. Peralta, F. Ogliaro, M. Bearpark, J. J. Heyd, E. Brothers, 
 K. N. Kudin, V. N. Staroverov, T. Keith, R. Kobayashi, J. Normand, 
 K. Raghavachari, A. Rendell, J. C. Burant, S. S. Iyengar, J. Tomasi, 
 M. Cossi, N. Rega, J. M. Millam, M. Klene, J. E. Knox, J. B. Cross, 
 V. Bakken, C. Adamo, J. Jaramillo, R. Gomperts, R. E. Stratmann, 
 O. Yazyev, A. J. Austin, R. Cammi, C. Pomelli, J. W. Ochterski, 
 R. L. Martin, K. Morokuma, V. G. Zakrzewski, G. A. Voth, 
 P. Salvador, J. J. Dannenberg, S. Dapprich, A. D. Daniels, 
 O. Farkas, J. B. Foresman, J. V. Ortiz, J. Cioslowski, 
 and D. J. Fox, Gaussian, Inc., Wallingford CT, 2013.
 
 ******************************************
 Gaussian 09:  ES64L-G09RevD.01 24-Apr-2013
                12-May-2021 
 ******************************************
 %chk=/home/unibas/boittier/RDKit_G2/L.pdb/SCAN_1_2_3_4_S_17_20.0/11_SCAN_1_2_3_4
 _F/L.pdb.chk
 %nproc=8
 Will use up to    8 processors via shared memory.
 %mem=16GB
 -----------------------------
 #p wB97XD/6-31+G Opt=ModRedun
 -----------------------------
 1/14=-1,18=120,19=15,26=3,38=1/1,3;
 2/9=110,12=2,17=6,18=5,40=1/2;
 3/5=1,6=6,7=10,11=2,16=1,25=1,30=1,71=1,74=-58/1,2,3;
 4//1;
 5/5=2,38=5/2;
 6/7=2,8=2,9=2,10=2,28=1/1;
 7//1,2,3,16;
 1/14=-1,18=20,19=15,26=3/3(2);
 2/9=110/2;
 99//99;
 2/9=110/2;
 3/5=1,6=6,7=10,11=2,16=1,25=1,30=1,71=1,74=-58/1,2,3;
 4/5=5,16=3,69=1/1;
 5/5=2,38=5/2;
 7//1,2,3,16;
 1/14=-1,18=20,19=15,26=3/3(-5);
 2/9=110/2;
 6/7=2,8=2,9=2,10=2,19=2,28=1/1;
 99/9=1/99;
 Leave Link    1 at Wed May 12 11:58:23 2021, MaxMem=  2147483648 cpu:         1.7
 (Enter /opt/cluster/programs/g09_d.01/g09/l101.exe)
 -----
 L.pdb
 -----
 Symbolic Z-matrix:
 Charge =  0 Multiplicity = 1
 C                     1.52038   0.4499    0.06551 
 C                     0.65751  -0.56328  -0.12655 
 C                    -0.78976  -0.44205   0.14204 
 O                    -1.47883   0.5591   -0.12218 
 H                    -1.27266  -1.33719   0.5715 
 H                     2.58958   0.32614  -0.07568 
 H                     1.17018   1.43351   0.36737 
 H                     1.01486  -1.56273  -0.37177 
 
 The following ModRedundant input section has been read:
 D       1       2       3       4 F                                           
 
 NAtoms=      8 NQM=        8 NQMF=       0 NMMI=      0 NMMIF=      0
                NMic=       0 NMicF=      0.
                    Isotopes and Nuclear Properties:
 (Nuclear quadrupole moments (NQMom) in fm**2, nuclear magnetic moments (NMagM)
  in nuclear magnetons)

  Atom         1           2           3           4           5           6           7           8
 IAtWgt=          12          12          12          16           1           1           1           1
 AtmWgt=  12.0000000  12.0000000  12.0000000  15.9949146   1.0078250   1.0078250   1.0078250   1.0078250
 NucSpn=           0           0           0           0           1           1           1           1
 AtZEff=   0.0000000   0.0000000   0.0000000   0.0000000   0.0000000   0.0000000   0.0000000   0.0000000
 NQMom=    0.0000000   0.0000000   0.0000000   0.0000000   0.0000000   0.0000000   0.0000000   0.0000000
 NMagM=    0.0000000   0.0000000   0.0000000   0.0000000   2.7928460   2.7928460   2.7928460   2.7928460
 AtZNuc=   6.0000000   6.0000000   6.0000000   8.0000000   1.0000000   1.0000000   1.0000000   1.0000000
 Leave Link  101 at Wed May 12 11:58:24 2021, MaxMem=  2147483648 cpu:         4.4
 (Enter /opt/cluster/programs/g09_d.01/g09/l103.exe)

 GradGradGradGradGradGradGradGradGradGradGradGradGradGradGradGradGradGrad
 Berny optimization.
 Initialization pass.
                           ----------------------------
                           !    Initial Parameters    !
                           ! (Angstroms and Degrees)  !
 --------------------------                            --------------------------
 ! Name  Definition              Value          Derivative Info.                !
 --------------------------------------------------------------------------------
 ! R1    R(1,2)                  1.3446         estimate D2E/DX2                !
 ! R2    R(1,6)                  1.0856         estimate D2E/DX2                !
 ! R3    R(1,7)                  1.0868         estimate D2E/DX2                !
 ! R4    R(2,3)                  1.477          estimate D2E/DX2                !
 ! R5    R(2,8)                  1.0894         estimate D2E/DX2                !
 ! R6    R(3,4)                  1.2438         estimate D2E/DX2                !
 ! R7    R(3,5)                  1.104          estimate D2E/DX2                !
 ! A1    A(2,1,6)              121.8417         estimate D2E/DX2                !
 ! A2    A(2,1,7)              120.9862         estimate D2E/DX2                !
 ! A3    A(6,1,7)              117.1718         estimate D2E/DX2                !
 ! A4    A(1,2,3)              122.752          estimate D2E/DX2                !
 ! A5    A(1,2,8)              120.861          estimate D2E/DX2                !
 ! A6    A(3,2,8)              115.9559         estimate D2E/DX2                !
 ! A7    A(2,3,4)              124.7725         estimate D2E/DX2                !
 ! A8    A(2,3,5)              115.6448         estimate D2E/DX2                !
 ! A9    A(4,3,5)              119.5343         estimate D2E/DX2                !
 ! D1    D(6,1,2,3)            176.0029         estimate D2E/DX2                !
 ! D2    D(6,1,2,8)              3.8459         estimate D2E/DX2                !
 ! D3    D(7,1,2,3)             -4.2119         estimate D2E/DX2                !
 ! D4    D(7,1,2,8)           -176.3689         estimate D2E/DX2                !
 ! D5    D(1,2,3,4)             40.0008         Frozen                          !
 ! D6    D(1,2,3,5)           -142.5531         estimate D2E/DX2                !
 ! D7    D(8,2,3,4)           -147.485          estimate D2E/DX2                !
 ! D8    D(8,2,3,5)             29.9611         estimate D2E/DX2                !
 --------------------------------------------------------------------------------
 Trust Radius=3.00D-01 FncErr=1.00D-07 GrdErr=1.00D-06
 Number of steps in this run=     34 maximum allowed number of steps=    100.
 GradGradGradGradGradGradGradGradGradGradGradGradGradGradGradGradGradGrad

 Leave Link  103 at Wed May 12 11:58:24 2021, MaxMem=  2147483648 cpu:         0.1
 (Enter /opt/cluster/programs/g09_d.01/g09/l202.exe)
                          Input orientation:                          
 ---------------------------------------------------------------------
 Center     Atomic      Atomic             Coordinates (Angstroms)
 Number     Number       Type             X           Y           Z
 ---------------------------------------------------------------------
      1          6           0        1.520377    0.449903    0.065506
      2          6           0        0.657506   -0.563277   -0.126548
      3          6           0       -0.789763   -0.442050    0.142044
      4          8           0       -1.478834    0.559102   -0.122179
      5          1           0       -1.272664   -1.337193    0.571497
      6          1           0        2.589583    0.326140   -0.075676
      7          1           0        1.170178    1.433505    0.367366
      8          1           0        1.014859   -1.562725   -0.371768
 ---------------------------------------------------------------------
                    Distance matrix (angstroms):
                    1          2          3          4          5
     1  C    0.000000
     2  C    1.344606   0.000000
     3  C    2.477536   1.476965   0.000000
     4  O    3.007061   2.413235   1.243760   0.000000
     5  H    3.354224   2.193574   1.104040   2.029686   0.000000
     6  H    1.085565   2.127574   3.472391   4.075347   4.254699
     7  H    1.086845   2.119887   2.722103   2.832225   3.699448
     8  H    2.120714   1.089372   2.185538   3.283740   2.484628
                    6          7          8
     6  H    0.000000
     7  H    1.853983   0.000000
     8  H    2.476941   3.089957   0.000000
 Stoichiometry    C3H4O
 Framework group  C1[X(C3H4O)]
 Deg. of freedom    18
 Full point group                 C1      NOp   1
 Largest Abelian subgroup         C1      NOp   1
 Largest concise Abelian subgroup C1      NOp   1
                         Standard orientation:                         
 ---------------------------------------------------------------------
 Center     Atomic      Atomic             Coordinates (Angstroms)
 Number     Number       Type             X           Y           Z
 ---------------------------------------------------------------------
      1          6           0       -1.520377   -0.449903    0.065506
      2          6           0       -0.657506    0.563277   -0.126548
      3          6           0        0.789763    0.442050    0.142044
      4          8           0        1.478834   -0.559102   -0.122179
      5          1           0        1.272664    1.337193    0.571497
      6          1           0       -2.589583   -0.326140   -0.075676
      7          1           0       -1.170178   -1.433505    0.367366
      8          1           0       -1.014859    1.562725   -0.371768
 ---------------------------------------------------------------------
 Rotational constants (GHZ):     23.8114315      5.7817230      4.7678287
 Leave Link  202 at Wed May 12 11:58:24 2021, MaxMem=  2147483648 cpu:         0.0
 (Enter /opt/cluster/programs/g09_d.01/g09/l301.exe)
 Standard basis: 6-31+G (6D, 7F)
 Ernie: Thresh=  0.10000D-02 Tol=  0.10000D-05 Strict=F.
 There are    60 symmetry adapted cartesian basis functions of A   symmetry.
 There are    60 symmetry adapted basis functions of A   symmetry.
    60 basis functions,   120 primitive gaussians,    60 cartesian basis functions
    15 alpha electrons       15 beta electrons
       nuclear repulsion energy       103.2610093645 Hartrees.
 IExCor= 4639 DFT=T Ex+Corr=wB97XD ExCW=0 ScaHFX=  1.000000
 ScaDFX=  1.000000  1.000000  1.000000  1.000000 ScalE2=  1.000000  1.000000
 IRadAn=      0 IRanWt=     -1 IRanGd=            0 ICorTp=0 IEmpDi=121
  HFx wShort=  0.000000 wLong=  0.200000 cFull=  0.222036 cShort=  0.000000 cLong=  0.777964
  DFx wShort=  0.000000 wLong=  0.200000 cFull=  0.000000 cShort=  0.000000 cLong=  1.000000
 NAtoms=    8 NActive=    8 NUniq=    8 SFac= 1.00D+00 NAtFMM=   60 NAOKFM=F Big=F
 Integral buffers will be    131072 words long.
 Raffenetti 2 integral format.
 Two-electron integral symmetry is turned on.
 R6Disp:  Grimme-D2 Dispersion energy=       -0.0017935313 Hartrees.
 Nuclear repulsion after empirical dispersion term =      103.2592158332 Hartrees.
 Leave Link  301 at Wed May 12 11:58:24 2021, MaxMem=  2147483648 cpu:         0.3
 (Enter /opt/cluster/programs/g09_d.01/g09/l302.exe)
 NPDir=0 NMtPBC=     1 NCelOv=     1 NCel=       1 NClECP=     1 NCelD=      1
         NCelK=      1 NCelE2=     1 NClLst=     1 CellRange=     0.0.
 One-electron integrals computed using PRISM.
 NBasis=    60 RedAO= T EigKep=  1.39D-04  NBF=    60
 NBsUse=    60 1.00D-06 EigRej= -1.00D+00 NBFU=    60
 Precomputing XC quadrature grid using
 IXCGrd= 4 IRadAn=           0 IRanWt=          -1 IRanGd=           0 AccXCQ= 0.00D+00.
 Generated NRdTot=       0 NPtTot=           0 NUsed=           0 NTot=          32
 NSgBfM=    60    60    60    60    60 MxSgAt=     8 MxSgA2=     8.
 Leave Link  302 at Wed May 12 11:58:24 2021, MaxMem=  2147483648 cpu:         0.8
 (Enter /opt/cluster/programs/g09_d.01/g09/l303.exe)
 DipDrv:  MaxL=1.
 Leave Link  303 at Wed May 12 11:58:24 2021, MaxMem=  2147483648 cpu:         0.2
 (Enter /opt/cluster/programs/g09_d.01/g09/l401.exe)
 ExpMin= 4.38D-02 ExpMax= 5.48D+03 ExpMxC= 8.25D+02 IAcc=2 IRadAn=         4 AccDes= 0.00D+00
 Harris functional with IExCor= 4639 and IRadAn=       4 diagonalized for initial guess.
 HarFok:  IExCor= 4639 AccDes= 0.00D+00 IRadAn=         4 IDoV= 1 UseB2=F ITyADJ=14
 ICtDFT=  3500011 ScaDFX=  1.000000  1.000000  1.000000  1.000000
 FoFCou: FMM=F IPFlag=           0 FMFlag=      100000 FMFlg1=           0
         NFxFlg=           0 DoJE=T BraDBF=F KetDBF=T FulRan=T
         wScrn=  0.000000 ICntrl=     500 IOpCl=  0 I1Cent=   200000004 NGrid=           0
         NMat0=    1 NMatS0=      1 NMatT0=    0 NMatD0=    1 NMtDS0=    0 NMtDT0=    0
 Petite list used in FoFCou.
 Harris En= -183.745266328937    
 JPrj=0 DoOrth=F DoCkMO=F.
 Leave Link  401 at Wed May 12 11:58:24 2021, MaxMem=  2147483648 cpu:         1.0
 (Enter /opt/cluster/programs/g09_d.01/g09/l502.exe)
 Closed shell SCF:
 Using DIIS extrapolation, IDIIS=  1040.
 Integral symmetry usage will be decided dynamically.
 Keep R1 ints in memory in canonical form, NReq=4262490.
 IVT=       30290 IEndB=       30290 NGot=  2147483648 MDV=  2144102629
 LenX=  2144102629 LenY=  2144098588
 Requested convergence on RMS density matrix=1.00D-08 within 128 cycles.
 Requested convergence on MAX density matrix=1.00D-06.
 Requested convergence on             energy=1.00D-06.
 No special actions if energy rises.
 FoFCou: FMM=F IPFlag=           0 FMFlag=           0 FMFlg1=           0
         NFxFlg=           0 DoJE=F BraDBF=F KetDBF=F FulRan=T
         wScrn=  0.000000 ICntrl=     600 IOpCl=  0 I1Cent=           0 NGrid=           0
         NMat0=    1 NMatS0=   1830 NMatT0=    0 NMatD0=    1 NMtDS0=    0 NMtDT0=    0
 Symmetry not used in FoFCou.

 Cycle   1  Pass 1  IDiag  1:
 E= -191.750857728569    
 DIIS: error= 2.87D-02 at cycle   1 NSaved=   1.
 NSaved= 1 IEnMin= 1 EnMin= -191.750857728569     IErMin= 1 ErrMin= 2.87D-02
 ErrMax= 2.87D-02  0.00D+00 EMaxC= 1.00D-01 BMatC= 7.24D-02 BMatP= 7.24D-02
 IDIUse=3 WtCom= 7.13D-01 WtEn= 2.87D-01
 Coeff-Com:  0.100D+01
 Coeff-En:   0.100D+01
 Coeff:      0.100D+01
 Gap=     0.400 Goal=   None    Shift=    0.000
 GapD=    0.400 DampG=2.000 DampE=0.500 DampFc=1.0000 IDamp=-1.
 RMSDP=1.45D-02 MaxDP=2.57D-01              OVMax= 9.49D-02

 Cycle   2  Pass 1  IDiag  1:
 E= -191.760698103724     Delta-E=       -0.009840375154 Rises=F Damp=F
 DIIS: error= 2.10D-02 at cycle   2 NSaved=   2.
 NSaved= 2 IEnMin= 2 EnMin= -191.760698103724     IErMin= 2 ErrMin= 2.10D-02
 ErrMax= 2.10D-02  0.00D+00 EMaxC= 1.00D-01 BMatC= 3.55D-02 BMatP= 7.24D-02
 IDIUse=3 WtCom= 7.90D-01 WtEn= 2.10D-01
 Coeff-Com:  0.392D+00 0.608D+00
 Coeff-En:   0.409D+00 0.591D+00
 Coeff:      0.395D+00 0.605D+00
 Gap=     0.389 Goal=   None    Shift=    0.000
 RMSDP=4.22D-03 MaxDP=5.99D-02 DE=-9.84D-03 OVMax= 8.47D-02

 Cycle   3  Pass 1  IDiag  1:
 E= -191.783917806797     Delta-E=       -0.023219703074 Rises=F Damp=F
 DIIS: error= 9.60D-03 at cycle   3 NSaved=   3.
 NSaved= 3 IEnMin= 3 EnMin= -191.783917806797     IErMin= 3 ErrMin= 9.60D-03
 ErrMax= 9.60D-03  0.00D+00 EMaxC= 1.00D-01 BMatC= 7.70D-03 BMatP= 3.55D-02
 IDIUse=3 WtCom= 9.04D-01 WtEn= 9.60D-02
 Coeff-Com:  0.587D-01 0.323D+00 0.619D+00
 Coeff-En:   0.000D+00 0.142D+00 0.858D+00
 Coeff:      0.530D-01 0.305D+00 0.642D+00
 Gap=     0.346 Goal=   None    Shift=    0.000
 RMSDP=2.37D-03 MaxDP=2.90D-02 DE=-2.32D-02 OVMax= 2.65D-02

 Cycle   4  Pass 1  IDiag  1:
 E= -191.789228556283     Delta-E=       -0.005310749486 Rises=F Damp=F
 DIIS: error= 3.25D-03 at cycle   4 NSaved=   4.
 NSaved= 4 IEnMin= 4 EnMin= -191.789228556283     IErMin= 4 ErrMin= 3.25D-03
 ErrMax= 3.25D-03  0.00D+00 EMaxC= 1.00D-01 BMatC= 8.22D-04 BMatP= 7.70D-03
 IDIUse=3 WtCom= 9.67D-01 WtEn= 3.25D-02
 Coeff-Com: -0.486D-02 0.922D-01 0.331D+00 0.582D+00
 Coeff-En:   0.000D+00 0.000D+00 0.470D-01 0.953D+00
 Coeff:     -0.471D-02 0.892D-01 0.321D+00 0.594D+00
 Gap=     0.344 Goal=   None    Shift=    0.000
 RMSDP=6.51D-04 MaxDP=7.10D-03 DE=-5.31D-03 OVMax= 7.78D-03

 Cycle   5  Pass 1  IDiag  1:
 E= -191.789922069309     Delta-E=       -0.000693513026 Rises=F Damp=F
 DIIS: error= 6.95D-04 at cycle   5 NSaved=   5.
 NSaved= 5 IEnMin= 5 EnMin= -191.789922069309     IErMin= 5 ErrMin= 6.95D-04
 ErrMax= 6.95D-04  0.00D+00 EMaxC= 1.00D-01 BMatC= 2.03D-05 BMatP= 8.22D-04
 IDIUse=3 WtCom= 9.93D-01 WtEn= 6.95D-03
 Coeff-Com: -0.449D-02 0.193D-01 0.978D-01 0.231D+00 0.657D+00
 Coeff-En:   0.000D+00 0.000D+00 0.000D+00 0.000D+00 0.100D+01
 Coeff:     -0.446D-02 0.192D-01 0.972D-01 0.229D+00 0.659D+00
 Gap=     0.343 Goal=   None    Shift=    0.000
 RMSDP=2.54D-04 MaxDP=3.46D-03 DE=-6.94D-04 OVMax= 2.38D-03

 Cycle   6  Pass 1  IDiag  1:
 E= -191.789944641574     Delta-E=       -0.000022572265 Rises=F Damp=F
 DIIS: error= 2.31D-04 at cycle   6 NSaved=   6.
 NSaved= 6 IEnMin= 6 EnMin= -191.789944641574     IErMin= 6 ErrMin= 2.31D-04
 ErrMax= 2.31D-04  0.00D+00 EMaxC= 1.00D-01 BMatC= 1.90D-06 BMatP= 2.03D-05
 IDIUse=3 WtCom= 9.98D-01 WtEn= 2.31D-03
 Coeff-Com: -0.104D-03-0.121D-01-0.320D-01-0.424D-01 0.189D+00 0.898D+00
 Coeff-En:   0.000D+00 0.000D+00 0.000D+00 0.000D+00 0.000D+00 0.100D+01
 Coeff:     -0.104D-03-0.121D-01-0.320D-01-0.423D-01 0.188D+00 0.898D+00
 Gap=     0.344 Goal=   None    Shift=    0.000
 RMSDP=1.88D-04 MaxDP=2.73D-03 DE=-2.26D-05 OVMax= 1.24D-03

 Cycle   7  Pass 1  IDiag  1:
 E= -191.789948015578     Delta-E=       -0.000003374004 Rises=F Damp=F
 DIIS: error= 3.61D-05 at cycle   7 NSaved=   7.
 NSaved= 7 IEnMin= 7 EnMin= -191.789948015578     IErMin= 7 ErrMin= 3.61D-05
 ErrMax= 3.61D-05  0.00D+00 EMaxC= 1.00D-01 BMatC= 1.08D-07 BMatP= 1.90D-06
 IDIUse=1 WtCom= 1.00D+00 WtEn= 0.00D+00
 Coeff-Com:  0.330D-03-0.457D-02-0.164D-01-0.272D-01 0.593D-02 0.234D+00
 Coeff-Com:  0.808D+00
 Coeff:      0.330D-03-0.457D-02-0.164D-01-0.272D-01 0.593D-02 0.234D+00
 Coeff:      0.808D+00
 Gap=     0.344 Goal=   None    Shift=    0.000
 RMSDP=3.76D-05 MaxDP=5.14D-04 DE=-3.37D-06 OVMax= 2.41D-04

 Cycle   8  Pass 1  IDiag  1:
 E= -191.789948270520     Delta-E=       -0.000000254942 Rises=F Damp=F
 DIIS: error= 1.37D-05 at cycle   8 NSaved=   8.
 NSaved= 8 IEnMin= 8 EnMin= -191.789948270520     IErMin= 8 ErrMin= 1.37D-05
 ErrMax= 1.37D-05  0.00D+00 EMaxC= 1.00D-01 BMatC= 1.02D-08 BMatP= 1.08D-07
 IDIUse=1 WtCom= 1.00D+00 WtEn= 0.00D+00
 Coeff-Com:  0.528D-05 0.141D-02 0.284D-02 0.378D-02-0.239D-01-0.107D+00
 Coeff-Com:  0.387D-01 0.108D+01
 Coeff:      0.528D-05 0.141D-02 0.284D-02 0.378D-02-0.239D-01-0.107D+00
 Coeff:      0.387D-01 0.108D+01
 Gap=     0.344 Goal=   None    Shift=    0.000
 RMSDP=1.43D-05 MaxDP=1.65D-04 DE=-2.55D-07 OVMax= 1.65D-04

 Cycle   9  Pass 1  IDiag  1:
 E= -191.789948315417     Delta-E=       -0.000000044897 Rises=F Damp=F
 DIIS: error= 6.26D-06 at cycle   9 NSaved=   9.
 NSaved= 9 IEnMin= 9 EnMin= -191.789948315417     IErMin= 9 ErrMin= 6.26D-06
 ErrMax= 6.26D-06  0.00D+00 EMaxC= 1.00D-01 BMatC= 7.42D-10 BMatP= 1.02D-08
 IDIUse=1 WtCom= 1.00D+00 WtEn= 0.00D+00
 Coeff-Com: -0.242D-04 0.231D-03 0.923D-03 0.167D-02 0.463D-02-0.581D-02
 Coeff-Com: -0.725D-01-0.137D+00 0.121D+01
 Coeff:     -0.242D-04 0.231D-03 0.923D-03 0.167D-02 0.463D-02-0.581D-02
 Coeff:     -0.725D-01-0.137D+00 0.121D+01
 Gap=     0.344 Goal=   None    Shift=    0.000
 RMSDP=3.77D-06 MaxDP=3.98D-05 DE=-4.49D-08 OVMax= 7.76D-05

 Cycle  10  Pass 1  IDiag  1:
 E= -191.789948320752     Delta-E=       -0.000000005335 Rises=F Damp=F
 DIIS: error= 2.73D-06 at cycle  10 NSaved=  10.
 NSaved=10 IEnMin=10 EnMin= -191.789948320752     IErMin=10 ErrMin= 2.73D-06
 ErrMax= 2.73D-06  0.00D+00 EMaxC= 1.00D-01 BMatC= 8.95D-11 BMatP= 7.42D-10
 IDIUse=1 WtCom= 1.00D+00 WtEn= 0.00D+00
 Coeff-Com:  0.961D-05-0.200D-03-0.628D-03-0.947D-03 0.215D-03 0.108D-01
 Coeff-Com:  0.278D-01-0.282D-01-0.525D+00 0.152D+01
 Coeff:      0.961D-05-0.200D-03-0.628D-03-0.947D-03 0.215D-03 0.108D-01
 Coeff:      0.278D-01-0.282D-01-0.525D+00 0.152D+01
 Gap=     0.344 Goal=   None    Shift=    0.000
 RMSDP=1.79D-06 MaxDP=2.37D-05 DE=-5.33D-09 OVMax= 4.18D-05

 Cycle  11  Pass 1  IDiag  1:
 E= -191.789948321711     Delta-E=       -0.000000000959 Rises=F Damp=F
 DIIS: error= 8.01D-07 at cycle  11 NSaved=  11.
 NSaved=11 IEnMin=11 EnMin= -191.789948321711     IErMin=11 ErrMin= 8.01D-07
 ErrMax= 8.01D-07  0.00D+00 EMaxC= 1.00D-01 BMatC= 9.38D-12 BMatP= 8.95D-11
 IDIUse=1 WtCom= 1.00D+00 WtEn= 0.00D+00
 Coeff-Com: -0.173D-05 0.524D-04 0.169D-03 0.197D-03-0.659D-03-0.421D-02
 Coeff-Com: -0.355D-02 0.250D-01 0.784D-01-0.616D+00 0.152D+01
 Coeff:     -0.173D-05 0.524D-04 0.169D-03 0.197D-03-0.659D-03-0.421D-02
 Coeff:     -0.355D-02 0.250D-01 0.784D-01-0.616D+00 0.152D+01
 Gap=     0.344 Goal=   None    Shift=    0.000
 RMSDP=4.24D-07 MaxDP=3.47D-06 DE=-9.59D-10 OVMax= 1.57D-05

 Cycle  12  Pass 1  IDiag  1:
 E= -191.789948321805     Delta-E=       -0.000000000094 Rises=F Damp=F
 DIIS: error= 8.81D-08 at cycle  12 NSaved=  12.
 NSaved=12 IEnMin=12 EnMin= -191.789948321805     IErMin=12 ErrMin= 8.81D-08
 ErrMax= 8.81D-08  0.00D+00 EMaxC= 1.00D-01 BMatC= 4.35D-13 BMatP= 9.38D-12
 IDIUse=1 WtCom= 1.00D+00 WtEn= 0.00D+00
 Coeff-Com: -0.180D-06 0.930D-06 0.928D-05 0.229D-04 0.835D-04 0.366D-03
 Coeff-Com: -0.942D-03-0.320D-02 0.145D-01 0.420D-01-0.310D+00 0.126D+01
 Coeff:     -0.180D-06 0.930D-06 0.928D-05 0.229D-04 0.835D-04 0.366D-03
 Coeff:     -0.942D-03-0.320D-02 0.145D-01 0.420D-01-0.310D+00 0.126D+01
 Gap=     0.344 Goal=   None    Shift=    0.000
 RMSDP=8.31D-08 MaxDP=8.24D-07 DE=-9.36D-11 OVMax= 1.49D-06

 Cycle  13  Pass 1  IDiag  1:
 E= -191.789948321808     Delta-E=       -0.000000000003 Rises=F Damp=F
 DIIS: error= 1.55D-08 at cycle  13 NSaved=  13.
 NSaved=13 IEnMin=13 EnMin= -191.789948321808     IErMin=13 ErrMin= 1.55D-08
 ErrMax= 1.55D-08  0.00D+00 EMaxC= 1.00D-01 BMatC= 1.03D-14 BMatP= 4.35D-13
 IDIUse=1 WtCom= 1.00D+00 WtEn= 0.00D+00
 Coeff-Com:  0.714D-07-0.157D-05-0.579D-05-0.756D-05-0.210D-05 0.790D-04
 Coeff-Com:  0.239D-03-0.274D-03-0.448D-02 0.119D-01 0.229D-02-0.230D+00
 Coeff-Com:  0.122D+01
 Coeff:      0.714D-07-0.157D-05-0.579D-05-0.756D-05-0.210D-05 0.790D-04
 Coeff:      0.239D-03-0.274D-03-0.448D-02 0.119D-01 0.229D-02-0.230D+00
 Coeff:      0.122D+01
 Gap=     0.344 Goal=   None    Shift=    0.000
 RMSDP=1.24D-08 MaxDP=8.98D-08 DE=-3.18D-12 OVMax= 1.70D-07

 Cycle  14  Pass 1  IDiag  1:
 E= -191.789948321806     Delta-E=        0.000000000002 Rises=F Damp=F
 DIIS: error= 1.92D-09 at cycle  14 NSaved=  14.
 NSaved=14 IEnMin=13 EnMin= -191.789948321808     IErMin=14 ErrMin= 1.92D-09
 ErrMax= 1.92D-09  0.00D+00 EMaxC= 1.00D-01 BMatC= 2.34D-16 BMatP= 1.03D-14
 IDIUse=1 WtCom= 1.00D+00 WtEn= 0.00D+00
 Coeff-Com: -0.870D-08 0.219D-06 0.676D-06 0.440D-06-0.411D-05-0.235D-04
 Coeff-Com: -0.238D-04 0.148D-03 0.316D-03-0.340D-02 0.101D-01-0.265D-02
 Coeff-Com: -0.184D+00 0.118D+01
 Coeff:     -0.870D-08 0.219D-06 0.676D-06 0.440D-06-0.411D-05-0.235D-04
 Coeff:     -0.238D-04 0.148D-03 0.316D-03-0.340D-02 0.101D-01-0.265D-02
 Coeff:     -0.184D+00 0.118D+01
 Gap=     0.344 Goal=   None    Shift=    0.000
 RMSDP=1.65D-09 MaxDP=1.77D-08 DE= 1.99D-12 OVMax= 1.56D-08

 SCF Done:  E(RwB97XD) =  -191.789948322     A.U. after   14 cycles
            NFock= 14  Conv=0.16D-08     -V/T= 2.0061
 KE= 1.906339344139D+02 PE=-6.539632524771D+02 EE= 1.682801539082D+02
 Leave Link  502 at Wed May 12 11:58:25 2021, MaxMem=  2147483648 cpu:         9.3
 (Enter /opt/cluster/programs/g09_d.01/g09/l601.exe)
 Copying SCF densities to generalized density rwf, IOpCl= 0 IROHF=0.

 **********************************************************************

            Population analysis using the SCF density.

 **********************************************************************

 Orbital symmetries:
       Occupied  (A) (A) (A) (A) (A) (A) (A) (A) (A) (A) (A) (A)
                 (A) (A) (A)
       Virtual   (A) (A) (A) (A) (A) (A) (A) (A) (A) (A) (A) (A)
                 (A) (A) (A) (A) (A) (A) (A) (A) (A) (A) (A) (A)
                 (A) (A) (A) (A) (A) (A) (A) (A) (A) (A) (A) (A)
                 (A) (A) (A) (A) (A) (A) (A) (A) (A)
 The electronic state is 1-A.
 Alpha  occ. eigenvalues --  -19.28936 -10.40731 -10.33281 -10.33138  -1.16743
 Alpha  occ. eigenvalues --   -0.91041  -0.77065  -0.65388  -0.61304  -0.54619
 Alpha  occ. eigenvalues --   -0.53275  -0.48664  -0.47616  -0.37746  -0.35257
 Alpha virt. eigenvalues --   -0.00883   0.06658   0.07995   0.08773   0.10033
 Alpha virt. eigenvalues --    0.11415   0.12555   0.13382   0.14853   0.16241
 Alpha virt. eigenvalues --    0.17545   0.17667   0.20087   0.22326   0.26352
 Alpha virt. eigenvalues --    0.28164   0.30378   0.31827   0.32551   0.35360
 Alpha virt. eigenvalues --    0.37112   0.37773   0.42248   0.46038   0.52253
 Alpha virt. eigenvalues --    0.70832   0.72634   0.76591   0.78098   0.80657
 Alpha virt. eigenvalues --    0.83390   0.88750   0.96399   1.01980   1.04694
 Alpha virt. eigenvalues --    1.10917   1.13136   1.17867   1.23568   1.27673
 Alpha virt. eigenvalues --    1.31550   1.36636   1.38667   1.43264   1.89483
          Condensed to atoms (all electrons):
               1          2          3          4          5          6
     1  C    5.305959   0.269034   0.020293   0.044937   0.033318   0.364604
     2  C    0.269034   5.734598   0.135686  -0.195796  -0.133192  -0.025675
     3  C    0.020293   0.135686   5.090374   0.317495   0.358428   0.009162
     4  O    0.044937  -0.195796   0.317495   8.312488  -0.063947   0.000355
     5  H    0.033318  -0.133192   0.358428  -0.063947   0.624131  -0.000089
     6  H    0.364604  -0.025675   0.009162   0.000355  -0.000089   0.472551
     7  H    0.397217  -0.058046   0.004443   0.000791   0.000125  -0.022551
     8  H    0.017719   0.307927  -0.015042   0.005129   0.001674  -0.003460
               7          8
     1  C    0.397217   0.017719
     2  C   -0.058046   0.307927
     3  C    0.004443  -0.015042
     4  O    0.000791   0.005129
     5  H    0.000125   0.001674
     6  H   -0.022551  -0.003460
     7  H    0.448000   0.002481
     8  H    0.002481   0.465857
 Mulliken charges:
               1
     1  C   -0.453081
     2  C   -0.034537
     3  C    0.079160
     4  O   -0.421452
     5  H    0.179552
     6  H    0.205103
     7  H    0.227540
     8  H    0.217715
 Sum of Mulliken charges =   0.00000
 Mulliken charges with hydrogens summed into heavy atoms:
               1
     1  C   -0.020438
     2  C    0.183179
     3  C    0.258711
     4  O   -0.421452
 Electronic spatial extent (au):  <R**2>=            277.7440
 Charge=              0.0000 electrons
 Dipole moment (field-independent basis, Debye):
    X=             -2.6256    Y=              1.9874    Z=              0.6210  Tot=              3.3509
 Quadrupole moment (field-independent basis, Debye-Ang):
   XX=            -25.2929   YY=            -22.5294   ZZ=            -25.1843
   XY=              3.5876   XZ=              1.0070   YZ=             -0.9312
 Traceless Quadrupole moment (field-independent basis, Debye-Ang):
   XX=             -0.9574   YY=              1.8062   ZZ=             -0.8488
   XY=              3.5876   XZ=              1.0070   YZ=             -0.9312
 Octapole moment (field-independent basis, Debye-Ang**2):
  XXX=            -10.1032  YYY=              0.3305  ZZZ=             -0.0783  XYY=             -0.8158
  XXY=              3.2288  XXZ=             -0.0101  XZZ=              3.6853  YZZ=             -0.4460
  YYZ=              0.5768  XYZ=              1.0300
 Hexadecapole moment (field-independent basis, Debye-Ang**3):
 XXXX=           -243.8868 YYYY=            -78.4563 ZZZZ=            -31.8912 XXXY=              7.3182
 XXXZ=              2.7399 YYYX=             -0.0623 YYYZ=             -2.2405 ZZZX=             -0.1846
 ZZZY=             -0.3606 XXYY=            -54.6758 XXZZ=            -48.9526 YYZZ=            -19.3289
 XXYZ=             -0.8396 YYXZ=              1.0516 ZZXY=             -0.1994
 N-N= 1.032592158332D+02 E-N=-6.539632524803D+02  KE= 1.906339344139D+02
 No NMR shielding tensors so no spin-rotation constants.
 Leave Link  601 at Wed May 12 11:58:25 2021, MaxMem=  2147483648 cpu:         0.6
 (Enter /opt/cluster/programs/g09_d.01/g09/l701.exe)
 Compute integral first derivatives.
 ... and contract with generalized density number  0.
 R6Disp: Adding Grimme-D2 dispersion energy 1st derivatives to the gradient.
 Leave Link  701 at Wed May 12 11:58:26 2021, MaxMem=  2147483648 cpu:         0.6
 (Enter /opt/cluster/programs/g09_d.01/g09/l702.exe)
 L702 exits ... SP integral derivatives will be done elsewhere.
 Leave Link  702 at Wed May 12 11:58:26 2021, MaxMem=  2147483648 cpu:         0.2
 (Enter /opt/cluster/programs/g09_d.01/g09/l703.exe)
 Compute integral first derivatives, UseDBF=F ICtDFT=           0.
 Integral derivatives from FoFJK, PRISM(SPDF).
 Calling FoFJK, ICntrl=      2127 FMM=F ISym2X=0 I1Cent= 0 IOpClX= 0 NMat=1 NMatS=1 NMatT=0.
 FoFJK:  IHMeth= 1 ICntrl=    2127 DoSepK=T KAlg= 0 I1Cent=   0 FoldK=F
 IRaf=         1 NMat=   1 IRICut=       1 DoRegI=T DoRafI=F ISym2E= 0.
 FoFCou: FMM=F IPFlag=           0 FMFlag=      100000 FMFlg1=         800
         NFxFlg=           0 DoJE=F BraDBF=F KetDBF=F FulRan=T
         wScrn=  0.000000 ICntrl=    2527 IOpCl=  0 I1Cent=           0 NGrid=           0
         NMat0=    1 NMatS0=      1 NMatT0=    0 NMatD0=    1 NMtDS0=    0 NMtDT0=    0
 Symmetry not used in FoFCou.
 Leave Link  703 at Wed May 12 11:58:26 2021, MaxMem=  2147483648 cpu:         2.5
 (Enter /opt/cluster/programs/g09_d.01/g09/l716.exe)
 Dipole        =-1.03297566D+00 7.81885450D-01 2.44315783D-01
 ***** Axes restored to original set *****
 -------------------------------------------------------------------
 Center     Atomic                   Forces (Hartrees/Bohr)
 Number     Number              X              Y              Z
 -------------------------------------------------------------------
      1        6          -0.004443119   -0.001973481   -0.004691011
      2        6           0.005248667    0.002330233    0.009060675
      3        6          -0.006969220    0.003561885   -0.009757704
      4        8           0.007007008   -0.005667238    0.006229300
      5        1           0.000473081    0.001770761   -0.000492054
      6        1          -0.000723391   -0.000514576   -0.000051628
      7        1          -0.000350082   -0.000402259   -0.000142130
      8        1          -0.000242943    0.000894676   -0.000155447
 -------------------------------------------------------------------
 Cartesian Forces:  Max     0.009757704 RMS     0.004295279
 Leave Link  716 at Wed May 12 11:58:26 2021, MaxMem=  2147483648 cpu:         0.2
 (Enter /opt/cluster/programs/g09_d.01/g09/l103.exe)

 GradGradGradGradGradGradGradGradGradGradGradGradGradGradGradGradGradGrad
 Berny optimization.
 FormGI is forming the generalized inverse of G from B-inverse, IUseBI=4.
 Internal  Forces:  Max     0.009772701 RMS     0.002945321
 Search for a local minimum.
 Step number   1 out of a maximum of   34
 All quantities printed in internal units (Hartrees-Bohrs-Radians)
 RMS Force = .25632D-02 SwitMx=.10000D-02 MixMth= 1
 Mixed Optimization -- RFO/linear search
 Second derivative matrix not updated -- first step.
 ITU=  0
     Eigenvalues ---    0.01075   0.01839   0.02822   0.02822   0.15911
     Eigenvalues ---    0.16000   0.16000   0.16000   0.22003   0.22021
     Eigenvalues ---    0.33239   0.34885   0.34919   0.35180   0.35330
     Eigenvalues ---    0.56185   0.855861000.000001000.000001000.00000
     Eigenvalues --- 1000.000001000.000001000.000001000.00000
 RFO step:  Lambda=-2.52803010D-04 EMin= 1.07474945D-02
 Linear search not attempted -- first point.
 Iteration  1 RMS(Cart)=  0.01211412 RMS(Int)=  0.00006541
 Iteration  2 RMS(Cart)=  0.00006634 RMS(Int)=  0.00001156
 Iteration  3 RMS(Cart)=  0.00000000 RMS(Int)=  0.00001156
 Iteration  1 RMS(Cart)=  0.00000013 RMS(Int)=  0.00000012
 ITry= 1 IFail=0 DXMaxC= 3.06D-02 DCOld= 1.00D+10 DXMaxT= 3.00D-01 DXLimC= 3.00D+00 Rises=F
 Variable       Old X    -DE/DX   Delta X   Delta X   Delta X     New X
                                 (Linear)    (Quad)   (Total)
    R1        2.54094  -0.00641   0.00000  -0.01140  -0.01140   2.52954
    R2        2.05142  -0.00065   0.00000  -0.00184  -0.00184   2.04958
    R3        2.05384  -0.00028   0.00000  -0.00081  -0.00081   2.05303
    R4        2.79106  -0.00126   0.00000  -0.00362  -0.00362   2.78744
    R5        2.05861  -0.00087   0.00000  -0.00248  -0.00248   2.05613
    R6        2.35037  -0.00977   0.00000  -0.01142  -0.01142   2.33895
    R7        2.08633  -0.00183   0.00000  -0.00550  -0.00550   2.08083
    A1        2.12654  -0.00050   0.00000  -0.00311  -0.00311   2.12343
    A2        2.11161  -0.00023   0.00000  -0.00146  -0.00146   2.11015
    A3        2.04503   0.00073   0.00000   0.00457   0.00457   2.04960
    A4        2.14243  -0.00149   0.00000  -0.00693  -0.00694   2.13549
    A5        2.10942   0.00096   0.00000   0.00329   0.00328   2.11270
    A6        2.02381   0.00081   0.00000   0.00448   0.00447   2.02828
    A7        2.17769  -0.00141   0.00000  -0.00655  -0.00658   2.17111
    A8        2.01838   0.00123   0.00000   0.00627   0.00624   2.02462
    A9        2.08627   0.00036   0.00000   0.00085   0.00081   2.08708
    D1        3.07183   0.00125   0.00000   0.00356   0.00356   3.07539
    D2        0.06712  -0.00127   0.00000  -0.00432  -0.00432   0.06281
    D3       -0.07351   0.00121   0.00000   0.00236   0.00236  -0.07115
    D4       -3.07822  -0.00130   0.00000  -0.00552  -0.00551  -3.08373
    D5        0.69815  -0.00595   0.00000   0.00000   0.00000   0.69815
    D6       -2.48802  -0.00101   0.00000   0.01508   0.01508  -2.47294
    D7       -2.57410  -0.00352   0.00000   0.00748   0.00748  -2.56662
    D8        0.52292   0.00142   0.00000   0.02256   0.02256   0.54548
         Item               Value     Threshold  Converged?
 Maximum Force            0.009773     0.000450     NO 
 RMS     Force            0.002563     0.000300     NO 
 Maximum Displacement     0.030570     0.001800     NO 
 RMS     Displacement     0.012126     0.001200     NO 
 Predicted change in Energy=-1.265474D-04
 Lowest energy point so far.  Saving SCF results.
 GradGradGradGradGradGradGradGradGradGradGradGradGradGradGradGradGradGrad

 Leave Link  103 at Wed May 12 11:58:26 2021, MaxMem=  2147483648 cpu:         0.0
 (Enter /opt/cluster/programs/g09_d.01/g09/l202.exe)
                          Input orientation:                          
 ---------------------------------------------------------------------
 Center     Atomic      Atomic             Coordinates (Angstroms)
 Number     Number       Type             X           Y           Z
 ---------------------------------------------------------------------
      1          6           0        1.513573    0.446848    0.066909
      2          6           0        0.659997   -0.565752   -0.127580
      3          6           0       -0.785328   -0.442280    0.139927
      4          8           0       -1.462657    0.558854   -0.126352
      5          1           0       -1.271694   -1.325841    0.581801
      6          1           0        2.581987    0.326177   -0.075455
      7          1           0        1.156653    1.426916    0.370844
      8          1           0        1.018711   -1.561519   -0.379853
 ---------------------------------------------------------------------
                    Distance matrix (angstroms):
                    1          2          3          4          5
     1  C    0.000000
     2  C    1.338572   0.000000
     3  C    2.465933   1.475049   0.000000
     4  O    2.984600   2.402166   1.237719   0.000000
     5  H    3.341445   2.193716   1.101129   2.022380   0.000000
     6  H    1.084591   2.119504   3.460596   4.051651   4.244055
     7  H    1.086417   2.113249   2.705274   2.803841   3.676826
     8  H    2.116135   1.088058   2.185732   3.273749   2.495251
                    6          7          8
     6  H    0.000000
     7  H    1.855367   0.000000
     8  H    2.469795   3.084367   0.000000
 Stoichiometry    C3H4O
 Framework group  C1[X(C3H4O)]
 Deg. of freedom    18
 Full point group                 C1      NOp   1
 RotChk:  IX=0 Diff= 2.22D-03
 Largest Abelian subgroup         C1      NOp   1
 Largest concise Abelian subgroup C1      NOp   1
                         Standard orientation:                         
 ---------------------------------------------------------------------
 Center     Atomic      Atomic             Coordinates (Angstroms)
 Number     Number       Type             X           Y           Z
 ---------------------------------------------------------------------
      1          6           0       -1.509178   -0.450036    0.067145
      2          6           0       -0.656930    0.563823   -0.126602
      3          6           0        0.788405    0.442358    0.141773
      4          8           0        1.467327   -0.557751   -0.124297
      5          1           0        1.273235    1.326519    0.584134
      6          1           0       -2.577676   -0.330860   -0.075855
      7          1           0       -1.151048   -1.429657    0.371094
      8          1           0       -1.016908    1.559131   -0.378887
 ---------------------------------------------------------------------
 Rotational constants (GHZ):     23.8405945      5.8520131      4.8196796
 Leave Link  202 at Wed May 12 11:58:26 2021, MaxMem=  2147483648 cpu:         0.0
 (Enter /opt/cluster/programs/g09_d.01/g09/l301.exe)
 Standard basis: 6-31+G (6D, 7F)
 Ernie: Thresh=  0.10000D-02 Tol=  0.10000D-05 Strict=F.
 There are    60 symmetry adapted cartesian basis functions of A   symmetry.
 There are    60 symmetry adapted basis functions of A   symmetry.
    60 basis functions,   120 primitive gaussians,    60 cartesian basis functions
    15 alpha electrons       15 beta electrons
       nuclear repulsion energy       103.6655148744 Hartrees.
 IExCor= 4639 DFT=T Ex+Corr=wB97XD ExCW=0 ScaHFX=  1.000000
 ScaDFX=  1.000000  1.000000  1.000000  1.000000 ScalE2=  1.000000  1.000000
 IRadAn=      0 IRanWt=     -1 IRanGd=            0 ICorTp=0 IEmpDi=121
  HFx wShort=  0.000000 wLong=  0.200000 cFull=  0.222036 cShort=  0.000000 cLong=  0.777964
  DFx wShort=  0.000000 wLong=  0.200000 cFull=  0.000000 cShort=  0.000000 cLong=  1.000000
 NAtoms=    8 NActive=    8 NUniq=    8 SFac= 1.00D+00 NAtFMM=   60 NAOKFM=F Big=F
 Integral buffers will be    131072 words long.
 Raffenetti 2 integral format.
 Two-electron integral symmetry is turned on.
 R6Disp:  Grimme-D2 Dispersion energy=       -0.0017899820 Hartrees.
 Nuclear repulsion after empirical dispersion term =      103.6637248924 Hartrees.
 Leave Link  301 at Wed May 12 11:58:26 2021, MaxMem=  2147483648 cpu:         0.3
 (Enter /opt/cluster/programs/g09_d.01/g09/l302.exe)
 NPDir=0 NMtPBC=     1 NCelOv=     1 NCel=       1 NClECP=     1 NCelD=      1
         NCelK=      1 NCelE2=     1 NClLst=     1 CellRange=     0.0.
 One-electron integrals computed using PRISM.
 NBasis=    60 RedAO= T EigKep=  1.37D-04  NBF=    60
 NBsUse=    60 1.00D-06 EigRej= -1.00D+00 NBFU=    60
 Precomputing XC quadrature grid using
 IXCGrd= 4 IRadAn=           0 IRanWt=          -1 IRanGd=           0 AccXCQ= 0.00D+00.
 Generated NRdTot=       0 NPtTot=           0 NUsed=           0 NTot=          32
 NSgBfM=    60    60    60    60    60 MxSgAt=     8 MxSgA2=     8.
 Leave Link  302 at Wed May 12 11:58:26 2021, MaxMem=  2147483648 cpu:         0.8
 (Enter /opt/cluster/programs/g09_d.01/g09/l303.exe)
 DipDrv:  MaxL=1.
 Leave Link  303 at Wed May 12 11:58:26 2021, MaxMem=  2147483648 cpu:         0.2
 (Enter /opt/cluster/programs/g09_d.01/g09/l401.exe)
 Initial guess from the checkpoint file:  "/home/unibas/boittier/RDKit_G2/L.pdb/SCAN_1_2_3_4_S_17_20.0/11_SCAN_1_2_3_4_F/L.pdb.chk"
 B after Tr=     0.000000    0.000000    0.000000
         Rot=    1.000000   -0.000324   -0.000437   -0.000232 Ang=  -0.07 deg.
 Guess basis will be translated and rotated to current coordinates.
 JPrj=2 DoOrth=T DoCkMO=T.
 Generating alternative initial guess.
 ExpMin= 4.38D-02 ExpMax= 5.48D+03 ExpMxC= 8.25D+02 IAcc=2 IRadAn=         4 AccDes= 0.00D+00
 Harris functional with IExCor= 4639 and IRadAn=       4 diagonalized for initial guess.
 HarFok:  IExCor= 4639 AccDes= 0.00D+00 IRadAn=         4 IDoV= 1 UseB2=F ITyADJ=14
 ICtDFT=  3500011 ScaDFX=  1.000000  1.000000  1.000000  1.000000
 FoFCou: FMM=F IPFlag=           0 FMFlag=      100000 FMFlg1=           0
         NFxFlg=           0 DoJE=T BraDBF=F KetDBF=T FulRan=T
         wScrn=  0.000000 ICntrl=     500 IOpCl=  0 I1Cent=   200000004 NGrid=           0
         NMat0=    1 NMatS0=      1 NMatT0=    0 NMatD0=    1 NMtDS0=    0 NMtDT0=    0
 Petite list used in FoFCou.
 Harris En= -183.742773942376    
 Leave Link  401 at Wed May 12 11:58:26 2021, MaxMem=  2147483648 cpu:         1.4
 (Enter /opt/cluster/programs/g09_d.01/g09/l502.exe)
 Closed shell SCF:
 Using DIIS extrapolation, IDIIS=  1040.
 Integral symmetry usage will be decided dynamically.
 Keep R1 ints in memory in canonical form, NReq=4262490.
 IVT=       30290 IEndB=       30290 NGot=  2147483648 MDV=  2144102629
 LenX=  2144102629 LenY=  2144098588
 Requested convergence on RMS density matrix=1.00D-08 within 128 cycles.
 Requested convergence on MAX density matrix=1.00D-06.
 Requested convergence on             energy=1.00D-06.
 No special actions if energy rises.
 FoFCou: FMM=F IPFlag=           0 FMFlag=           0 FMFlg1=           0
         NFxFlg=           0 DoJE=F BraDBF=F KetDBF=F FulRan=T
         wScrn=  0.000000 ICntrl=     600 IOpCl=  0 I1Cent=           0 NGrid=           0
         NMat0=    1 NMatS0=   1830 NMatT0=    0 NMatD0=    1 NMtDS0=    0 NMtDT0=    0
 Symmetry not used in FoFCou.

 Cycle   1  Pass 1  IDiag  1:
 E= -191.789969655031    
 DIIS: error= 9.92D-04 at cycle   1 NSaved=   1.
 NSaved= 1 IEnMin= 1 EnMin= -191.789969655031     IErMin= 1 ErrMin= 9.92D-04
 ErrMax= 9.92D-04  0.00D+00 EMaxC= 1.00D-01 BMatC= 5.59D-05 BMatP= 5.59D-05
 IDIUse=3 WtCom= 9.90D-01 WtEn= 9.92D-03
 Coeff-Com:  0.100D+01
 Coeff-En:   0.100D+01
 Coeff:      0.100D+01
 Gap=     0.611 Goal=   None    Shift=    0.000
 RMSDP=3.28D-04 MaxDP=3.25D-03              OVMax= 2.64D-03

 Cycle   2  Pass 1  IDiag  1:
 E= -191.790059975514     Delta-E=       -0.000090320483 Rises=F Damp=F
 DIIS: error= 1.97D-04 at cycle   2 NSaved=   2.
 NSaved= 2 IEnMin= 2 EnMin= -191.790059975514     IErMin= 2 ErrMin= 1.97D-04
 ErrMax= 1.97D-04  0.00D+00 EMaxC= 1.00D-01 BMatC= 3.97D-06 BMatP= 5.59D-05
 IDIUse=3 WtCom= 9.98D-01 WtEn= 1.97D-03
 Coeff-Com:  0.984D-03 0.999D+00
 Coeff-En:   0.000D+00 0.100D+01
 Coeff:      0.982D-03 0.999D+00
 Gap=     0.345 Goal=   None    Shift=    0.000
 RMSDP=8.39D-05 MaxDP=8.77D-04 DE=-9.03D-05 OVMax= 1.30D-03

 Cycle   3  Pass 1  IDiag  1:
 E= -191.790067128687     Delta-E=       -0.000007153173 Rises=F Damp=F
 DIIS: error= 9.58D-05 at cycle   3 NSaved=   3.
 NSaved= 3 IEnMin= 3 EnMin= -191.790067128687     IErMin= 3 ErrMin= 9.58D-05
 ErrMax= 9.58D-05  0.00D+00 EMaxC= 1.00D-01 BMatC= 1.13D-06 BMatP= 3.97D-06
 IDIUse=1 WtCom= 1.00D+00 WtEn= 0.00D+00
 Coeff-Com: -0.718D-01 0.310D+00 0.762D+00
 Coeff:     -0.718D-01 0.310D+00 0.762D+00
 Gap=     0.345 Goal=   None    Shift=    0.000
 RMSDP=3.19D-05 MaxDP=2.92D-04 DE=-7.15D-06 OVMax= 5.63D-04

 Cycle   4  Pass 1  IDiag  1:
 E= -191.790068837373     Delta-E=       -0.000001708686 Rises=F Damp=F
 DIIS: error= 4.57D-05 at cycle   4 NSaved=   4.
 NSaved= 4 IEnMin= 4 EnMin= -191.790068837373     IErMin= 4 ErrMin= 4.57D-05
 ErrMax= 4.57D-05  0.00D+00 EMaxC= 1.00D-01 BMatC= 2.11D-07 BMatP= 1.13D-06
 IDIUse=1 WtCom= 1.00D+00 WtEn= 0.00D+00
 Coeff-Com: -0.330D-01 0.898D-01 0.339D+00 0.605D+00
 Coeff:     -0.330D-01 0.898D-01 0.339D+00 0.605D+00
 Gap=     0.345 Goal=   None    Shift=    0.000
 RMSDP=1.24D-05 MaxDP=1.67D-04 DE=-1.71D-06 OVMax= 2.84D-04

 Cycle   5  Pass 1  IDiag  1:
 E= -191.790069135747     Delta-E=       -0.000000298373 Rises=F Damp=F
 DIIS: error= 3.17D-05 at cycle   5 NSaved=   5.
 NSaved= 5 IEnMin= 5 EnMin= -191.790069135747     IErMin= 5 ErrMin= 3.17D-05
 ErrMax= 3.17D-05  0.00D+00 EMaxC= 1.00D-01 BMatC= 5.42D-08 BMatP= 2.11D-07
 IDIUse=1 WtCom= 1.00D+00 WtEn= 0.00D+00
 Coeff-Com:  0.128D-01-0.822D-01-0.133D+00 0.294D+00 0.909D+00
 Coeff:      0.128D-01-0.822D-01-0.133D+00 0.294D+00 0.909D+00
 Gap=     0.345 Goal=   None    Shift=    0.000
 RMSDP=1.19D-05 MaxDP=7.78D-05 DE=-2.98D-07 OVMax= 3.70D-04

 Cycle   6  Pass 1  IDiag  1:
 E= -191.790069302092     Delta-E=       -0.000000166345 Rises=F Damp=F
 DIIS: error= 1.53D-05 at cycle   6 NSaved=   6.
 NSaved= 6 IEnMin= 6 EnMin= -191.790069302092     IErMin= 6 ErrMin= 1.53D-05
 ErrMax= 1.53D-05  0.00D+00 EMaxC= 1.00D-01 BMatC= 6.46D-09 BMatP= 5.42D-08
 IDIUse=1 WtCom= 1.00D+00 WtEn= 0.00D+00
 Coeff-Com:  0.703D-02-0.322D-01-0.765D-01 0.101D-01 0.264D+00 0.828D+00
 Coeff:      0.703D-02-0.322D-01-0.765D-01 0.101D-01 0.264D+00 0.828D+00
 Gap=     0.345 Goal=   None    Shift=    0.000
 RMSDP=5.12D-06 MaxDP=4.89D-05 DE=-1.66D-07 OVMax= 1.60D-04

 Cycle   7  Pass 1  IDiag  1:
 E= -191.790069330440     Delta-E=       -0.000000028348 Rises=F Damp=F
 DIIS: error= 8.23D-06 at cycle   7 NSaved=   7.
 NSaved= 7 IEnMin= 7 EnMin= -191.790069330440     IErMin= 7 ErrMin= 8.23D-06
 ErrMax= 8.23D-06  0.00D+00 EMaxC= 1.00D-01 BMatC= 1.97D-09 BMatP= 6.46D-09
 IDIUse=1 WtCom= 1.00D+00 WtEn= 0.00D+00
 Coeff-Com: -0.225D-02 0.200D-01 0.225D-01-0.116D+00-0.260D+00 0.339D+00
 Coeff-Com:  0.997D+00
 Coeff:     -0.225D-02 0.200D-01 0.225D-01-0.116D+00-0.260D+00 0.339D+00
 Coeff:      0.997D+00
 Gap=     0.345 Goal=   None    Shift=    0.000
 RMSDP=4.14D-06 MaxDP=3.99D-05 DE=-2.83D-08 OVMax= 1.40D-04

 Cycle   8  Pass 1  IDiag  1:
 E= -191.790069341765     Delta-E=       -0.000000011325 Rises=F Damp=F
 DIIS: error= 2.58D-06 at cycle   8 NSaved=   8.
 NSaved= 8 IEnMin= 8 EnMin= -191.790069341765     IErMin= 8 ErrMin= 2.58D-06
 ErrMax= 2.58D-06  0.00D+00 EMaxC= 1.00D-01 BMatC= 1.17D-10 BMatP= 1.97D-09
 IDIUse=1 WtCom= 1.00D+00 WtEn= 0.00D+00
 Coeff-Com: -0.920D-03 0.458D-02 0.975D-02-0.498D-02-0.480D-01-0.576D-01
 Coeff-Com:  0.129D-01 0.108D+01
 Coeff:     -0.920D-03 0.458D-02 0.975D-02-0.498D-02-0.480D-01-0.576D-01
 Coeff:      0.129D-01 0.108D+01
 Gap=     0.345 Goal=   None    Shift=    0.000
 RMSDP=1.10D-06 MaxDP=8.96D-06 DE=-1.13D-08 OVMax= 3.95D-05

 Cycle   9  Pass 1  IDiag  1:
 E= -191.790069342635     Delta-E=       -0.000000000870 Rises=F Damp=F
 DIIS: error= 6.63D-07 at cycle   9 NSaved=   9.
 NSaved= 9 IEnMin= 9 EnMin= -191.790069342635     IErMin= 9 ErrMin= 6.63D-07
 ErrMax= 6.63D-07  0.00D+00 EMaxC= 1.00D-01 BMatC= 2.92D-11 BMatP= 1.17D-10
 IDIUse=1 WtCom= 1.00D+00 WtEn= 0.00D+00
 Coeff-Com:  0.172D-03-0.242D-02-0.129D-02 0.204D-01 0.351D-01-0.742D-01
 Coeff-Com: -0.195D+00 0.353D+00 0.864D+00
 Coeff:      0.172D-03-0.242D-02-0.129D-02 0.204D-01 0.351D-01-0.742D-01
 Coeff:     -0.195D+00 0.353D+00 0.864D+00
 Gap=     0.345 Goal=   None    Shift=    0.000
 RMSDP=3.23D-07 MaxDP=2.33D-06 DE=-8.70D-10 OVMax= 1.12D-05

 Cycle  10  Pass 1  IDiag  1:
 E= -191.790069342731     Delta-E=       -0.000000000096 Rises=F Damp=F
 DIIS: error= 1.48D-07 at cycle  10 NSaved=  10.
 NSaved=10 IEnMin=10 EnMin= -191.790069342731     IErMin=10 ErrMin= 1.48D-07
 ErrMax= 1.48D-07  0.00D+00 EMaxC= 1.00D-01 BMatC= 8.43D-13 BMatP= 2.92D-11
 IDIUse=1 WtCom= 1.00D+00 WtEn= 0.00D+00
 Coeff-Com:  0.472D-04-0.959D-04-0.592D-03-0.236D-02 0.112D-02 0.124D-01
 Coeff-Com:  0.153D-01-0.111D+00-0.986D-01 0.118D+01
 Coeff:      0.472D-04-0.959D-04-0.592D-03-0.236D-02 0.112D-02 0.124D-01
 Coeff:      0.153D-01-0.111D+00-0.986D-01 0.118D+01
 Gap=     0.345 Goal=   None    Shift=    0.000
 RMSDP=8.79D-08 MaxDP=6.27D-07 DE=-9.57D-11 OVMax= 2.36D-06

 Cycle  11  Pass 1  IDiag  1:
 E= -191.790069342736     Delta-E=       -0.000000000006 Rises=F Damp=F
 DIIS: error= 2.29D-08 at cycle  11 NSaved=  11.
 NSaved=11 IEnMin=11 EnMin= -191.790069342736     IErMin=11 ErrMin= 2.29D-08
 ErrMax= 2.29D-08  0.00D+00 EMaxC= 1.00D-01 BMatC= 3.19D-14 BMatP= 8.43D-13
 IDIUse=1 WtCom= 1.00D+00 WtEn= 0.00D+00
 Coeff-Com: -0.110D-04 0.104D-03 0.104D-03-0.589D-03-0.166D-02 0.256D-02
 Coeff-Com:  0.570D-02-0.330D-02-0.345D-01-0.981D-01 0.113D+01
 Coeff:     -0.110D-04 0.104D-03 0.104D-03-0.589D-03-0.166D-02 0.256D-02
 Coeff:      0.570D-02-0.330D-02-0.345D-01-0.981D-01 0.113D+01
 Gap=     0.345 Goal=   None    Shift=    0.000
 RMSDP=2.46D-08 MaxDP=2.28D-07 DE=-5.51D-12 OVMax= 3.38D-07

 Cycle  12  Pass 1  IDiag  1:
 E= -191.790069342738     Delta-E=       -0.000000000001 Rises=F Damp=F
 DIIS: error= 4.26D-09 at cycle  12 NSaved=  12.
 NSaved=12 IEnMin=12 EnMin= -191.790069342738     IErMin=12 ErrMin= 4.26D-09
 ErrMax= 4.26D-09  0.00D+00 EMaxC= 1.00D-01 BMatC= 1.22D-15 BMatP= 3.19D-14
 IDIUse=1 WtCom= 1.00D+00 WtEn= 0.00D+00
 Coeff-Com:  0.320D-06-0.148D-04 0.267D-05 0.175D-03 0.276D-03-0.793D-03
 Coeff-Com: -0.192D-02 0.515D-02 0.929D-02-0.228D-01-0.237D+00 0.125D+01
 Coeff:      0.320D-06-0.148D-04 0.267D-05 0.175D-03 0.276D-03-0.793D-03
 Coeff:     -0.192D-02 0.515D-02 0.929D-02-0.228D-01-0.237D+00 0.125D+01
 Gap=     0.345 Goal=   None    Shift=    0.000
 RMSDP=5.49D-09 MaxDP=4.92D-08 DE=-1.25D-12 OVMax= 5.21D-08

 SCF Done:  E(RwB97XD) =  -191.790069343     A.U. after   12 cycles
            NFock= 12  Conv=0.55D-08     -V/T= 2.0058
 KE= 1.906868638547D+02 PE=-6.548136954289D+02 EE= 1.686730373391D+02
 Leave Link  502 at Wed May 12 11:58:27 2021, MaxMem=  2147483648 cpu:         8.1
 (Enter /opt/cluster/programs/g09_d.01/g09/l701.exe)
 Compute integral first derivatives.
 ... and contract with generalized density number  0.
 R6Disp: Adding Grimme-D2 dispersion energy 1st derivatives to the gradient.
 Leave Link  701 at Wed May 12 11:58:27 2021, MaxMem=  2147483648 cpu:         0.6
 (Enter /opt/cluster/programs/g09_d.01/g09/l702.exe)
 L702 exits ... SP integral derivatives will be done elsewhere.
 Leave Link  702 at Wed May 12 11:58:27 2021, MaxMem=  2147483648 cpu:         0.2
 (Enter /opt/cluster/programs/g09_d.01/g09/l703.exe)
 Compute integral first derivatives, UseDBF=F ICtDFT=           0.
 Integral derivatives from FoFJK, PRISM(SPDF).
 Calling FoFJK, ICntrl=      2127 FMM=F ISym2X=0 I1Cent= 0 IOpClX= 0 NMat=1 NMatS=1 NMatT=0.
 FoFJK:  IHMeth= 1 ICntrl=    2127 DoSepK=T KAlg= 0 I1Cent=   0 FoldK=F
 IRaf=         1 NMat=   1 IRICut=       1 DoRegI=T DoRafI=F ISym2E= 0.
 FoFCou: FMM=F IPFlag=           0 FMFlag=      100000 FMFlg1=         800
         NFxFlg=           0 DoJE=F BraDBF=F KetDBF=F FulRan=T
         wScrn=  0.000000 ICntrl=    2527 IOpCl=  0 I1Cent=           0 NGrid=           0
         NMat0=    1 NMatS0=      1 NMatT0=    0 NMatD0=    1 NMtDS0=    0 NMtDT0=    0
 Symmetry not used in FoFCou.
 Leave Link  703 at Wed May 12 11:58:28 2021, MaxMem=  2147483648 cpu:         2.5
 (Enter /opt/cluster/programs/g09_d.01/g09/l716.exe)
 Dipole        =-1.01267384D+00 7.80429405D-01 2.45349027D-01
 ***** Axes restored to original set *****
 -------------------------------------------------------------------
 Center     Atomic                   Forces (Hartrees/Bohr)
 Number     Number              X              Y              Z
 -------------------------------------------------------------------
      1        6          -0.000204654    0.002172542   -0.003972323
      2        6           0.001852828   -0.002435261    0.007600735
      3        6          -0.003021000   -0.000623289   -0.007452216
      4        8           0.001364521    0.001114530    0.004131302
      5        1          -0.000095393   -0.000273255   -0.000238262
      6        1           0.000071217    0.000034790    0.000034451
      7        1           0.000005815   -0.000007316   -0.000008176
      8        1           0.000026665    0.000017259   -0.000095512
 -------------------------------------------------------------------
 Cartesian Forces:  Max     0.007600735 RMS     0.002685271
 Leave Link  716 at Wed May 12 11:58:28 2021, MaxMem=  2147483648 cpu:         0.2
 (Enter /opt/cluster/programs/g09_d.01/g09/l103.exe)

 GradGradGradGradGradGradGradGradGradGradGradGradGradGradGradGradGradGrad
 Berny optimization.
 Using GEDIIS/GDIIS optimizer.
 FormGI is forming the generalized inverse of G from B-inverse, IUseBI=4.
 Internal  Forces:  Max     0.005416752 RMS     0.001453902
 Search for a local minimum.
 Step number   2 out of a maximum of   34
 All quantities printed in internal units (Hartrees-Bohrs-Radians)
 RMS Force = .38298D-03 SwitMx=.10000D-02 MixMth= 2
 Mixed Optimization -- En-DIIS/RFO-DIIS
 Update second derivatives using D2CorX and points    1    2
 DE= -1.21D-04 DEPred=-1.27D-04 R= 9.56D-01
 TightC=F SS=  1.41D+00  RLast= 3.70D-02 DXNew= 5.0454D-01 1.1097D-01
 Trust test= 9.56D-01 RLast= 3.70D-02 DXMaxT set to 3.00D-01
 ITU=  1  0
 Use linear search instead of GDIIS.
     Eigenvalues ---    0.01173   0.01782   0.02821   0.02822   0.15904
     Eigenvalues ---    0.15982   0.16000   0.16070   0.20843   0.22060
     Eigenvalues ---    0.33188   0.34786   0.35166   0.35278   0.36147
     Eigenvalues ---    0.61291   0.790861000.000001000.000001000.00000
     Eigenvalues --- 1000.000001000.000001000.000001000.00000
 RFO step:  Lambda=-2.78040479D-05 EMin= 1.17300723D-02
 Quartic linear search produced a step of -0.04409.
 Iteration  1 RMS(Cart)=  0.00788754 RMS(Int)=  0.00011222
 Iteration  2 RMS(Cart)=  0.00010024 RMS(Int)=  0.00004938
 Iteration  3 RMS(Cart)=  0.00000000 RMS(Int)=  0.00004938
 Iteration  1 RMS(Cart)=  0.00000065 RMS(Int)=  0.00000057
 ITry= 1 IFail=0 DXMaxC= 2.36D-02 DCOld= 1.00D+10 DXMaxT= 3.00D-01 DXLimC= 3.00D+00 Rises=F
 Variable       Old X    -DE/DX   Delta X   Delta X   Delta X     New X
                                 (Linear)    (Quad)   (Total)
    R1        2.52954   0.00102   0.00050  -0.00004   0.00046   2.53000
    R2        2.04958   0.00006   0.00008  -0.00013  -0.00005   2.04954
    R3        2.05303  -0.00001   0.00004  -0.00014  -0.00011   2.05292
    R4        2.78744   0.00108   0.00016   0.00241   0.00257   2.79001
    R5        2.05613   0.00001   0.00011  -0.00035  -0.00024   2.05589
    R6        2.33895  -0.00074   0.00050  -0.00260  -0.00209   2.33686
    R7        2.08083   0.00017   0.00024  -0.00037  -0.00012   2.08071
    A1        2.12343   0.00008   0.00014   0.00001   0.00015   2.12358
    A2        2.11015  -0.00004   0.00006  -0.00049  -0.00042   2.10973
    A3        2.04960  -0.00004  -0.00020   0.00047   0.00027   2.04987
    A4        2.13549  -0.00035   0.00031  -0.00264  -0.00235   2.13314
    A5        2.11270   0.00042  -0.00014   0.00167   0.00151   2.11421
    A6        2.02828   0.00017  -0.00020   0.00214   0.00193   2.03021
    A7        2.17111  -0.00006   0.00029  -0.00164  -0.00149   2.16962
    A8        2.02462   0.00002  -0.00028   0.00048   0.00007   2.02469
    A9        2.08708   0.00014  -0.00004   0.00039   0.00021   2.08730
    D1        3.07539   0.00116  -0.00016   0.00483   0.00467   3.08006
    D2        0.06281  -0.00120   0.00019  -0.00653  -0.00634   0.05647
    D3       -0.07115   0.00119  -0.00010   0.00558   0.00548  -0.06568
    D4       -3.08373  -0.00118   0.00024  -0.00577  -0.00553  -3.08926
    D5        0.69815  -0.00542   0.00000   0.00000   0.00000   0.69814
    D6       -2.47294  -0.00146  -0.00066  -0.03069  -0.03135  -2.50429
    D7       -2.56662  -0.00314  -0.00033   0.01083   0.01050  -2.55612
    D8        0.54548   0.00082  -0.00099  -0.01987  -0.02086   0.52463
         Item               Value     Threshold  Converged?
 Maximum Force            0.001085     0.000450     NO 
 RMS     Force            0.000383     0.000300     NO 
 Maximum Displacement     0.023583     0.001800     NO 
 RMS     Displacement     0.007889     0.001200     NO 
 Predicted change in Energy=-1.421411D-05
 Lowest energy point so far.  Saving SCF results.
 GradGradGradGradGradGradGradGradGradGradGradGradGradGradGradGradGradGrad

 Leave Link  103 at Wed May 12 11:58:28 2021, MaxMem=  2147483648 cpu:         0.1
 (Enter /opt/cluster/programs/g09_d.01/g09/l202.exe)
                          Input orientation:                          
 ---------------------------------------------------------------------
 Center     Atomic      Atomic             Coordinates (Angstroms)
 Number     Number       Type             X           Y           Z
 ---------------------------------------------------------------------
      1          6           0        1.514156    0.447688    0.065933
      2          6           0        0.661320   -0.567346   -0.120638
      3          6           0       -0.784735   -0.440133    0.148661
      4          8           0       -1.459278    0.559723   -0.124263
      5          1           0       -1.277618   -1.330330    0.569322
      6          1           0        2.582123    0.328448   -0.080746
      7          1           0        1.156571    1.427953    0.368244
      8          1           0        1.018702   -1.562598   -0.376271
 ---------------------------------------------------------------------
                    Distance matrix (angstroms):
                    1          2          3          4          5
     1  C    0.000000
     2  C    1.338817   0.000000
     3  C    2.465759   1.476408   0.000000
     4  O    2.981616   2.401507   1.236612   0.000000
     5  H    3.347947   2.194919   1.101063   2.021475   0.000000
     6  H    1.084567   2.119792   3.461080   4.048247   4.251086
     7  H    1.086361   2.113172   2.703078   2.799831   3.684268
     8  H    2.117137   1.087933   2.188119   3.272330   2.494229
                    6          7          8
     6  H    0.000000
     7  H    1.855452   0.000000
     8  H    2.471371   3.084916   0.000000
 Stoichiometry    C3H4O
 Framework group  C1[X(C3H4O)]
 Deg. of freedom    18
 Full point group                 C1      NOp   1
 RotChk:  IX=0 Diff= 4.26D-03
 Largest Abelian subgroup         C1      NOp   1
 Largest concise Abelian subgroup C1      NOp   1
                         Standard orientation:                         
 ---------------------------------------------------------------------
 Center     Atomic      Atomic             Coordinates (Angstroms)
 Number     Number       Type             X           Y           Z
 ---------------------------------------------------------------------
      1          6           0       -1.508626   -0.449777    0.066141
      2          6           0       -0.657007    0.565719   -0.123451
      3          6           0        0.789317    0.440802    0.145475
      4          8           0        1.464838   -0.559005   -0.125201
      5          1           0        1.281414    1.332624    0.563607
      6          1           0       -2.576795   -0.332098   -0.080327
      7          1           0       -1.149809   -1.428864    0.370801
      8          1           0       -1.015616    1.559913   -0.381471
 ---------------------------------------------------------------------
 Rotational constants (GHZ):     23.8083449      5.8601814      4.8224036
 Leave Link  202 at Wed May 12 11:58:28 2021, MaxMem=  2147483648 cpu:         0.0
 (Enter /opt/cluster/programs/g09_d.01/g09/l301.exe)
 Standard basis: 6-31+G (6D, 7F)
 Ernie: Thresh=  0.10000D-02 Tol=  0.10000D-05 Strict=F.
 There are    60 symmetry adapted cartesian basis functions of A   symmetry.
 There are    60 symmetry adapted basis functions of A   symmetry.
    60 basis functions,   120 primitive gaussians,    60 cartesian basis functions
    15 alpha electrons       15 beta electrons
       nuclear repulsion energy       103.6817872082 Hartrees.
 IExCor= 4639 DFT=T Ex+Corr=wB97XD ExCW=0 ScaHFX=  1.000000
 ScaDFX=  1.000000  1.000000  1.000000  1.000000 ScalE2=  1.000000  1.000000
 IRadAn=      0 IRanWt=     -1 IRanGd=            0 ICorTp=0 IEmpDi=121
  HFx wShort=  0.000000 wLong=  0.200000 cFull=  0.222036 cShort=  0.000000 cLong=  0.777964
  DFx wShort=  0.000000 wLong=  0.200000 cFull=  0.000000 cShort=  0.000000 cLong=  1.000000
 NAtoms=    8 NActive=    8 NUniq=    8 SFac= 1.00D+00 NAtFMM=   60 NAOKFM=F Big=F
 Integral buffers will be    131072 words long.
 Raffenetti 2 integral format.
 Two-electron integral symmetry is turned on.
 R6Disp:  Grimme-D2 Dispersion energy=       -0.0017888745 Hartrees.
 Nuclear repulsion after empirical dispersion term =      103.6799983337 Hartrees.
 Leave Link  301 at Wed May 12 11:58:28 2021, MaxMem=  2147483648 cpu:         0.3
 (Enter /opt/cluster/programs/g09_d.01/g09/l302.exe)
 NPDir=0 NMtPBC=     1 NCelOv=     1 NCel=       1 NClECP=     1 NCelD=      1
         NCelK=      1 NCelE2=     1 NClLst=     1 CellRange=     0.0.
 One-electron integrals computed using PRISM.
 NBasis=    60 RedAO= T EigKep=  1.37D-04  NBF=    60
 NBsUse=    60 1.00D-06 EigRej= -1.00D+00 NBFU=    60
 Precomputing XC quadrature grid using
 IXCGrd= 4 IRadAn=           0 IRanWt=          -1 IRanGd=           0 AccXCQ= 0.00D+00.
 Generated NRdTot=       0 NPtTot=           0 NUsed=           0 NTot=          32
 NSgBfM=    60    60    60    60    60 MxSgAt=     8 MxSgA2=     8.
 Leave Link  302 at Wed May 12 11:58:28 2021, MaxMem=  2147483648 cpu:         0.8
 (Enter /opt/cluster/programs/g09_d.01/g09/l303.exe)
 DipDrv:  MaxL=1.
 Leave Link  303 at Wed May 12 11:58:28 2021, MaxMem=  2147483648 cpu:         0.2
 (Enter /opt/cluster/programs/g09_d.01/g09/l401.exe)
 Initial guess from the checkpoint file:  "/home/unibas/boittier/RDKit_G2/L.pdb/SCAN_1_2_3_4_S_17_20.0/11_SCAN_1_2_3_4_F/L.pdb.chk"
 B after Tr=     0.000000    0.000000    0.000000
         Rot=    1.000000    0.000155   -0.000167    0.000371 Ang=   0.05 deg.
 Guess basis will be translated and rotated to current coordinates.
 JPrj=2 DoOrth=T DoCkMO=T.
 Generating alternative initial guess.
 ExpMin= 4.38D-02 ExpMax= 5.48D+03 ExpMxC= 8.25D+02 IAcc=2 IRadAn=         4 AccDes= 0.00D+00
 Harris functional with IExCor= 4639 and IRadAn=       4 diagonalized for initial guess.
 HarFok:  IExCor= 4639 AccDes= 0.00D+00 IRadAn=         4 IDoV= 1 UseB2=F ITyADJ=14
 ICtDFT=  3500011 ScaDFX=  1.000000  1.000000  1.000000  1.000000
 FoFCou: FMM=F IPFlag=           0 FMFlag=      100000 FMFlg1=           0
         NFxFlg=           0 DoJE=T BraDBF=F KetDBF=T FulRan=T
         wScrn=  0.000000 ICntrl=     500 IOpCl=  0 I1Cent=   200000004 NGrid=           0
         NMat0=    1 NMatS0=      1 NMatT0=    0 NMatD0=    1 NMtDS0=    0 NMtDT0=    0
 Petite list used in FoFCou.
 Harris En= -183.742618596157    
 Leave Link  401 at Wed May 12 11:58:28 2021, MaxMem=  2147483648 cpu:         1.4
 (Enter /opt/cluster/programs/g09_d.01/g09/l502.exe)
 Closed shell SCF:
 Using DIIS extrapolation, IDIIS=  1040.
 Integral symmetry usage will be decided dynamically.
 Keep R1 ints in memory in canonical form, NReq=4262490.
 IVT=       30290 IEndB=       30290 NGot=  2147483648 MDV=  2144102629
 LenX=  2144102629 LenY=  2144098588
 Requested convergence on RMS density matrix=1.00D-08 within 128 cycles.
 Requested convergence on MAX density matrix=1.00D-06.
 Requested convergence on             energy=1.00D-06.
 No special actions if energy rises.
 FoFCou: FMM=F IPFlag=           0 FMFlag=           0 FMFlg1=           0
         NFxFlg=           0 DoJE=F BraDBF=F KetDBF=F FulRan=T
         wScrn=  0.000000 ICntrl=     600 IOpCl=  0 I1Cent=           0 NGrid=           0
         NMat0=    1 NMatS0=   1830 NMatT0=    0 NMatD0=    1 NMtDS0=    0 NMtDT0=    0
 Symmetry not used in FoFCou.

 Cycle   1  Pass 1  IDiag  1:
 E= -191.789988229648    
 DIIS: error= 4.40D-04 at cycle   1 NSaved=   1.
 NSaved= 1 IEnMin= 1 EnMin= -191.789988229648     IErMin= 1 ErrMin= 4.40D-04
 ErrMax= 4.40D-04  0.00D+00 EMaxC= 1.00D-01 BMatC= 2.39D-05 BMatP= 2.39D-05
 IDIUse=3 WtCom= 9.96D-01 WtEn= 4.40D-03
 Coeff-Com:  0.100D+01
 Coeff-En:   0.100D+01
 Coeff:      0.100D+01
 Gap=     0.612 Goal=   None    Shift=    0.000
 RMSDP=2.73D-04 MaxDP=3.46D-03              OVMax= 3.11D-03

 Cycle   2  Pass 1  IDiag  1:
 E= -191.790044616557     Delta-E=       -0.000056386908 Rises=F Damp=F
 DIIS: error= 2.11D-04 at cycle   2 NSaved=   2.
 NSaved= 2 IEnMin= 2 EnMin= -191.790044616557     IErMin= 2 ErrMin= 2.11D-04
 ErrMax= 2.11D-04  0.00D+00 EMaxC= 1.00D-01 BMatC= 1.77D-06 BMatP= 2.39D-05
 IDIUse=3 WtCom= 9.98D-01 WtEn= 2.11D-03
 Coeff-Com: -0.182D+00 0.118D+01
 Coeff-En:   0.000D+00 0.100D+01
 Coeff:     -0.182D+00 0.118D+01
 Gap=     0.345 Goal=   None    Shift=    0.000
 RMSDP=7.65D-05 MaxDP=6.77D-04 DE=-5.64D-05 OVMax= 2.05D-03

 Cycle   3  Pass 1  IDiag  1:
 E= -191.790050989263     Delta-E=       -0.000006372706 Rises=F Damp=F
 DIIS: error= 1.34D-04 at cycle   3 NSaved=   3.
 NSaved= 3 IEnMin= 3 EnMin= -191.790050989263     IErMin= 3 ErrMin= 1.34D-04
 ErrMax= 1.34D-04  0.00D+00 EMaxC= 1.00D-01 BMatC= 1.40D-06 BMatP= 1.77D-06
 IDIUse=3 WtCom= 9.99D-01 WtEn= 1.34D-03
 Coeff-Com: -0.139D+00 0.643D+00 0.496D+00
 Coeff-En:   0.000D+00 0.000D+00 0.100D+01
 Coeff:     -0.139D+00 0.643D+00 0.497D+00
 Gap=     0.345 Goal=   None    Shift=    0.000
 RMSDP=2.52D-05 MaxDP=2.77D-04 DE=-6.37D-06 OVMax= 5.41D-04

 Cycle   4  Pass 1  IDiag  1:
 E= -191.790052566471     Delta-E=       -0.000001577208 Rises=F Damp=F
 DIIS: error= 7.73D-05 at cycle   4 NSaved=   4.
 NSaved= 4 IEnMin= 4 EnMin= -191.790052566471     IErMin= 4 ErrMin= 7.73D-05
 ErrMax= 7.73D-05  0.00D+00 EMaxC= 1.00D-01 BMatC= 1.41D-07 BMatP= 1.40D-06
 IDIUse=1 WtCom= 1.00D+00 WtEn= 0.00D+00
 Coeff-Com:  0.335D-01-0.271D+00 0.112D+00 0.113D+01
 Coeff:      0.335D-01-0.271D+00 0.112D+00 0.113D+01
 Gap=     0.345 Goal=   None    Shift=    0.000
 RMSDP=2.69D-05 MaxDP=2.18D-04 DE=-1.58D-06 OVMax= 9.32D-04

 Cycle   5  Pass 1  IDiag  1:
 E= -191.790053324786     Delta-E=       -0.000000758315 Rises=F Damp=F
 DIIS: error= 3.39D-05 at cycle   5 NSaved=   5.
 NSaved= 5 IEnMin= 5 EnMin= -191.790053324786     IErMin= 5 ErrMin= 3.39D-05
 ErrMax= 3.39D-05  0.00D+00 EMaxC= 1.00D-01 BMatC= 1.48D-08 BMatP= 1.41D-07
 IDIUse=1 WtCom= 1.00D+00 WtEn= 0.00D+00
 Coeff-Com:  0.147D-01-0.573D-01-0.892D-01-0.122D+00 0.125D+01
 Coeff:      0.147D-01-0.573D-01-0.892D-01-0.122D+00 0.125D+01
 Gap=     0.345 Goal=   None    Shift=    0.000
 RMSDP=1.42D-05 MaxDP=1.14D-04 DE=-7.58D-07 OVMax= 4.99D-04

 Cycle   6  Pass 1  IDiag  1:
 E= -191.790053468678     Delta-E=       -0.000000143892 Rises=F Damp=F
 DIIS: error= 1.04D-05 at cycle   6 NSaved=   6.
 NSaved= 6 IEnMin= 6 EnMin= -191.790053468678     IErMin= 6 ErrMin= 1.04D-05
 ErrMax= 1.04D-05  0.00D+00 EMaxC= 1.00D-01 BMatC= 3.22D-09 BMatP= 1.48D-08
 IDIUse=1 WtCom= 1.00D+00 WtEn= 0.00D+00
 Coeff-Com: -0.202D-02 0.331D-01-0.450D-01-0.242D+00 0.374D+00 0.882D+00
 Coeff:     -0.202D-02 0.331D-01-0.450D-01-0.242D+00 0.374D+00 0.882D+00
 Gap=     0.345 Goal=   None    Shift=    0.000
 RMSDP=5.00D-06 MaxDP=4.11D-05 DE=-1.44D-07 OVMax= 1.73D-04

 Cycle   7  Pass 1  IDiag  1:
 E= -191.790053485803     Delta-E=       -0.000000017125 Rises=F Damp=F
 DIIS: error= 2.56D-06 at cycle   7 NSaved=   7.
 NSaved= 7 IEnMin= 7 EnMin= -191.790053485803     IErMin= 7 ErrMin= 2.56D-06
 ErrMax= 2.56D-06  0.00D+00 EMaxC= 1.00D-01 BMatC= 4.20D-10 BMatP= 3.22D-09
 IDIUse=1 WtCom= 1.00D+00 WtEn= 0.00D+00
 Coeff-Com: -0.230D-02 0.142D-01 0.436D-02-0.332D-01-0.104D+00 0.197D+00
 Coeff-Com:  0.924D+00
 Coeff:     -0.230D-02 0.142D-01 0.436D-02-0.332D-01-0.104D+00 0.197D+00
 Coeff:      0.924D+00
 Gap=     0.345 Goal=   None    Shift=    0.000
 RMSDP=1.55D-06 MaxDP=1.12D-05 DE=-1.71D-08 OVMax= 4.71D-05

 Cycle   8  Pass 1  IDiag  1:
 E= -191.790053487437     Delta-E=       -0.000000001634 Rises=F Damp=F
 DIIS: error= 1.28D-06 at cycle   8 NSaved=   8.
 NSaved= 8 IEnMin= 8 EnMin= -191.790053487437     IErMin= 8 ErrMin= 1.28D-06
 ErrMax= 1.28D-06  0.00D+00 EMaxC= 1.00D-01 BMatC= 9.27D-11 BMatP= 4.20D-10
 IDIUse=1 WtCom= 1.00D+00 WtEn= 0.00D+00
 Coeff-Com: -0.604D-03 0.468D-03 0.926D-02 0.269D-01-0.108D+00-0.691D-01
 Coeff-Com:  0.384D+00 0.757D+00
 Coeff:     -0.604D-03 0.468D-03 0.926D-02 0.269D-01-0.108D+00-0.691D-01
 Coeff:      0.384D+00 0.757D+00
 Gap=     0.345 Goal=   None    Shift=    0.000
 RMSDP=5.24D-07 MaxDP=4.29D-06 DE=-1.63D-09 OVMax= 1.40D-05

 Cycle   9  Pass 1  IDiag  1:
 E= -191.790053487647     Delta-E=       -0.000000000210 Rises=F Damp=F
 DIIS: error= 1.85D-07 at cycle   9 NSaved=   9.
 NSaved= 9 IEnMin= 9 EnMin= -191.790053487647     IErMin= 9 ErrMin= 1.85D-07
 ErrMax= 1.85D-07  0.00D+00 EMaxC= 1.00D-01 BMatC= 2.97D-12 BMatP= 9.27D-11
 IDIUse=1 WtCom= 1.00D+00 WtEn= 0.00D+00
 Coeff-Com:  0.142D-03-0.118D-02 0.383D-03 0.501D-02 0.506D-03-0.207D-01
 Coeff-Com: -0.511D-01 0.656D-01 0.100D+01
 Coeff:      0.142D-03-0.118D-02 0.383D-03 0.501D-02 0.506D-03-0.207D-01
 Coeff:     -0.511D-01 0.656D-01 0.100D+01
 Gap=     0.345 Goal=   None    Shift=    0.000
 RMSDP=1.32D-07 MaxDP=1.29D-06 DE=-2.10D-10 OVMax= 1.58D-06

 Cycle  10  Pass 1  IDiag  1:
 E= -191.790053487655     Delta-E=       -0.000000000008 Rises=F Damp=F
 DIIS: error= 6.19D-08 at cycle  10 NSaved=  10.
 NSaved=10 IEnMin=10 EnMin= -191.790053487655     IErMin=10 ErrMin= 6.19D-08
 ErrMax= 6.19D-08  0.00D+00 EMaxC= 1.00D-01 BMatC= 3.47D-13 BMatP= 2.97D-12
 IDIUse=1 WtCom= 1.00D+00 WtEn= 0.00D+00
 Coeff-Com:  0.913D-04-0.375D-03-0.639D-03-0.901D-03 0.925D-02 0.502D-03
 Coeff-Com: -0.493D-01-0.387D-01 0.281D+00 0.800D+00
 Coeff:      0.913D-04-0.375D-03-0.639D-03-0.901D-03 0.925D-02 0.502D-03
 Coeff:     -0.493D-01-0.387D-01 0.281D+00 0.800D+00
 Gap=     0.345 Goal=   None    Shift=    0.000
 RMSDP=3.57D-08 MaxDP=2.99D-07 DE=-8.19D-12 OVMax= 3.95D-07

 Cycle  11  Pass 1  IDiag  1:
 E= -191.790053487655     Delta-E=        0.000000000001 Rises=F Damp=F
 DIIS: error= 1.56D-08 at cycle  11 NSaved=  11.
 NSaved=11 IEnMin=10 EnMin= -191.790053487655     IErMin=11 ErrMin= 1.56D-08
 ErrMax= 1.56D-08  0.00D+00 EMaxC= 1.00D-01 BMatC= 1.74D-14 BMatP= 3.47D-13
 IDIUse=1 WtCom= 1.00D+00 WtEn= 0.00D+00
 Coeff-Com: -0.796D-05 0.765D-04-0.474D-04-0.382D-03 0.816D-04 0.197D-02
 Coeff-Com:  0.137D-02-0.209D-02-0.795D-01 0.301D-01 0.105D+01
 Coeff:     -0.796D-05 0.765D-04-0.474D-04-0.382D-03 0.816D-04 0.197D-02
 Coeff:      0.137D-02-0.209D-02-0.795D-01 0.301D-01 0.105D+01
 Gap=     0.345 Goal=   None    Shift=    0.000
 RMSDP=1.71D-08 MaxDP=2.22D-07 DE= 5.12D-13 OVMax= 1.12D-07

 Cycle  12  Pass 1  IDiag  1:
 E= -191.790053487655     Delta-E=        0.000000000000 Rises=F Damp=F
 DIIS: error= 4.34D-09 at cycle  12 NSaved=  12.
 NSaved=12 IEnMin=10 EnMin= -191.790053487655     IErMin=12 ErrMin= 4.34D-09
 ErrMax= 4.34D-09  0.00D+00 EMaxC= 1.00D-01 BMatC= 4.70D-16 BMatP= 1.74D-14
 IDIUse=1 WtCom= 1.00D+00 WtEn= 0.00D+00
 Coeff-Com: -0.141D-05-0.145D-05 0.251D-04 0.107D-03-0.332D-03-0.343D-03
 Coeff-Com:  0.127D-02 0.240D-02 0.310D-02-0.295D-01-0.203D+00 0.123D+01
 Coeff:     -0.141D-05-0.145D-05 0.251D-04 0.107D-03-0.332D-03-0.343D-03
 Coeff:      0.127D-02 0.240D-02 0.310D-02-0.295D-01-0.203D+00 0.123D+01
 Gap=     0.345 Goal=   None    Shift=    0.000
 RMSDP=4.29D-09 MaxDP=5.04D-08 DE=-3.41D-13 OVMax= 3.57D-08

 SCF Done:  E(RwB97XD) =  -191.790053488     A.U. after   12 cycles
            NFock= 12  Conv=0.43D-08     -V/T= 2.0058
 KE= 1.906886756430D+02 PE=-6.548486069297D+02 EE= 1.686898794653D+02
 Leave Link  502 at Wed May 12 11:58:29 2021, MaxMem=  2147483648 cpu:         8.1
 (Enter /opt/cluster/programs/g09_d.01/g09/l701.exe)
 Compute integral first derivatives.
 ... and contract with generalized density number  0.
 R6Disp: Adding Grimme-D2 dispersion energy 1st derivatives to the gradient.
 Leave Link  701 at Wed May 12 11:58:29 2021, MaxMem=  2147483648 cpu:         0.6
 (Enter /opt/cluster/programs/g09_d.01/g09/l702.exe)
 L702 exits ... SP integral derivatives will be done elsewhere.
 Leave Link  702 at Wed May 12 11:58:29 2021, MaxMem=  2147483648 cpu:         0.2
 (Enter /opt/cluster/programs/g09_d.01/g09/l703.exe)
 Compute integral first derivatives, UseDBF=F ICtDFT=           0.
 Integral derivatives from FoFJK, PRISM(SPDF).
 Calling FoFJK, ICntrl=      2127 FMM=F ISym2X=0 I1Cent= 0 IOpClX= 0 NMat=1 NMatS=1 NMatT=0.
 FoFJK:  IHMeth= 1 ICntrl=    2127 DoSepK=T KAlg= 0 I1Cent=   0 FoldK=F
 IRaf=         1 NMat=   1 IRICut=       1 DoRegI=T DoRafI=F ISym2E= 0.
 FoFCou: FMM=F IPFlag=           0 FMFlag=      100000 FMFlg1=         800
         NFxFlg=           0 DoJE=F BraDBF=F KetDBF=F FulRan=T
         wScrn=  0.000000 ICntrl=    2527 IOpCl=  0 I1Cent=           0 NGrid=           0
         NMat0=    1 NMatS0=      1 NMatT0=    0 NMatD0=    1 NMtDS0=    0 NMtDT0=    0
 Symmetry not used in FoFCou.
 Leave Link  703 at Wed May 12 11:58:30 2021, MaxMem=  2147483648 cpu:         2.5
 (Enter /opt/cluster/programs/g09_d.01/g09/l716.exe)
 Dipole        =-1.00719760D+00 7.80603028D-01 2.39945235D-01
 ***** Axes restored to original set *****
 -------------------------------------------------------------------
 Center     Atomic                   Forces (Hartrees/Bohr)
 Number     Number              X              Y              Z
 -------------------------------------------------------------------
      1        6          -0.000161474    0.001653056   -0.003838677
      2        6           0.001488345   -0.001222445    0.008226357
      3        6          -0.002078769   -0.003421522   -0.010464145
      4        8           0.000581528    0.002845786    0.004906152
      5        1           0.000115003    0.000125780    0.000979847
      6        1           0.000096098    0.000099040   -0.000069124
      7        1           0.000019193    0.000011027    0.000064001
      8        1          -0.000059923   -0.000090723    0.000195589
 -------------------------------------------------------------------
 Cartesian Forces:  Max     0.010464145 RMS     0.003214405
 Leave Link  716 at Wed May 12 11:58:32 2021, MaxMem=  2147483648 cpu:         0.2
 (Enter /opt/cluster/programs/g09_d.01/g09/l103.exe)

 GradGradGradGradGradGradGradGradGradGradGradGradGradGradGradGradGradGrad
 Berny optimization.
 Using GEDIIS/GDIIS optimizer.
 FormGI is forming the generalized inverse of G from B-inverse, IUseBI=4.
 Internal  Forces:  Max     0.006481044 RMS     0.001728410
 Search for a local minimum.
 Step number   3 out of a maximum of   34
 All quantities printed in internal units (Hartrees-Bohrs-Radians)
 RMS Force = .41054D-03 SwitMx=.10000D-02 MixMth= 2
 Mixed Optimization -- En-DIIS/RFO-DIIS
 Swapping is turned off.
 Update second derivatives using D2CorX and points    1    2    3
 DE=  1.59D-05 DEPred=-1.42D-05 R=-1.12D+00
 Trust test=-1.12D+00 RLast= 4.09D-02 DXMaxT set to 1.50D-01
 ITU= -1  1  0
     Eigenvalues ---    0.01534   0.02802   0.02822   0.04749   0.15497
     Eigenvalues ---    0.15950   0.16005   0.16081   0.17711   0.22068
     Eigenvalues ---    0.32424   0.34356   0.35119   0.35226   0.35776
     Eigenvalues ---    0.62114   0.686221000.000001000.000001000.00000
     Eigenvalues --- 1000.000001000.000001000.000001000.00000
 En-DIIS/RFO-DIIS IScMMF=        0 using points:     3    2
 RFO step:  Lambda=-1.37257093D-05.
 NNeg= 0 NP= 2 Switch=  2.50D-03 Rises=F DC= -1.59D-05 SmlDif=  1.00D-05
 RMS Error=  0.1374045481D-02 NUsed= 2 EDIIS=F
 DidBck=T Rises=F RFO-DIIS coefs:    0.32223    0.67777
 Iteration  1 RMS(Cart)=  0.00613487 RMS(Int)=  0.00006142
 Iteration  2 RMS(Cart)=  0.00005773 RMS(Int)=  0.00000631
 Iteration  3 RMS(Cart)=  0.00000000 RMS(Int)=  0.00000631
 Iteration  1 RMS(Cart)=  0.00000038 RMS(Int)=  0.00000033
 ITry= 1 IFail=0 DXMaxC= 1.99D-02 DCOld= 1.00D+10 DXMaxT= 1.50D-01 DXLimC= 3.00D+00 Rises=F
 Variable       Old X    -DE/DX   Delta X   Delta X   Delta X     New X
                                 (Linear)    (Quad)   (Total)
    R1        2.53000   0.00078  -0.00031   0.00120   0.00089   2.53088
    R2        2.04954   0.00009   0.00003   0.00011   0.00014   2.04967
    R3        2.05292   0.00003   0.00007  -0.00003   0.00004   2.05296
    R4        2.79001   0.00048  -0.00174   0.00262   0.00088   2.79089
    R5        2.05589   0.00002   0.00016  -0.00009   0.00007   2.05597
    R6        2.33686   0.00090   0.00142  -0.00097   0.00045   2.33730
    R7        2.08071   0.00022   0.00008   0.00030   0.00038   2.08109
    A1        2.12358   0.00012  -0.00010   0.00047   0.00036   2.12394
    A2        2.10973  -0.00004   0.00029  -0.00037  -0.00009   2.10964
    A3        2.04987  -0.00008  -0.00018  -0.00009  -0.00028   2.04959
    A4        2.13314   0.00017   0.00159  -0.00167  -0.00007   2.13306
    A5        2.11421   0.00025  -0.00102   0.00089  -0.00012   2.11409
    A6        2.03021  -0.00021  -0.00131   0.00091  -0.00039   2.02982
    A7        2.16962   0.00026   0.00101  -0.00046   0.00056   2.17019
    A8        2.02469   0.00000  -0.00004   0.00007   0.00004   2.02472
    A9        2.08730   0.00007  -0.00014   0.00051   0.00038   2.08768
    D1        3.08006   0.00115  -0.00317   0.00085  -0.00231   3.07774
    D2        0.05647  -0.00100   0.00429  -0.00061   0.00369   0.06016
[...]

 Cycle  11  Pass 1  IDiag  1:
 E= -191.790076387214     Delta-E=       -0.000000000001 Rises=F Damp=F
 DIIS: error= 1.36D-08 at cycle  11 NSaved=  11.
 NSaved=11 IEnMin=11 EnMin= -191.790076387214     IErMin=11 ErrMin= 1.36D-08
 ErrMax= 1.36D-08  0.00D+00 EMaxC= 1.00D-01 BMatC= 8.67D-15 BMatP= 3.10D-13
 IDIUse=1 WtCom= 1.00D+00 WtEn= 0.00D+00
 Coeff-Com: -0.921D-05 0.831D-04-0.113D-03-0.256D-03-0.130D-03 0.783D-03
 Coeff-Com:  0.368D-02-0.110D-02-0.447D-01-0.103D+00 0.114D+01
 Coeff:     -0.921D-05 0.831D-04-0.113D-03-0.256D-03-0.130D-03 0.783D-03
 Coeff:      0.368D-02-0.110D-02-0.447D-01-0.103D+00 0.114D+01
 Gap=     0.346 Goal=   None    Shift=    0.000
 RMSDP=1.42D-08 MaxDP=1.77D-07 DE=-5.12D-13 OVMax= 1.16D-07

 Cycle  12  Pass 1  IDiag  1:
 E= -191.790076387213     Delta-E=        0.000000000000 Rises=F Damp=F
 DIIS: error= 2.07D-09 at cycle  12 NSaved=  12.
 NSaved=12 IEnMin=11 EnMin= -191.790076387214     IErMin=12 ErrMin= 2.07D-09
 ErrMax= 2.07D-09  0.00D+00 EMaxC= 1.00D-01 BMatC= 3.28D-16 BMatP= 8.67D-15
 IDIUse=1 WtCom= 1.00D+00 WtEn= 0.00D+00
 Coeff-Com: -0.176D-05-0.128D-05 0.543D-04 0.604D-04-0.143D-03-0.499D-03
 Coeff-Com:  0.211D-03 0.304D-02 0.581D-02-0.149D-01-0.232D+00 0.124D+01
 Coeff:     -0.176D-05-0.128D-05 0.543D-04 0.604D-04-0.143D-03-0.499D-03
 Coeff:      0.211D-03 0.304D-02 0.581D-02-0.149D-01-0.232D+00 0.124D+01
 Gap=     0.346 Goal=   None    Shift=    0.000
 RMSDP=2.97D-09 MaxDP=3.52D-08 DE= 3.98D-13 OVMax= 2.75D-08

 SCF Done:  E(RwB97XD) =  -191.790076387     A.U. after   12 cycles
            NFock= 12  Conv=0.30D-08     -V/T= 2.0058
 KE= 1.906845467364D+02 PE=-6.547892278294D+02 EE= 1.686622485065D+02
 Leave Link  502 at Wed May 12 11:58:33 2021, MaxMem=  2147483648 cpu:         8.1
 (Enter /opt/cluster/programs/g09_d.01/g09/l701.exe)
 Compute integral first derivatives.
 ... and contract with generalized density number  0.
 R6Disp: Adding Grimme-D2 dispersion energy 1st derivatives to the gradient.
 Leave Link  701 at Wed May 12 11:58:33 2021, MaxMem=  2147483648 cpu:         0.6
 (Enter /opt/cluster/programs/g09_d.01/g09/l702.exe)
 L702 exits ... SP integral derivatives will be done elsewhere.
 Leave Link  702 at Wed May 12 11:58:33 2021, MaxMem=  2147483648 cpu:         0.2
 (Enter /opt/cluster/programs/g09_d.01/g09/l703.exe)
 Compute integral first derivatives, UseDBF=F ICtDFT=           0.
 Integral derivatives from FoFJK, PRISM(SPDF).
 Calling FoFJK, ICntrl=      2127 FMM=F ISym2X=0 I1Cent= 0 IOpClX= 0 NMat=1 NMatS=1 NMatT=0.
 FoFJK:  IHMeth= 1 ICntrl=    2127 DoSepK=T KAlg= 0 I1Cent=   0 FoldK=F
 IRaf=         1 NMat=   1 IRICut=       1 DoRegI=T DoRafI=F ISym2E= 0.
 FoFCou: FMM=F IPFlag=           0 FMFlag=      100000 FMFlg1=         800
         NFxFlg=           0 DoJE=F BraDBF=F KetDBF=F FulRan=T
         wScrn=  0.000000 ICntrl=    2527 IOpCl=  0 I1Cent=           0 NGrid=           0
         NMat0=    1 NMatS0=      1 NMatT0=    0 NMatD0=    1 NMtDS0=    0 NMtDT0=    0
 Symmetry not used in FoFCou.
 Leave Link  703 at Wed May 12 11:58:33 2021, MaxMem=  2147483648 cpu:         2.5
 (Enter /opt/cluster/programs/g09_d.01/g09/l716.exe)
 Dipole        =-1.00797378D+00 7.80324429D-01 2.44266041D-01
 ***** Axes restored to original set *****
 -------------------------------------------------------------------
 Center     Atomic                   Forces (Hartrees/Bohr)
 Number     Number              X              Y              Z
 -------------------------------------------------------------------
      1        6          -0.000594831    0.001363208   -0.003984317
      2        6           0.001446936   -0.001255379    0.007916729
      3        6          -0.001660646   -0.002115989   -0.008175037
      4        8           0.000762862    0.002105130    0.004197562
      5        1           0.000015649   -0.000106517    0.000033534
      6        1           0.000033428    0.000010319    0.000002887
      7        1           0.000000715    0.000017134   -0.000019254
      8        1          -0.000004112   -0.000017907    0.000027896
 -------------------------------------------------------------------
 Cartesian Forces:  Max     0.008175037 RMS     0.002747319
 Leave Link  716 at Wed May 12 11:58:33 2021, MaxMem=  2147483648 cpu:         0.2
 (Enter /opt/cluster/programs/g09_d.01/g09/l103.exe)

 GradGradGradGradGradGradGradGradGradGradGradGradGradGradGradGradGradGrad
 Berny optimization.
 Using GEDIIS/GDIIS optimizer.
 FormGI is forming the generalized inverse of G from B-inverse, IUseBI=4.
 Internal  Forces:  Max     0.005669064 RMS     0.001473128
 Search for a local minimum.
 Step number   4 out of a maximum of   34
 All quantities printed in internal units (Hartrees-Bohrs-Radians)
 RMS Force = .94171D-04 SwitMx=.10000D-02 MixMth= 2
 Mixed Optimization -- En-DIIS/RFO-DIIS
 Swapping is turned off.
 Update second derivatives using D2CorX and points    1    2    3    4
 DE= -2.29D-05 DEPred=-2.26D-05 R= 1.01D+00
 TightC=F SS=  1.41D+00  RLast= 3.06D-02 DXNew= 2.5227D-01 9.1886D-02
 Trust test= 1.01D+00 RLast= 3.06D-02 DXMaxT set to 1.50D-01
 ITU=  1 -1  1  0
     Eigenvalues ---    0.01642   0.02802   0.02827   0.04846   0.15694
     Eigenvalues ---    0.15924   0.16043   0.16066   0.18902   0.22038
     Eigenvalues ---    0.32997   0.33450   0.34998   0.35184   0.35363
     Eigenvalues ---    0.60783   0.817741000.000001000.000001000.00000
     Eigenvalues --- 1000.000001000.000001000.000001000.00000
 En-DIIS/RFO-DIIS IScMMF=        0 using points:     4    3    2
 RFO step:  Lambda=-1.90955838D-06.
 NNeg= 0 NP= 3 Switch=  2.50D-03 Rises=F DC= -1.59D-05 SmlDif=  1.00D-05
 RMS Error=  0.1404110746D-03 NUsed= 3 EDIIS=F
 DidBck=F Rises=F RFO-DIIS coefs:    1.03470   -0.01229   -0.02241
 Iteration  1 RMS(Cart)=  0.00041964 RMS(Int)=  0.00000085
 Iteration  2 RMS(Cart)=  0.00000015 RMS(Int)=  0.00000084
 Iteration  1 RMS(Cart)=  0.00000046 RMS(Int)=  0.00000040
 ITry= 1 IFail=0 DXMaxC= 9.20D-04 DCOld= 1.00D+10 DXMaxT= 1.50D-01 DXLimC= 3.00D+00 Rises=F
 Variable       Old X    -DE/DX   Delta X   Delta X   Delta X     New X
                                 (Linear)    (Quad)   (Total)
    R1        2.53088   0.00013   0.00004   0.00015   0.00019   2.53107
    R2        2.04967   0.00003   0.00000   0.00007   0.00008   2.04975
    R3        2.05296   0.00001   0.00000   0.00004   0.00004   2.05300
    R4        2.79089   0.00013   0.00009   0.00028   0.00036   2.79125
    R5        2.05597   0.00001   0.00000   0.00002   0.00001   2.05598
    R6        2.33730   0.00037  -0.00003   0.00044   0.00041   2.33771
    R7        2.08109   0.00010   0.00001   0.00026   0.00027   2.08137
    A1        2.12394   0.00003   0.00002   0.00016   0.00018   2.12412
    A2        2.10964  -0.00001  -0.00001  -0.00007  -0.00009   2.10955
    A3        2.04959  -0.00002   0.00000  -0.00009  -0.00009   2.04950
    A4        2.13306   0.00000  -0.00006  -0.00029  -0.00034   2.13272
    A5        2.11409   0.00028   0.00003   0.00014   0.00016   2.11425
    A6        2.02982  -0.00005   0.00003   0.00006   0.00009   2.02991
    A7        2.17019   0.00008  -0.00001   0.00015   0.00014   2.17032
    A8        2.02472  -0.00005   0.00000  -0.00056  -0.00056   2.02417
    A9        2.08768   0.00011   0.00002   0.00040   0.00042   2.08809
    D1        3.07774   0.00113   0.00002  -0.00043  -0.00040   3.07734
    D2        0.06016  -0.00113  -0.00001   0.00046   0.00045   0.06061
    D3       -0.06794   0.00112   0.00004  -0.00086  -0.00082  -0.06876
    D4       -3.08552  -0.00114   0.00001   0.00003   0.00003  -3.08549
    D5        0.69814  -0.00567   0.00000   0.00000   0.00000   0.69814
    D6       -2.48084  -0.00110   0.00011  -0.00026  -0.00015  -2.48099
    D7       -2.56184  -0.00349   0.00004  -0.00085  -0.00081  -2.56264
    D8        0.54236   0.00108   0.00015  -0.00110  -0.00096   0.54141
         Item               Value     Threshold  Converged?
 Maximum Force            0.000370     0.000450     YES
 RMS     Force            0.000094     0.000300     YES
 Maximum Displacement     0.000920     0.001800     YES
 RMS     Displacement     0.000419     0.001200     YES
 Predicted change in Energy=-2.124568D-07
 Optimization completed.
    -- Stationary point found.
                           ----------------------------
                           !   Optimized Parameters   !
                           ! (Angstroms and Degrees)  !
 --------------------------                            --------------------------
 ! Name  Definition              Value          Derivative Info.                !
 --------------------------------------------------------------------------------
 ! R1    R(1,2)                  1.3393         -DE/DX =    0.0001              !
 ! R2    R(1,6)                  1.0846         -DE/DX =    0.0                 !
 ! R3    R(1,7)                  1.0864         -DE/DX =    0.0                 !
 ! R4    R(2,3)                  1.4769         -DE/DX =    0.0001              !
 ! R5    R(2,8)                  1.088          -DE/DX =    0.0                 !
 ! R6    R(3,4)                  1.2368         -DE/DX =    0.0004              !
 ! R7    R(3,5)                  1.1013         -DE/DX =    0.0001              !
 ! A1    A(2,1,6)              121.6929         -DE/DX =    0.0                 !
 ! A2    A(2,1,7)              120.8735         -DE/DX =    0.0                 !
 ! A3    A(6,1,7)              117.4331         -DE/DX =    0.0                 !
 ! A4    A(1,2,3)              122.2154         -DE/DX =    0.0                 !
 ! A5    A(1,2,8)              121.1283         -DE/DX =    0.0003              !
 ! A6    A(3,2,8)              116.3002         -DE/DX =    0.0                 !
 ! A7    A(2,3,4)              124.3425         -DE/DX =    0.0001              !
 ! A8    A(2,3,5)              116.0082         -DE/DX =    0.0                 !
 ! A9    A(4,3,5)              119.6152         -DE/DX =    0.0001              !
 ! D1    D(6,1,2,3)            176.3416         -DE/DX =    0.0011              !
 ! D2    D(6,1,2,8)              3.447          -DE/DX =   -0.0011              !
 ! D3    D(7,1,2,3)             -3.8929         -DE/DX =    0.0011              !
 ! D4    D(7,1,2,8)           -176.7875         -DE/DX =   -0.0011              !
 ! D5    D(1,2,3,4)             40.0007         -DE/DX =   -0.0057              !
 ! D6    D(1,2,3,5)           -142.1417         -DE/DX =   -0.0011              !
 ! D7    D(8,2,3,4)           -146.7824         -DE/DX =   -0.0035              !
 ! D8    D(8,2,3,5)             31.0751         -DE/DX =    0.0011              !
 --------------------------------------------------------------------------------
 Lowest energy point so far.  Saving SCF results.
 GradGradGradGradGradGradGradGradGradGradGradGradGradGradGradGradGradGrad

 Largest change from initial coordinates is atom    7       0.010 Angstoms.
 Leave Link  103 at Wed May 12 11:58:33 2021, MaxMem=  2147483648 cpu:         0.1
 (Enter /opt/cluster/programs/g09_d.01/g09/l202.exe)
                          Input orientation:                          
 ---------------------------------------------------------------------
 Center     Atomic      Atomic             Coordinates (Angstroms)
 Number     Number       Type             X           Y           Z
 ---------------------------------------------------------------------
      1          6           0        1.513891    0.447094    0.066615
      2          6           0        0.661104   -0.567515   -0.125768
      3          6           0       -0.785745   -0.441548    0.142398
      4          8           0       -1.460683    0.559406   -0.126568
      5          1           0       -1.274607   -1.326113    0.579830
      6          1           0        2.582397    0.328442   -0.077122
      7          1           0        1.155519    1.426465    0.370957
      8          1           0        1.019366   -1.562826   -0.380100
 ---------------------------------------------------------------------
                    Distance matrix (angstroms):
                    1          2          3          4          5
     1  C    0.000000
     2  C    1.339286   0.000000
     3  C    2.466527   1.476873   0.000000
     4  O    2.982956   2.402485   1.236848   0.000000
     5  H    3.344156   2.195523   1.101267   2.022079   0.000000
     6  H    1.084640   2.120488   3.462002   4.049974   4.248014
     7  H    1.086380   2.113560   2.703741   2.800684   3.677747
     8  H    2.117519   1.087971   2.188308   3.273956   2.497961
                    6          7          8
     6  H    0.000000
     7  H    1.855374   0.000000
     8  H    2.472197   3.085204   0.000000
 Stoichiometry    C3H4O
 Framework group  C1[X(C3H4O)]
 Deg. of freedom    18
 Full point group                 C1      NOp   1
 RotChk:  IX=0 Diff= 8.29D-16
 Largest Abelian subgroup         C1      NOp   1
 Largest concise Abelian subgroup C1      NOp   1
                         Standard orientation:                         
 ---------------------------------------------------------------------
 Center     Atomic      Atomic             Coordinates (Angstroms)
 Number     Number       Type             X           Y           Z
 ---------------------------------------------------------------------
      1          6           0       -1.508825   -0.450312    0.067007
      2          6           0       -0.657476    0.565439   -0.125718
      3          6           0        0.789462    0.441793    0.143051
      4          8           0        1.465983   -0.558330   -0.125029
      5          1           0        1.276852    1.327363    0.580093
      6          1           0       -2.577454   -0.333339   -0.077191
      7          1           0       -1.149108   -1.428954    0.372106
      8          1           0       -1.017123    1.560054   -0.380817
 ---------------------------------------------------------------------
 Rotational constants (GHZ):     23.8007963      5.8547149      4.8200553
 Leave Link  202 at Wed May 12 11:58:33 2021, MaxMem=  2147483648 cpu:         0.0
 (Enter /opt/cluster/programs/g09_d.01/g09/l601.exe)
 Copying SCF densities to generalized density rwf, IOpCl= 0 IROHF=0.

 **********************************************************************

            Population analysis using the SCF density.

 **********************************************************************

 Orbital symmetries:
       Occupied  (A) (A) (A) (A) (A) (A) (A) (A) (A) (A) (A) (A)
                 (A) (A) (A)
       Virtual   (A) (A) (A) (A) (A) (A) (A) (A) (A) (A) (A) (A)
                 (A) (A) (A) (A) (A) (A) (A) (A) (A) (A) (A) (A)
                 (A) (A) (A) (A) (A) (A) (A) (A) (A) (A) (A) (A)
                 (A) (A) (A) (A) (A) (A) (A) (A) (A)
 The electronic state is 1-A.
 Alpha  occ. eigenvalues --  -19.28898 -10.40626 -10.33099 -10.32961  -1.17159
 Alpha  occ. eigenvalues --   -0.91100  -0.76947  -0.65392  -0.61427  -0.54637
 Alpha  occ. eigenvalues --   -0.53374  -0.48717  -0.47702  -0.37802  -0.35224
 Alpha virt. eigenvalues --   -0.00667   0.06703   0.08017   0.08804   0.10036
 Alpha virt. eigenvalues --    0.11423   0.12564   0.13406   0.14856   0.16235
 Alpha virt. eigenvalues --    0.17575   0.17687   0.20105   0.22356   0.26526
 Alpha virt. eigenvalues --    0.28195   0.30431   0.31838   0.32697   0.35398
 Alpha virt. eigenvalues --    0.37253   0.37849   0.42408   0.46182   0.52512
 Alpha virt. eigenvalues --    0.70906   0.72677   0.76677   0.78425   0.80727
 Alpha virt. eigenvalues --    0.83642   0.89134   0.96148   1.02113   1.04771
 Alpha virt. eigenvalues --    1.11114   1.13312   1.17916   1.23514   1.27622
 Alpha virt. eigenvalues --    1.31653   1.36962   1.38682   1.43314   1.89399
          Condensed to atoms (all electrons):
               1          2          3          4          5          6
     1  C    5.300161   0.271033   0.024951   0.045016   0.032658   0.365966
     2  C    0.271033   5.736242   0.136481  -0.198100  -0.134920  -0.026867
     3  C    0.024951   0.136481   5.085426   0.314772   0.361038   0.009126
     4  O    0.045016  -0.198100   0.314772   8.317345  -0.065481   0.000393
     5  H    0.032658  -0.134920   0.361038  -0.065481   0.625933  -0.000090
     6  H    0.365966  -0.026867   0.009126   0.000393  -0.000090   0.472510
     7  H    0.397856  -0.058883   0.004572   0.000716   0.000142  -0.022237
     8  H    0.018158   0.307451  -0.014531   0.005160   0.001702  -0.003503
               7          8
     1  C    0.397856   0.018158
     2  C   -0.058883   0.307451
     3  C    0.004572  -0.014531
     4  O    0.000716   0.005160
     5  H    0.000142   0.001702
     6  H   -0.022237  -0.003503
     7  H    0.447734   0.002503
     8  H    0.002503   0.464493
 Mulliken charges:
               1
     1  C   -0.455799
     2  C   -0.032434
     3  C    0.078166
     4  O   -0.419821
     5  H    0.179018
     6  H    0.204703
     7  H    0.227599
     8  H    0.218567
 Sum of Mulliken charges =   0.00000
 Mulliken charges with hydrogens summed into heavy atoms:
               1
     1  C   -0.023496
     2  C    0.186133
     3  C    0.257184
     4  O   -0.419821
 Electronic spatial extent (au):  <R**2>=            275.4796
 Charge=              0.0000 electrons
 Dipole moment (field-independent basis, Debye):
    X=             -2.5620    Y=              1.9834    Z=              0.6209  Tot=              3.2990
 Quadrupole moment (field-independent basis, Debye-Ang):
   XX=            -25.2503   YY=            -22.5478   ZZ=            -25.1339
   XY=              3.5467   XZ=              1.0410   YZ=             -0.9568
 Traceless Quadrupole moment (field-independent basis, Debye-Ang):
   XX=             -0.9397   YY=              1.7629   ZZ=             -0.8232
   XY=              3.5467   XZ=              1.0410   YZ=             -0.9568
 Octapole moment (field-independent basis, Debye-Ang**2):
  XXX=             -9.6735  YYY=              0.3022  ZZZ=             -0.1008  XYY=             -0.7831
  XXY=              3.2472  XXZ=             -0.0384  XZZ=              3.6765  YZZ=             -0.4273
  YYZ=              0.5439  XYZ=              1.0246
 Hexadecapole moment (field-independent basis, Debye-Ang**3):
 XXXX=           -241.0171 YYYY=            -78.4243 ZZZZ=            -31.9050 XXXY=              7.1960
 XXXZ=              2.8502 YYYX=             -0.1823 YYYZ=             -2.3008 ZZZX=             -0.1454
 ZZZY=             -0.3741 XXYY=            -54.2436 XXZZ=            -48.3993 YYZZ=            -19.2763
 XXYZ=             -0.8418 YYXZ=              1.0881 ZZXY=             -0.2008
 N-N= 1.036523561992D+02 E-N=-6.547892278045D+02  KE= 1.906845467364D+02
 No NMR shielding tensors so no spin-rotation constants.
 Leave Link  601 at Wed May 12 11:58:34 2021, MaxMem=  2147483648 cpu:         0.6
 (Enter /opt/cluster/programs/g09_d.01/g09/l9999.exe)
 1\1\GINC-NODE19\FOpt\RwB97XD\6-31+G\C3H4O1\BOITTIER\12-May-2021\0\\#p 
 wB97XD/6-31+G Opt=ModRedun\\L.pdb\\0,1\C,1.5138912947,0.4470939925,0.0
 666150793\C,0.6611043025,-0.5675145041,-0.1257684491\C,-0.7857449997,-
 0.4415480536,0.1423980627\O,-1.4606830437,0.5594060712,-0.1265679633\H
 ,-1.2746073254,-1.32611329,0.5798299908\H,2.5823973167,0.3284420123,-0
 .0771216623\H,1.1555186168,1.4264648537,0.3709570419\H,1.0193658382,-1
 .5628260819,-0.3801001\\Version=ES64L-G09RevD.01\State=1-A\HF=-191.790
 0764\RMSD=2.973e-09\RMSF=2.747e-03\Dipole=1.0067255,-0.7816636,0.24513
 07\Quadrupole=-0.6902347,1.3037414,-0.6135068,2.6390934,-0.7746028,0.7
 122249\PG=C01 [X(C3H4O1)]\\@



 IN THIS SHORT LIFE

 THAT ONLY LASTS AN HOUR

 HOW MUCH, HOW LITTLE, IS WITHIN OUR POWER....


 EMILY DICKINSON BOLTS OF MELODY NO. 521
 Job cpu time:       0 days  0 hours  1 minutes  5.5 seconds.
 File lengths (MBytes):  RWF=      5 Int=      0 D2E=      0 Chk=      2 Scr=      1
 Normal termination of Gaussian 09 at Wed May 12 11:58:34 2021.
