N.pdb                                                                   
FOpt      RwB97XD                                                     6-31+G              
Number of atoms                            I               13
Info1-9                                    I   N=           9
          24          24           0           0           0         100
           2          18        -802
Charge                                     I                0
Multiplicity                               I                1
Number of electrons                        I               64
Number of alpha electrons                  I               32
Number of beta electrons                   I               32
Number of basis functions                  I              114
Number of independent functions            I              114
Number of point charges in /Mol/           I                0
Number of translation vectors              I                0
Atomic numbers                             I   N=          13
           6           6           1           1           1           6
           8           6           1           1           9           9
           9
Nuclear charges                            R   N=          13
  6.00000000E+00  6.00000000E+00  1.00000000E+00  1.00000000E+00  1.00000000E+00
  6.00000000E+00  8.00000000E+00  6.00000000E+00  1.00000000E+00  1.00000000E+00
  9.00000000E+00  9.00000000E+00  9.00000000E+00
Current cartesian coordinates              R   N=          39
 -3.53540747E+00  2.31343454E+00 -2.77713267E-02 -2.84680832E+00 -4.27790866E-01
 -2.77443833E-01 -2.47220407E+00  3.17622489E+00  1.52705565E+00 -5.55031095E+00
  2.48201137E+00  3.70900416E-01 -3.05672848E+00  3.36358935E+00 -1.74369935E+00
 -2.83406175E-01 -1.11084187E+00 -1.42663354E+00 -4.30461112E+00 -2.14599976E+00
  3.18254536E-01  1.95561884E+00 -8.06312531E-02 -1.64896617E-02 -1.75391306E-01
 -4.09500254E-01 -3.37040773E+00 -1.28038598E-01 -3.16815081E+00 -1.45307081E+00
  2.18514881E+00  2.53806807E+00 -2.43706552E-01  4.20334035E+00 -1.10126293E+00
 -9.11360023E-01  1.84257542E+00 -5.96938446E-01  2.55653498E+00
Force Field                                I                0
Int Atom Types                             I   N=          13
           0           0           0           0           0           0
           0           0           0           0           0           0
           0
MM charges                                 R   N=          13
  0.00000000E+00  0.00000000E+00  0.00000000E+00  0.00000000E+00  0.00000000E+00
  0.00000000E+00  0.00000000E+00  0.00000000E+00  0.00000000E+00  0.00000000E+00
  0.00000000E+00  0.00000000E+00  0.00000000E+00
Integer atomic weights                     I   N=          13
          12          12           1           1           1          12
          16          12           1           1          19          19
          19
Real atomic weights                        R   N=          13
  1.20000000E+01  1.20000000E+01  1.00782504E+00  1.00782504E+00  1.00782504E+00
  1.20000000E+01  1.59949146E+01  1.20000000E+01  1.00782504E+00  1.00782504E+00
  1.89984032E+01  1.89984032E+01  1.89984032E+01
Atom fragment info                         I   N=          13
           0           0           0           0           0           0
           0           0           0           0           0           0
           0
Atom residue num                           I   N=          13
           0           0           0           0           0           0
           0           0           0           0           0           0
           0
Nuclear spins                              I   N=          13
           0           0           1           1           1           0
           0           0           1           1           1           1
           1
Nuclear ZEff                               R   N=          13
 -3.60000000E+00 -3.60000000E+00 -1.00000000E+00 -1.00000000E+00 -1.00000000E+00
 -3.60000000E+00 -5.60000000E+00 -3.60000000E+00 -1.00000000E+00 -1.00000000E+00
 -6.75000000E+00 -6.75000000E+00 -6.75000000E+00
Nuclear ZNuc                               R   N=          13
  6.00000000E+00  6.00000000E+00  1.00000000E+00  1.00000000E+00  1.00000000E+00
  6.00000000E+00  8.00000000E+00  6.00000000E+00  1.00000000E+00  1.00000000E+00
  9.00000000E+00  9.00000000E+00  9.00000000E+00
Nuclear QMom                               R   N=          13
  0.00000000E+00  0.00000000E+00  0.00000000E+00  0.00000000E+00  0.00000000E+00
  0.00000000E+00  0.00000000E+00  0.00000000E+00  0.00000000E+00  0.00000000E+00
  0.00000000E+00  0.00000000E+00  0.00000000E+00
Nuclear GFac                               R   N=          13
  0.00000000E+00  0.00000000E+00  2.79284600E+00  2.79284600E+00  2.79284600E+00
  0.00000000E+00  0.00000000E+00  0.00000000E+00  2.79284600E+00  2.79284600E+00
  2.62886700E+00  2.62886700E+00  2.62886700E+00
MicOpt                                     I   N=          13
          -1          -1          -1          -1          -1          -1
          -1          -1          -1          -1          -1          -1
          -1
Number of contracted shells                I               42
Number of primitive shells                 I              108
Pure/Cartesian d shells                    I                1
Pure/Cartesian f shells                    I                0
Highest angular momentum                   I                1
Largest degree of contraction              I                6
Shell types                                I   N=          42
           0          -1          -1          -1           0          -1
          -1          -1           0           0           0           0
           0           0           0          -1          -1          -1
           0          -1          -1          -1           0          -1
          -1          -1           0           0           0           0
           0          -1          -1          -1           0          -1
          -1          -1           0          -1          -1          -1
Number of primitives per shell             I   N=          42
           6           3           1           1           6           3
           1           1           3           1           3           1
           3           1           6           3           1           1
           6           3           1           1           6           3
           1           1           3           1           3           1
           6           3           1           1           6           3
           1           1           6           3           1           1
Shell to atom map                          I   N=          42
           1           1           1           1           2           2
           2           2           3           3           4           4
           5           5           6           6           6           6
           7           7           7           7           8           8
           8           8           9           9          10          10
          11          11          11          11          12          12
          12          12          13          13          13          13
Primitive exponents                        R   N=         108
  3.04752488E+03  4.57369518E+02  1.03948685E+02  2.92101553E+01  9.28666296E+00
  3.16392696E+00  7.86827235E+00  1.88128854E+00  5.44249258E-01  1.68714478E-01
  4.38000000E-02  3.04752488E+03  4.57369518E+02  1.03948685E+02  2.92101553E+01
  9.28666296E+00  3.16392696E+00  7.86827235E+00  1.88128854E+00  5.44249258E-01
  1.68714478E-01  4.38000000E-02  1.87311370E+01  2.82539436E+00  6.40121692E-01
  1.61277759E-01  1.87311370E+01  2.82539436E+00  6.40121692E-01  1.61277759E-01
  1.87311370E+01  2.82539436E+00  6.40121692E-01  1.61277759E-01  3.04752488E+03
  4.57369518E+02  1.03948685E+02  2.92101553E+01  9.28666296E+00  3.16392696E+00
  7.86827235E+00  1.88128854E+00  5.44249258E-01  1.68714478E-01  4.38000000E-02
  5.48467166E+03  8.25234946E+02  1.88046958E+02  5.29645000E+01  1.68975704E+01
  5.79963534E+00  1.55396162E+01  3.59993359E+00  1.01376175E+00  2.70005823E-01
  8.45000000E-02  3.04752488E+03  4.57369518E+02  1.03948685E+02  2.92101553E+01
  9.28666296E+00  3.16392696E+00  7.86827235E+00  1.88128854E+00  5.44249258E-01
  1.68714478E-01  4.38000000E-02  1.87311370E+01  2.82539436E+00  6.40121692E-01
  1.61277759E-01  1.87311370E+01  2.82539436E+00  6.40121692E-01  1.61277759E-01
  7.00171309E+03  1.05136609E+03  2.39285690E+02  6.73974453E+01  2.15199573E+01
  7.40310130E+00  2.08479528E+01  4.80830834E+00  1.34406986E+00  3.58151393E-01
  1.07600000E-01  7.00171309E+03  1.05136609E+03  2.39285690E+02  6.73974453E+01
  2.15199573E+01  7.40310130E+00  2.08479528E+01  4.80830834E+00  1.34406986E+00
  3.58151393E-01  1.07600000E-01  7.00171309E+03  1.05136609E+03  2.39285690E+02
  6.73974453E+01  2.15199573E+01  7.40310130E+00  2.08479528E+01  4.80830834E+00
  1.34406986E+00  3.58151393E-01  1.07600000E-01
Contraction coefficients                   R   N=         108
  1.83473713E-03  1.40373228E-02  6.88426223E-02  2.32184443E-01  4.67941348E-01
  3.62311985E-01 -1.19332420E-01 -1.60854152E-01  1.14345644E+00  1.00000000E+00
  1.00000000E+00  1.83473713E-03  1.40373228E-02  6.88426223E-02  2.32184443E-01
  4.67941348E-01  3.62311985E-01 -1.19332420E-01 -1.60854152E-01  1.14345644E+00
  1.00000000E+00  1.00000000E+00  3.34946043E-02  2.34726953E-01  8.13757326E-01
  1.00000000E+00  3.34946043E-02  2.34726953E-01  8.13757326E-01  1.00000000E+00
  3.34946043E-02  2.34726953E-01  8.13757326E-01  1.00000000E+00  1.83473713E-03
  1.40373228E-02  6.88426223E-02  2.32184443E-01  4.67941348E-01  3.62311985E-01
 -1.19332420E-01 -1.60854152E-01  1.14345644E+00  1.00000000E+00  1.00000000E+00
  1.83107443E-03  1.39501722E-02  6.84450781E-02  2.32714336E-01  4.70192898E-01
  3.58520853E-01 -1.10777550E-01 -1.48026263E-01  1.13076702E+00  1.00000000E+00
  1.00000000E+00  1.83473713E-03  1.40373228E-02  6.88426223E-02  2.32184443E-01
  4.67941348E-01  3.62311985E-01 -1.19332420E-01 -1.60854152E-01  1.14345644E+00
  1.00000000E+00  1.00000000E+00  3.34946043E-02  2.34726953E-01  8.13757326E-01
  1.00000000E+00  3.34946043E-02  2.34726953E-01  8.13757326E-01  1.00000000E+00
  1.81961690E-03  1.39160796E-02  6.84053245E-02  2.33185760E-01  4.71267439E-01
  3.56618546E-01 -1.08506975E-01 -1.46451658E-01  1.12868858E+00  1.00000000E+00
  1.00000000E+00  1.81961690E-03  1.39160796E-02  6.84053245E-02  2.33185760E-01
  4.71267439E-01  3.56618546E-01 -1.08506975E-01 -1.46451658E-01  1.12868858E+00
  1.00000000E+00  1.00000000E+00  1.81961690E-03  1.39160796E-02  6.84053245E-02
  2.33185760E-01  4.71267439E-01  3.56618546E-01 -1.08506975E-01 -1.46451658E-01
  1.12868858E+00  1.00000000E+00  1.00000000E+00
P(S=P) Contraction coefficients            R   N=         108
  0.00000000E+00  0.00000000E+00  0.00000000E+00  0.00000000E+00  0.00000000E+00
  0.00000000E+00  6.89990666E-02  3.16423961E-01  7.44308291E-01  1.00000000E+00
  1.00000000E+00  0.00000000E+00  0.00000000E+00  0.00000000E+00  0.00000000E+00
  0.00000000E+00  0.00000000E+00  6.89990666E-02  3.16423961E-01  7.44308291E-01
  1.00000000E+00  1.00000000E+00  0.00000000E+00  0.00000000E+00  0.00000000E+00
  0.00000000E+00  0.00000000E+00  0.00000000E+00  0.00000000E+00  0.00000000E+00
  0.00000000E+00  0.00000000E+00  0.00000000E+00  0.00000000E+00  0.00000000E+00
  0.00000000E+00  0.00000000E+00  0.00000000E+00  0.00000000E+00  0.00000000E+00
  6.89990666E-02  3.16423961E-01  7.44308291E-01  1.00000000E+00  1.00000000E+00
  0.00000000E+00  0.00000000E+00  0.00000000E+00  0.00000000E+00  0.00000000E+00
  0.00000000E+00  7.08742682E-02  3.39752839E-01  7.27158577E-01  1.00000000E+00
  1.00000000E+00  0.00000000E+00  0.00000000E+00  0.00000000E+00  0.00000000E+00
  0.00000000E+00  0.00000000E+00  6.89990666E-02  3.16423961E-01  7.44308291E-01
  1.00000000E+00  1.00000000E+00  0.00000000E+00  0.00000000E+00  0.00000000E+00
  0.00000000E+00  0.00000000E+00  0.00000000E+00  0.00000000E+00  0.00000000E+00
  0.00000000E+00  0.00000000E+00  0.00000000E+00  0.00000000E+00  0.00000000E+00
  0.00000000E+00  7.16287242E-02  3.45912103E-01  7.22469956E-01  1.00000000E+00
  1.00000000E+00  0.00000000E+00  0.00000000E+00  0.00000000E+00  0.00000000E+00
  0.00000000E+00  0.00000000E+00  7.16287242E-02  3.45912103E-01  7.22469956E-01
  1.00000000E+00  1.00000000E+00  0.00000000E+00  0.00000000E+00  0.00000000E+00
  0.00000000E+00  0.00000000E+00  0.00000000E+00  7.16287242E-02  3.45912103E-01
  7.22469956E-01  1.00000000E+00  1.00000000E+00
Coordinates of each shell                  R   N=         126
 -3.53540747E+00  2.31343454E+00 -2.77713267E-02 -3.53540747E+00  2.31343454E+00
 -2.77713267E-02 -3.53540747E+00  2.31343454E+00 -2.77713267E-02 -3.53540747E+00
  2.31343454E+00 -2.77713267E-02 -2.84680832E+00 -4.27790866E-01 -2.77443833E-01
 -2.84680832E+00 -4.27790866E-01 -2.77443833E-01 -2.84680832E+00 -4.27790866E-01
 -2.77443833E-01 -2.84680832E+00 -4.27790866E-01 -2.77443833E-01 -2.47220407E+00
  3.17622489E+00  1.52705565E+00 -2.47220407E+00  3.17622489E+00  1.52705565E+00
 -5.55031095E+00  2.48201137E+00  3.70900416E-01 -5.55031095E+00  2.48201137E+00
  3.70900416E-01 -3.05672848E+00  3.36358935E+00 -1.74369935E+00 -3.05672848E+00
  3.36358935E+00 -1.74369935E+00 -2.83406175E-01 -1.11084187E+00 -1.42663354E+00
 -2.83406175E-01 -1.11084187E+00 -1.42663354E+00 -2.83406175E-01 -1.11084187E+00
 -1.42663354E+00 -2.83406175E-01 -1.11084187E+00 -1.42663354E+00 -4.30461112E+00
 -2.14599976E+00  3.18254536E-01 -4.30461112E+00 -2.14599976E+00  3.18254536E-01
 -4.30461112E+00 -2.14599976E+00  3.18254536E-01 -4.30461112E+00 -2.14599976E+00
  3.18254536E-01  1.95561884E+00 -8.06312531E-02 -1.64896617E-02  1.95561884E+00
 -8.06312531E-02 -1.64896617E-02  1.95561884E+00 -8.06312531E-02 -1.64896617E-02
  1.95561884E+00 -8.06312531E-02 -1.64896617E-02 -1.75391306E-01 -4.09500254E-01
 -3.37040773E+00 -1.75391306E-01 -4.09500254E-01 -3.37040773E+00 -1.28038598E-01
 -3.16815081E+00 -1.45307081E+00 -1.28038598E-01 -3.16815081E+00 -1.45307081E+00
  2.18514881E+00  2.53806807E+00 -2.43706552E-01  2.18514881E+00  2.53806807E+00
 -2.43706552E-01  2.18514881E+00  2.53806807E+00 -2.43706552E-01  2.18514881E+00
  2.53806807E+00 -2.43706552E-01  4.20334035E+00 -1.10126293E+00 -9.11360023E-01
  4.20334035E+00 -1.10126293E+00 -9.11360023E-01  4.20334035E+00 -1.10126293E+00
 -9.11360023E-01  4.20334035E+00 -1.10126293E+00 -9.11360023E-01  1.84257542E+00
 -5.96938446E-01  2.55653498E+00  1.84257542E+00 -5.96938446E-01  2.55653498E+00
  1.84257542E+00 -5.96938446E-01  2.55653498E+00  1.84257542E+00 -5.96938446E-01
  2.55653498E+00
Constraint Structure                       R   N=          39
 -3.53540747E+00  2.31343454E+00 -2.77713267E-02 -2.84680832E+00 -4.27790866E-01
 -2.77443833E-01 -2.47220407E+00  3.17622489E+00  1.52705565E+00 -5.55031095E+00
  2.48201137E+00  3.70900416E-01 -3.05672848E+00  3.36358935E+00 -1.74369935E+00
 -2.83406175E-01 -1.11084187E+00 -1.42663354E+00 -4.30461112E+00 -2.14599976E+00
  3.18254536E-01  1.95561884E+00 -8.06312531E-02 -1.64896617E-02 -1.75391306E-01
 -4.09500254E-01 -3.37040773E+00 -1.28038598E-01 -3.16815081E+00 -1.45307081E+00
  2.18514881E+00  2.53806807E+00 -2.43706552E-01  4.20334035E+00 -1.10126293E+00
 -9.11360023E-01  1.84257542E+00 -5.96938446E-01  2.55653498E+00
Num ILSW                                   I              100
ILSW                                       I   N=         100
           0           1           0           0           2           0
           0           0           0           0        4639          -1
           0           0           0           0           2           0
           0           0           0           0           1           0
           1           0           0           0           0           0
           0           0      100000           0          -1           0
           0           0           0           0           0           0
           0           0           0           1           0           0
           0           0           1           0           0           0
           0           0         121          41           0           0
           0           0          58           0           0           0
           0           0           0          13           0           0
           0           0           0           0           0           0
           0           0           0           0           0           0
           0           0           0           0           0           0
           0           0           0           0           0           0
           0           0           0           0
Num RLSW                                   I               41
RLSW                                       R   N=          41
  1.00000000E+00  1.00000000E+00  1.00000000E+00  1.00000000E+00  1.00000000E+00
  0.00000000E+00  2.00000000E-01  2.22036000E-01  0.00000000E+00  7.77964000E-01
  0.00000000E+00  2.00000000E-01  0.00000000E+00  0.00000000E+00  1.00000000E+00
  0.00000000E+00  0.00000000E+00  1.00000000E+00  0.00000000E+00  0.00000000E+00
  0.00000000E+00  0.00000000E+00  1.00000000E+00  0.00000000E+00  0.00000000E+00
  0.00000000E+00  0.00000000E+00  1.00000000E+00  0.00000000E+00  0.00000000E+00
  0.00000000E+00  0.00000000E+00  1.00000000E+00  0.00000000E+00  0.00000000E+00
  0.00000000E+00  0.00000000E+00  0.00000000E+00  1.00000000E+00  1.00000000E+00
  0.00000000E+00
MxBond                                     I                4
NBond                                      I   N=          13
           4           3           1           1           1           4
           1           4           1           1           1           1
           1
IBond                                      I   N=          52
           2           3           4           5           1           6
           7           0           1           0           0           0
           1           0           0           0           1           0
           0           0           2           8           9          10
           2           0           0           0           6          11
          12          13           6           0           0           0
           6           0           0           0           8           0
           0           0           8           0           0           0
           8           0           0           0
RBond                                      R   N=          52
  1.00000000E+00  1.00000000E+00  1.00000000E+00  1.00000000E+00  1.00000000E+00
  1.00000000E+00  2.00000000E+00  0.00000000E+00  1.00000000E+00  0.00000000E+00
  0.00000000E+00  0.00000000E+00  1.00000000E+00  0.00000000E+00  0.00000000E+00
  0.00000000E+00  1.00000000E+00  0.00000000E+00  0.00000000E+00  0.00000000E+00
  1.00000000E+00  1.00000000E+00  1.00000000E+00  1.00000000E+00  2.00000000E+00
  0.00000000E+00  0.00000000E+00  0.00000000E+00  1.00000000E+00  1.00000000E+00
  1.00000000E+00  1.00000000E+00  1.00000000E+00  0.00000000E+00  0.00000000E+00
  0.00000000E+00  1.00000000E+00  0.00000000E+00  0.00000000E+00  0.00000000E+00
  1.00000000E+00  0.00000000E+00  0.00000000E+00  0.00000000E+00  1.00000000E+00
  0.00000000E+00  0.00000000E+00  0.00000000E+00  1.00000000E+00  0.00000000E+00
  0.00000000E+00  0.00000000E+00
Virial Ratio                               R      2.005190236502314E+00
SCF Energy                                 R     -5.299271977864983E+02
Total Energy                               R     -5.299271977864983E+02
RMS Force                                  R      6.083863124145885E-04
RMS Density                                R      4.267161671380054E-09
External E-field                           R   N=          35
  0.00000000E+00  0.00000000E+00  0.00000000E+00  0.00000000E+00  0.00000000E+00
  0.00000000E+00  0.00000000E+00  0.00000000E+00  0.00000000E+00  0.00000000E+00
  0.00000000E+00  0.00000000E+00  0.00000000E+00  0.00000000E+00  0.00000000E+00
  0.00000000E+00  0.00000000E+00  0.00000000E+00  0.00000000E+00  0.00000000E+00
  0.00000000E+00  0.00000000E+00  0.00000000E+00  0.00000000E+00  0.00000000E+00
  0.00000000E+00  0.00000000E+00  0.00000000E+00  0.00000000E+00  0.00000000E+00
  0.00000000E+00  0.00000000E+00  0.00000000E+00  0.00000000E+00  0.00000000E+00
IOpCl                                      I                0
IROHF                                      I                0
Alpha Orbital Energies                     R   N=         114
 -2.48913117E+01 -2.48912910E+01 -2.48905907E+01 -1.93045910E+01 -1.05957765E+01
 -1.04388805E+01 -1.03630792E+01 -1.03216671E+01 -1.43963293E+00 -1.35496504E+00
 -1.35387346E+00 -1.19562707E+00 -9.52945096E-01 -8.73213230E-01 -8.00393168E-01
 -7.10616975E-01 -7.03067395E-01 -6.91771471E-01 -6.42501377E-01 -5.96191394E-01
 -5.84909875E-01 -5.75826037E-01 -5.68649086E-01 -5.54847923E-01 -5.42663187E-01
 -5.37136329E-01 -5.26333782E-01 -5.16683780E-01 -5.06553420E-01 -4.97023779E-01
 -4.64103278E-01 -3.70100209E-01  1.04236543E-02  5.97630427E-02  7.93069421E-02
  9.19281634E-02  1.01786760E-01  1.06745660E-01  1.11853167E-01  1.22389628E-01
  1.26019317E-01  1.32339742E-01  1.40906887E-01  1.58428499E-01  1.66021361E-01
  1.68543934E-01  1.75007594E-01  1.80941135E-01  1.82476911E-01  1.92604643E-01
  2.19661623E-01  2.22071248E-01  2.63747510E-01  2.66358179E-01  2.79451990E-01
  2.85871932E-01  3.09081155E-01  3.33414161E-01  3.40056184E-01  3.53609057E-01
  3.56817051E-01  3.76734068E-01  3.85923529E-01  3.95497200E-01  4.00921227E-01
  4.07739995E-01  4.09781195E-01  4.27939654E-01  4.37222642E-01  4.40683216E-01
  4.45424429E-01  4.48318081E-01  4.63433767E-01  4.93717353E-01  5.19625304E-01
  5.27401279E-01  5.42039921E-01  6.93518317E-01  7.33748496E-01  7.62441506E-01
  7.76797177E-01  8.04971678E-01  8.32048326E-01  8.57527541E-01  8.77432390E-01
  9.02989281E-01  9.25638885E-01  9.60410322E-01  1.01584329E+00  1.10324143E+00
  1.16274836E+00  1.18092299E+00  1.21954215E+00  1.22264274E+00  1.26092421E+00
  1.35252595E+00  1.38906957E+00  1.42797661E+00  1.46746977E+00  1.49094449E+00
  1.55563763E+00  1.59290519E+00  1.66574086E+00  1.68311043E+00  1.71017913E+00
  1.72957819E+00  1.81058412E+00  1.81769209E+00  1.84318892E+00  1.84955808E+00
  1.97991645E+00  2.30068265E+00  2.33259613E+00  2.65487666E+00
Alpha MO coefficients                      R   N=       12996
  3.94474206E-06  8.60530598E-05  1.31725647E-04 -2.16353994E-05  8.51340960E-06
  6.74295402E-04 -4.46354092E-04 -1.85335950E-04  1.94500994E-04  9.63053922E-03
  1.41386761E-03 -2.05908824E-03  3.23719071E-04  1.89221212E-05  3.19128329E-04
  1.85288744E-04  7.80824463E-05  3.74194841E-05  4.29827678E-04  1.32809747E-04
 -5.76197373E-04 -4.30495177E-04 -2.72571740E-04  1.57777830E-03 -3.85700914E-03
 -1.37486301E-03  1.55792259E-04 -5.91808950E-04 -1.68319131E-05 -6.71613128E-04
  7.01052040E-05 -8.23627987E-05  9.70320395E-05  4.63371131E-04 -2.65215699E-04
 -1.37651864E-04 -1.51682623E-04 -3.21512389E-03 -4.77135059E-04 -7.09781461E-04
 -1.01061649E-03  9.52041077E-03  6.33446728E-03  1.71230885E-03  7.83861659E-04
 -1.25284992E-06 -3.50710326E-05 -1.34923727E-05  1.40702766E-05 -2.69998850E-05
  1.43903120E-05  1.64726177E-06 -4.70899552E-05  1.65276333E-04 -4.77852676E-04
  1.76590791E-04  1.28817656E-04  1.68931819E-04 -2.48553543E-04 -1.10880868E-03
  1.86332699E-04  5.37154147E-04  4.18680015E-04  9.29865117E-03  5.62180979E-04
  8.63814418E-04  1.33336204E-03 -2.37489570E-02  5.84025362E-03  7.72255613E-04
  2.82619660E-03  9.22961151E-05  5.10391200E-04  8.17663453E-05  7.01974157E-04
  7.92693649E-01  2.24664827E-02 -1.31959845E-04 -1.14106069E-03  1.06573470E-04
 -1.40057022E-02  2.80620203E-04  2.67104994E-03 -4.96603867E-04  8.26605486E-03
 -5.64137593E-04 -1.71539132E-03 -4.15409960E-04  1.50371808E-02  8.40607521E-04
 -5.34726040E-05  3.46390713E-05  3.92668385E-05 -2.02333304E-03  9.26507139E-04
 -7.00021786E-04 -6.49968625E-04 -1.27360909E-03  3.41967343E-04 -7.74479265E-04
 -7.34880237E-04  6.01303191E-01  1.71943252E-02  4.26802484E-06  1.92375095E-04
 -8.86177645E-04 -1.12804011E-02 -3.70304012E-05 -7.71824052E-04  2.34126965E-03
  5.66876534E-03 -7.37445715E-04 -5.11043136E-04 -9.54153764E-04 -5.60623880E-05
 -4.47674168E-04 -4.26107336E-05 -7.59507883E-05  2.81782237E-05  3.00648639E-03
  1.21259575E-03 -1.07112101E-03 -3.57968990E-04  1.05357596E-02  1.51988547E-03
 -2.43112015E-03 -1.01311526E-04  3.52765950E-05  3.68452270E-04  9.01749760E-05
  1.13183222E-04  4.78074594E-05 -1.02439555E-03 -4.94459264E-04 -2.78610114E-03
 -3.28325666E-05 -1.54730319E-02 -1.83219380E-03 -3.23908379E-03 -7.94765546E-05
 -1.18645372E-04 -4.98269138E-05  4.51371672E-06  2.45893909E-04 -1.76809655E-04
 -2.71144737E-04  1.20501053E-05  8.21721196E-05 -9.88509981E-05 -1.31642219E-04
  5.30850390E-05 -2.87187865E-04  2.88328863E-04  2.45243424E-03 -1.51959926E-03
  5.58428094E-03 -5.95234469E-04  8.10629631E-04  4.48580167E-04  6.62881224E-06
  6.21930487E-05  1.42418027E-07 -1.94217810E-06  3.48360693E-06 -9.14285878E-04
 -2.62652709E-04 -5.93316711E-05  1.40896059E-04  3.35666257E-04  2.83564527E-04
  4.99234716E-05  1.71721217E-04 -4.22137972E-05 -2.70098897E-04  1.61099522E-05
 -5.60080747E-04  6.11131762E-04  1.40021290E-03 -3.46777566E-04 -8.51259551E-04
  1.58287649E-03 -2.57741290E-03  8.99250863E-04  3.34823999E-04 -2.22056376E-04
 -3.37375565E-04 -1.88199810E-04  3.35589938E-04  1.10738632E-03 -6.01334026E-01
 -1.66205884E-02  1.01847868E-04  8.24436212E-04 -5.81360427E-05  8.92641731E-03
 -1.72508163E-04 -9.76691806E-04 -2.15230050E-04 -7.00202464E-03  6.78347343E-04
  2.44262290E-03 -9.74599927E-04  3.02937339E-04  4.09824440E-05 -3.35378308E-08
 -1.83568007E-05  2.09769038E-05 -1.30369376E-04  9.82189275E-05  2.70633313E-04
 -3.81689147E-04  9.43699869E-05 -3.16402207E-05  5.63702765E-04 -6.86789094E-04
  7.92754694E-01  2.21125517E-02  1.76965655E-05  2.29837206E-04 -1.11774231E-03
 -1.26310595E-02  5.92902749E-05 -2.11346778E-04  1.78966310E-03  9.17714345E-03
 -4.99836921E-04  1.19181833E-03 -2.62456872E-03  9.47623392E-07 -2.03201294E-05
 -3.09004222E-05  2.84464940E-05  2.43597864E-05 -4.00256781E-04 -2.19588257E-04
  1.24794829E-04 -2.37017832E-04  4.33536679E-03 -1.40361248E-04 -1.12285376E-03
 -1.75104443E-05 -4.19850321E-06 -8.81760451E-05 -9.57672590E-05 -3.93414592E-05
 -4.65625236E-05 -9.72909597E-04  5.86461550E-04  1.01909999E-03  5.03833082E-04
 -5.12607226E-03  7.52168614E-04 -2.29082036E-03 -6.09395915E-04  9.69702497E-06
  2.81912924E-04  2.04640188E-06 -8.63461589E-05 -5.47634843E-07 -1.66129265E-04
  6.55799299E-05  2.60308843E-04 -9.55960349E-05 -4.44740384E-05 -9.70918294E-05
 -2.19349267E-03 -2.31271536E-03 -2.98349076E-04 -2.46492141E-05  1.33462537E-02
  2.78732887E-03  1.83220589E-03  1.95584615E-03 -5.46958840E-06 -7.28633919E-05
 -4.07861813E-06 -8.86377611E-06  2.65717964E-05  6.10475296E-04  1.28830612E-04
  1.70143798E-04 -2.49301834E-04  5.05315796E-04 -1.01586005E-04  4.31095560E-04
  4.87878895E-05 -1.96204298E-04 -9.74593218E-04  6.38860778E-04 -2.72844969E-04
 -2.04632142E-04  8.40709614E-03  1.84511875E-03 -3.99169696E-04 -5.85423885E-04
 -1.47357259E-02  1.96319410E-03  2.12223267E-03  2.52284354E-03  2.79869953E-04
 -2.38051190E-04  2.17807490E-04 -4.31662146E-04 -1.17487055E-02 -1.06122249E-05
  2.79816750E-05 -1.44910692E-05 -1.72636955E-05 -1.19410014E-03 -3.52554532E-04
  9.38040022E-04  1.14353158E-04 -1.71005031E-03 -5.63999275E-04  1.10718779E-03
  1.29402769E-04  9.94924954E-01  2.78977751E-02 -1.26101345E-03  5.71581177E-04
  4.90787924E-04 -1.64269661E-02  2.52506556E-03 -1.20784704E-03 -1.03038500E-03
  8.84179459E-03 -1.88844095E-03  7.90767251E-04  7.53422548E-04 -9.28507076E-03
  1.27694718E-05  3.02389580E-05 -1.46576170E-05 -1.79958063E-05 -9.92829142E-04
 -4.71611737E-04  3.44084287E-05  8.54355453E-04 -1.81081086E-03 -5.45113831E-04
  4.12148333E-05  1.14644212E-03 -2.65972261E-05 -4.14938015E-04  1.78969717E-05
  1.24723219E-04 -9.47384277E-06  3.16519393E-03  2.20287671E-03 -7.01031074E-04
 -9.08330838E-04  1.21603945E-02  3.23401273E-04 -3.23828755E-03 -2.32651103E-04
  2.21108008E-04  2.90938005E-04  1.52575430E-05  1.40756128E-04  1.20999309E-05
  7.66984555E-03 -5.01116050E-03 -8.68019073E-03  2.08887656E-03 -2.60769394E-02
 -1.11824236E-04 -1.17786362E-03  3.06940610E-04 -8.72648738E-05 -2.54883584E-04
  1.19867746E-04  3.01938352E-04 -1.78730244E-04 -5.01519227E-04 -3.77775996E-06
 -2.56615524E-04  1.08188509E-04 -1.45024354E-04 -3.14895677E-05  5.66951297E-04
  1.22617529E-03  3.56444344E-03 -8.96498992E-04 -6.94745256E-03 -5.93807644E-03
 -7.17889319E-04 -2.42249428E-03  9.95245621E-01  2.98646151E-02  1.44060749E-03
  1.62224692E-03 -5.71143403E-04 -2.40146711E-02 -3.96134771E-03 -4.10625169E-03
  1.49817723E-03  8.90390786E-03  9.34427556E-04  4.95943391E-04  5.01619322E-05
 -2.25153465E-05 -2.09299568E-04  9.23879934E-05  2.61963010E-05 -1.00849026E-04
  1.63732855E-04 -5.96373753E-04 -6.65256339E-04  2.71116956E-03  1.65935693E-02
 -3.69302356E-03 -2.18435307E-03 -1.34526029E-03 -2.41714202E-04 -5.17685226E-04
  1.78031242E-04  1.73890661E-03 -2.56868451E-06 -5.29866992E-05 -4.80100779E-08
  9.57222988E-07  3.60844093E-05  2.86981960E-04  3.17771408E-05 -6.67302522E-05
 -2.73474167E-04  7.97543190E-05  2.54204084E-04 -4.10845635E-04  2.90129164E-04
 -2.70674477E-06 -6.45729218E-05  2.70560809E-05 -3.39581727E-05  2.63864164E-05
  2.98298650E-04 -1.97723249E-04  2.30143305E-04 -1.71952025E-04  5.03620074E-04
 -3.61659107E-04  1.05426514E-04  1.07100528E-04  1.36817940E-06 -6.37007821E-07
  2.08935426E-06  1.32945538E-05 -5.30758235E-05 -1.74851216E-04 -5.25327977E-05
 -1.32995405E-04  4.53790418E-04 -3.20973364E-03 -2.13196834E-04 -1.82389100E-04