 Entering Gaussian System, Link 0=/opt/cluster/programs/g09_d.01/g09//g09
 Input=/home/unibas/boittier/RDKit_G2/L.pdb/SCAN_1_2_3_4_S_17_20.0/15_SCAN_1_2_3_4_F/15_SCAN_L.pdb.com
 Output=/scratch/boittier/15_SCAN_L.pdb/15_SCAN_L.pdb.out
 Initial command:
 /opt/cluster/programs/g09_d.01/g09/l1.exe "/scratch/boittier/15_SCAN_L.pdb/Gau-185303.inp" -scrdir="/scratch/boittier/15_SCAN_L.pdb/"
 Entering Link 1 = /opt/cluster/programs/g09_d.01/g09/l1.exe PID=    185311.
  
 Copyright (c) 1988,1990,1992,1993,1995,1998,2003,2009,2013,
            Gaussian, Inc.  All Rights Reserved.
  
 This is part of the Gaussian(R) 09 program.  It is based on
 the Gaussian(R) 03 system (copyright 2003, Gaussian, Inc.),
 the Gaussian(R) 98 system (copyright 1998, Gaussian, Inc.),
 the Gaussian(R) 94 system (copyright 1995, Gaussian, Inc.),
 the Gaussian 92(TM) system (copyright 1992, Gaussian, Inc.),
 the Gaussian 90(TM) system (copyright 1990, Gaussian, Inc.),
 the Gaussian 88(TM) system (copyright 1988, Gaussian, Inc.),
 the Gaussian 86(TM) system (copyright 1986, Carnegie Mellon
 University), and the Gaussian 82(TM) system (copyright 1983,
 Carnegie Mellon University). Gaussian is a federally registered
 trademark of Gaussian, Inc.
  
 This software contains proprietary and confidential information,
 including trade secrets, belonging to Gaussian, Inc.
  
 This software is provided under written license and may be
 used, copied, transmitted, or stored only in accord with that
 written license.
  
 The following legend is applicable only to US Government
 contracts under FAR:
  
                    RESTRICTED RIGHTS LEGEND
  
 Use, reproduction and disclosure by the US Government is
 subject to restrictions as set forth in subparagraphs (a)
 and (c) of the Commercial Computer Software - Restricted
 Rights clause in FAR 52.227-19.
  
 Gaussian, Inc.
 340 Quinnipiac St., Bldg. 40, Wallingford CT 06492
  
  
 ---------------------------------------------------------------
 Warning -- This program may not be used in any manner that
 competes with the business of Gaussian, Inc. or will provide
 assistance to any competitor of Gaussian, Inc.  The licensee
 of this program is prohibited from giving any competitor of
 Gaussian, Inc. access to this program.  By using this program,
 the user acknowledges that Gaussian, Inc. is engaged in the
 business of creating and licensing software in the field of
 computational chemistry and represents and warrants to the
 licensee that it is not a competitor of Gaussian, Inc. and that
 it will not use this program in any manner prohibited above.
 ---------------------------------------------------------------
  

 Cite this work as:
 Gaussian 09, Revision D.01,
 M. J. Frisch, G. W. Trucks, H. B. Schlegel, G. E. Scuseria, 
 M. A. Robb, J. R. Cheeseman, G. Scalmani, V. Barone, B. Mennucci, 
 G. A. Petersson, H. Nakatsuji, M. Caricato, X. Li, H. P. Hratchian, 
 A. F. Izmaylov, J. Bloino, G. Zheng, J. L. Sonnenberg, M. Hada, 
 M. Ehara, K. Toyota, R. Fukuda, J. Hasegawa, M. Ishida, T. Nakajima, 
 Y. Honda, O. Kitao, H. Nakai, T. Vreven, J. A. Montgomery, Jr., 
 J. E. Peralta, F. Ogliaro, M. Bearpark, J. J. Heyd, E. Brothers, 
 K. N. Kudin, V. N. Staroverov, T. Keith, R. Kobayashi, J. Normand, 
 K. Raghavachari, A. Rendell, J. C. Burant, S. S. Iyengar, J. Tomasi, 
 M. Cossi, N. Rega, J. M. Millam, M. Klene, J. E. Knox, J. B. Cross, 
 V. Bakken, C. Adamo, J. Jaramillo, R. Gomperts, R. E. Stratmann, 
 O. Yazyev, A. J. Austin, R. Cammi, C. Pomelli, J. W. Ochterski, 
 R. L. Martin, K. Morokuma, V. G. Zakrzewski, G. A. Voth, 
 P. Salvador, J. J. Dannenberg, S. Dapprich, A. D. Daniels, 
 O. Farkas, J. B. Foresman, J. V. Ortiz, J. Cioslowski, 
 and D. J. Fox, Gaussian, Inc., Wallingford CT, 2013.
 
 ******************************************
 Gaussian 09:  ES64L-G09RevD.01 24-Apr-2013
                12-May-2021 
 ******************************************
 %chk=/home/unibas/boittier/RDKit_G2/L.pdb/SCAN_1_2_3_4_S_17_20.0/15_SCAN_1_2_3_4
 _F/L.pdb.chk
 %nproc=8
 Will use up to    8 processors via shared memory.
 %mem=16GB
 -----------------------------
 #p wB97XD/6-31+G Opt=ModRedun
 -----------------------------
 1/14=-1,18=120,19=15,26=3,38=1/1,3;
 2/9=110,12=2,17=6,18=5,40=1/2;
 3/5=1,6=6,7=10,11=2,16=1,25=1,30=1,71=1,74=-58/1,2,3;
 4//1;
 5/5=2,38=5/2;
 6/7=2,8=2,9=2,10=2,28=1/1;
 7//1,2,3,16;
 1/14=-1,18=20,19=15,26=3/3(2);
 2/9=110/2;
 99//99;
 2/9=110/2;
 3/5=1,6=6,7=10,11=2,16=1,25=1,30=1,71=1,74=-58/1,2,3;
 4/5=5,16=3,69=1/1;
 5/5=2,38=5/2;
 7//1,2,3,16;
 1/14=-1,18=20,19=15,26=3/3(-5);
 2/9=110/2;
 6/7=2,8=2,9=2,10=2,19=2,28=1/1;
 99/9=1/99;
 Leave Link    1 at Wed May 12 11:58:23 2021, MaxMem=  2147483648 cpu:         0.3
 (Enter /opt/cluster/programs/g09_d.01/g09/l101.exe)
 -----
 L.pdb
 -----
 Symbolic Z-matrix:
 Charge =  0 Multiplicity = 1
 C                     1.70655   0.17985  -0.19527 
 C                     0.59253  -0.42323   0.2505 
 C                    -0.71216   0.28266   0.29851 
 O                    -1.71297  -0.10643  -0.3245 
 H                    -0.74443   1.2436    0.84219 
 H                     2.62569  -0.37309  -0.36173 
 H                     1.73699   1.24593  -0.41083 
 H                     0.56397  -1.50071   0.40392 
 
 The following ModRedundant input section has been read:
 D       1       2       3       4 F                                           
 
 NAtoms=      8 NQM=        8 NQMF=       0 NMMI=      0 NMMIF=      0
                NMic=       0 NMicF=      0.
                    Isotopes and Nuclear Properties:
 (Nuclear quadrupole moments (NQMom) in fm**2, nuclear magnetic moments (NMagM)
  in nuclear magnetons)

  Atom         1           2           3           4           5           6           7           8
 IAtWgt=          12          12          12          16           1           1           1           1
 AtmWgt=  12.0000000  12.0000000  12.0000000  15.9949146   1.0078250   1.0078250   1.0078250   1.0078250
 NucSpn=           0           0           0           0           1           1           1           1
 AtZEff=   0.0000000   0.0000000   0.0000000   0.0000000   0.0000000   0.0000000   0.0000000   0.0000000
 NQMom=    0.0000000   0.0000000   0.0000000   0.0000000   0.0000000   0.0000000   0.0000000   0.0000000
 NMagM=    0.0000000   0.0000000   0.0000000   0.0000000   2.7928460   2.7928460   2.7928460   2.7928460
 AtZNuc=   6.0000000   6.0000000   6.0000000   8.0000000   1.0000000   1.0000000   1.0000000   1.0000000
 Leave Link  101 at Wed May 12 11:58:24 2021, MaxMem=  2147483648 cpu:         4.3
 (Enter /opt/cluster/programs/g09_d.01/g09/l103.exe)

 GradGradGradGradGradGradGradGradGradGradGradGradGradGradGradGradGradGrad
 Berny optimization.
 Initialization pass.
                           ----------------------------
                           !    Initial Parameters    !
                           ! (Angstroms and Degrees)  !
 --------------------------                            --------------------------
 ! Name  Definition              Value          Derivative Info.                !
 --------------------------------------------------------------------------------
 ! R1    R(1,2)                  1.3429         estimate D2E/DX2                !
 ! R2    R(1,6)                  1.0855         estimate D2E/DX2                !
 ! R3    R(1,7)                  1.0881         estimate D2E/DX2                !
 ! R4    R(2,3)                  1.4842         estimate D2E/DX2                !
 ! R5    R(2,8)                  1.0887         estimate D2E/DX2                !
 ! R6    R(3,4)                  1.2414         estimate D2E/DX2                !
 ! R7    R(3,5)                  1.1046         estimate D2E/DX2                !
 ! A1    A(2,1,6)              121.6393         estimate D2E/DX2                !
 ! A2    A(2,1,7)              121.9351         estimate D2E/DX2                !
 ! A3    A(6,1,7)              116.4254         estimate D2E/DX2                !
 ! A4    A(1,2,3)              121.7612         estimate D2E/DX2                !
 ! A5    A(1,2,8)              120.862          estimate D2E/DX2                !
 ! A6    A(3,2,8)              116.3003         estimate D2E/DX2                !
 ! A7    A(2,3,4)              122.9143         estimate D2E/DX2                !
 ! A8    A(2,3,5)              117.0888         estimate D2E/DX2                !
 ! A9    A(4,3,5)              119.7446         estimate D2E/DX2                !
 ! D1    D(6,1,2,3)           -171.2568         estimate D2E/DX2                !
 ! D2    D(6,1,2,8)             -3.5608         estimate D2E/DX2                !
 ! D3    D(7,1,2,3)              8.6129         estimate D2E/DX2                !
 ! D4    D(7,1,2,8)            176.3088         estimate D2E/DX2                !
 ! D5    D(1,2,3,4)            120.0011         Frozen                          !
 ! D6    D(1,2,3,5)            -54.2038         estimate D2E/DX2                !
 ! D7    D(8,2,3,4)            -48.2251         estimate D2E/DX2                !
 ! D8    D(8,2,3,5)            137.5699         estimate D2E/DX2                !
 --------------------------------------------------------------------------------
 Trust Radius=3.00D-01 FncErr=1.00D-07 GrdErr=1.00D-06
 Number of steps in this run=     34 maximum allowed number of steps=    100.
 GradGradGradGradGradGradGradGradGradGradGradGradGradGradGradGradGradGrad

 Leave Link  103 at Wed May 12 11:58:24 2021, MaxMem=  2147483648 cpu:         0.1
 (Enter /opt/cluster/programs/g09_d.01/g09/l202.exe)
                          Input orientation:                          
 ---------------------------------------------------------------------
 Center     Atomic      Atomic             Coordinates (Angstroms)
 Number     Number       Type             X           Y           Z
 ---------------------------------------------------------------------
      1          6           0        1.706554    0.179849   -0.195269
      2          6           0        0.592530   -0.423225    0.250504
      3          6           0       -0.712159    0.282659    0.298509
      4          8           0       -1.712971   -0.106429   -0.324502
      5          1           0       -0.744429    1.243603    0.842194
      6          1           0        2.625686   -0.373090   -0.361726
      7          1           0        1.736990    1.245928   -0.410832
      8          1           0        0.563969   -1.500710    0.403916
 ---------------------------------------------------------------------
                    Distance matrix (angstroms):
                    1          2          3          4          5
     1  C    0.000000
     2  C    1.342930   0.000000
     3  C    2.470741   1.484180   0.000000
     4  O    3.433920   2.397150   1.241433   0.000000
     5  H    2.866220   2.217177   1.104558   2.030231   0.000000
     6  H    1.085474   2.123926   3.465130   4.347003   3.926932
     7  H    1.088080   2.129137   2.725689   3.706555   2.779842
     8  H    2.118679   1.088726   2.195454   2.767502   3.071685
                    6          7          8
     6  H    0.000000
     7  H    1.847542   0.000000
     8  H    2.471520   3.095773   0.000000
 Stoichiometry    C3H4O
 Framework group  C1[X(C3H4O)]
 Deg. of freedom    18
 Full point group                 C1      NOp   1
 Largest Abelian subgroup         C1      NOp   1
 Largest concise Abelian subgroup C1      NOp   1
                         Standard orientation:                         
 ---------------------------------------------------------------------
 Center     Atomic      Atomic             Coordinates (Angstroms)
 Number     Number       Type             X           Y           Z
 ---------------------------------------------------------------------
      1          6           0        1.706554    0.179849   -0.195269
      2          6           0        0.592530   -0.423225    0.250504
      3          6           0       -0.712159    0.282659    0.298509
      4          8           0       -1.712971   -0.106429   -0.324502
      5          1           0       -0.744429    1.243603    0.842194
      6          1           0        2.625686   -0.373090   -0.361726
      7          1           0        1.736990    1.245928   -0.410832
      8          1           0        0.563969   -1.500710    0.403916
 ---------------------------------------------------------------------
 Rotational constants (GHZ):     35.3383973      4.6844062      4.5127424
 Leave Link  202 at Wed May 12 11:58:24 2021, MaxMem=  2147483648 cpu:         0.0
 (Enter /opt/cluster/programs/g09_d.01/g09/l301.exe)
 Standard basis: 6-31+G (6D, 7F)
 Ernie: Thresh=  0.10000D-02 Tol=  0.10000D-05 Strict=F.
 There are    60 symmetry adapted cartesian basis functions of A   symmetry.
 There are    60 symmetry adapted basis functions of A   symmetry.
    60 basis functions,   120 primitive gaussians,    60 cartesian basis functions
    15 alpha electrons       15 beta electrons
       nuclear repulsion energy       102.2709530324 Hartrees.
 IExCor= 4639 DFT=T Ex+Corr=wB97XD ExCW=0 ScaHFX=  1.000000
 ScaDFX=  1.000000  1.000000  1.000000  1.000000 ScalE2=  1.000000  1.000000
 IRadAn=      0 IRanWt=     -1 IRanGd=            0 ICorTp=0 IEmpDi=121
  HFx wShort=  0.000000 wLong=  0.200000 cFull=  0.222036 cShort=  0.000000 cLong=  0.777964
  DFx wShort=  0.000000 wLong=  0.200000 cFull=  0.000000 cShort=  0.000000 cLong=  1.000000
 NAtoms=    8 NActive=    8 NUniq=    8 SFac= 1.00D+00 NAtFMM=   60 NAOKFM=F Big=F
 Integral buffers will be    131072 words long.
 Raffenetti 2 integral format.
 Two-electron integral symmetry is turned on.
 R6Disp:  Grimme-D2 Dispersion energy=       -0.0018117678 Hartrees.
 Nuclear repulsion after empirical dispersion term =      102.2691412646 Hartrees.
 Leave Link  301 at Wed May 12 11:58:24 2021, MaxMem=  2147483648 cpu:         0.3
 (Enter /opt/cluster/programs/g09_d.01/g09/l302.exe)
 NPDir=0 NMtPBC=     1 NCelOv=     1 NCel=       1 NClECP=     1 NCelD=      1
         NCelK=      1 NCelE2=     1 NClLst=     1 CellRange=     0.0.
 One-electron integrals computed using PRISM.
 NBasis=    60 RedAO= T EigKep=  1.45D-04  NBF=    60
 NBsUse=    60 1.00D-06 EigRej= -1.00D+00 NBFU=    60
 Precomputing XC quadrature grid using
 IXCGrd= 4 IRadAn=           0 IRanWt=          -1 IRanGd=           0 AccXCQ= 0.00D+00.
 Generated NRdTot=       0 NPtTot=           0 NUsed=           0 NTot=          32
 NSgBfM=    60    60    60    60    60 MxSgAt=     8 MxSgA2=     8.
 Leave Link  302 at Wed May 12 11:58:24 2021, MaxMem=  2147483648 cpu:         0.8
 (Enter /opt/cluster/programs/g09_d.01/g09/l303.exe)
 DipDrv:  MaxL=1.
 Leave Link  303 at Wed May 12 11:58:24 2021, MaxMem=  2147483648 cpu:         0.2
 (Enter /opt/cluster/programs/g09_d.01/g09/l401.exe)
 ExpMin= 4.38D-02 ExpMax= 5.48D+03 ExpMxC= 8.25D+02 IAcc=2 IRadAn=         4 AccDes= 0.00D+00
 Harris functional with IExCor= 4639 and IRadAn=       4 diagonalized for initial guess.
 HarFok:  IExCor= 4639 AccDes= 0.00D+00 IRadAn=         4 IDoV= 1 UseB2=F ITyADJ=14
 ICtDFT=  3500011 ScaDFX=  1.000000  1.000000  1.000000  1.000000
 FoFCou: FMM=F IPFlag=           0 FMFlag=      100000 FMFlg1=           0
         NFxFlg=           0 DoJE=T BraDBF=F KetDBF=T FulRan=T
         wScrn=  0.000000 ICntrl=     500 IOpCl=  0 I1Cent=   200000004 NGrid=           0
         NMat0=    1 NMatS0=      1 NMatT0=    0 NMatD0=    1 NMtDS0=    0 NMtDT0=    0
 Petite list used in FoFCou.
 Harris En= -183.742835972508    
 JPrj=0 DoOrth=F DoCkMO=F.
 Leave Link  401 at Wed May 12 11:58:24 2021, MaxMem=  2147483648 cpu:         1.0
 (Enter /opt/cluster/programs/g09_d.01/g09/l502.exe)
 Closed shell SCF:
 Using DIIS extrapolation, IDIIS=  1040.
 Integral symmetry usage will be decided dynamically.
 Keep R1 ints in memory in canonical form, NReq=4262490.
 IVT=       30290 IEndB=       30290 NGot=  2147483648 MDV=  2144102629
 LenX=  2144102629 LenY=  2144098588
 Requested convergence on RMS density matrix=1.00D-08 within 128 cycles.
 Requested convergence on MAX density matrix=1.00D-06.
 Requested convergence on             energy=1.00D-06.
 No special actions if energy rises.
 FoFCou: FMM=F IPFlag=           0 FMFlag=           0 FMFlg1=           0
         NFxFlg=           0 DoJE=F BraDBF=F KetDBF=F FulRan=T
         wScrn=  0.000000 ICntrl=     600 IOpCl=  0 I1Cent=           0 NGrid=           0
         NMat0=    1 NMatS0=   1830 NMatT0=    0 NMatD0=    1 NMtDS0=    0 NMtDT0=    0
 Symmetry not used in FoFCou.

 Cycle   1  Pass 1  IDiag  1:
 E= -191.745449572608    
 DIIS: error= 2.88D-02 at cycle   1 NSaved=   1.
 NSaved= 1 IEnMin= 1 EnMin= -191.745449572608     IErMin= 1 ErrMin= 2.88D-02
 ErrMax= 2.88D-02  0.00D+00 EMaxC= 1.00D-01 BMatC= 7.40D-02 BMatP= 7.40D-02
 IDIUse=3 WtCom= 7.12D-01 WtEn= 2.88D-01
 Coeff-Com:  0.100D+01
 Coeff-En:   0.100D+01
 Coeff:      0.100D+01
 Gap=     0.411 Goal=   None    Shift=    0.000
 GapD=    0.411 DampG=2.000 DampE=0.500 DampFc=1.0000 IDamp=-1.
 RMSDP=1.03D-02 MaxDP=1.04D-01              OVMax= 8.28D-02

 Cycle   2  Pass 1  IDiag  1:
 E= -191.755521009142     Delta-E=       -0.010071436533 Rises=F Damp=F
 DIIS: error= 2.27D-02 at cycle   2 NSaved=   2.
 NSaved= 2 IEnMin= 2 EnMin= -191.755521009142     IErMin= 2 ErrMin= 2.27D-02
 ErrMax= 2.27D-02  0.00D+00 EMaxC= 1.00D-01 BMatC= 3.70D-02 BMatP= 7.40D-02
 IDIUse=3 WtCom= 7.73D-01 WtEn= 2.27D-01
 Coeff-Com:  0.395D+00 0.605D+00
 Coeff-En:   0.411D+00 0.589D+00
 Coeff:      0.399D+00 0.601D+00
 Gap=     0.398 Goal=   None    Shift=    0.000
 RMSDP=4.00D-03 MaxDP=5.56D-02 DE=-1.01D-02 OVMax= 7.70D-02

 Cycle   3  Pass 1  IDiag  1:
 E= -191.779726953617     Delta-E=       -0.024205944476 Rises=F Damp=F
 DIIS: error= 1.06D-02 at cycle   3 NSaved=   3.
 NSaved= 3 IEnMin= 3 EnMin= -191.779726953617     IErMin= 3 ErrMin= 1.06D-02
 ErrMax= 1.06D-02  0.00D+00 EMaxC= 1.00D-01 BMatC= 8.15D-03 BMatP= 3.70D-02
 IDIUse=3 WtCom= 8.94D-01 WtEn= 1.06D-01
 Coeff-Com:  0.644D-01 0.325D+00 0.611D+00
 Coeff-En:   0.000D+00 0.145D+00 0.855D+00
 Coeff:      0.575D-01 0.306D+00 0.637D+00
 Gap=     0.356 Goal=   None    Shift=    0.000
 RMSDP=1.73D-03 MaxDP=2.15D-02 DE=-2.42D-02 OVMax= 3.09D-02

 Cycle   4  Pass 1  IDiag  1:
 E= -191.785395411541     Delta-E=       -0.005668457923 Rises=F Damp=F
 DIIS: error= 2.80D-03 at cycle   4 NSaved=   4.
 NSaved= 4 IEnMin= 4 EnMin= -191.785395411541     IErMin= 4 ErrMin= 2.80D-03
 ErrMax= 2.80D-03  0.00D+00 EMaxC= 1.00D-01 BMatC= 8.37D-04 BMatP= 8.15D-03
 IDIUse=3 WtCom= 9.72D-01 WtEn= 2.80D-02
 Coeff-Com: -0.541D-02 0.847D-01 0.321D+00 0.600D+00
 Coeff-En:   0.000D+00 0.000D+00 0.451D-01 0.955D+00
 Coeff:     -0.526D-02 0.823D-01 0.313D+00 0.610D+00
 Gap=     0.353 Goal=   None    Shift=    0.000
 RMSDP=6.34D-04 MaxDP=5.65D-03 DE=-5.67D-03 OVMax= 8.47D-03

 Cycle   5  Pass 1  IDiag  1:
 E= -191.786102206504     Delta-E=       -0.000706794963 Rises=F Damp=F
 DIIS: error= 7.35D-04 at cycle   5 NSaved=   5.
 NSaved= 5 IEnMin= 5 EnMin= -191.786102206504     IErMin= 5 ErrMin= 7.35D-04
 ErrMax= 7.35D-04  0.00D+00 EMaxC= 1.00D-01 BMatC= 2.13D-05 BMatP= 8.37D-04
 IDIUse=3 WtCom= 9.93D-01 WtEn= 7.35D-03
 Coeff-Com: -0.467D-02 0.177D-01 0.977D-01 0.241D+00 0.649D+00
 Coeff-En:   0.000D+00 0.000D+00 0.000D+00 0.000D+00 0.100D+01
 Coeff:     -0.464D-02 0.176D-01 0.970D-01 0.239D+00 0.651D+00
 Gap=     0.353 Goal=   None    Shift=    0.000
 RMSDP=1.47D-04 MaxDP=1.68D-03 DE=-7.07D-04 OVMax= 2.65D-03

 Cycle   6  Pass 1  IDiag  1:
 E= -191.786126746521     Delta-E=       -0.000024540017 Rises=F Damp=F
 DIIS: error= 2.02D-04 at cycle   6 NSaved=   6.
 NSaved= 6 IEnMin= 6 EnMin= -191.786126746521     IErMin= 6 ErrMin= 2.02D-04
 ErrMax= 2.02D-04  0.00D+00 EMaxC= 1.00D-01 BMatC= 2.08D-06 BMatP= 2.13D-05
 IDIUse=3 WtCom= 9.98D-01 WtEn= 2.02D-03
 Coeff-Com: -0.130D-04-0.128D-01-0.356D-01-0.486D-01 0.186D+00 0.911D+00
 Coeff-En:   0.000D+00 0.000D+00 0.000D+00 0.000D+00 0.000D+00 0.100D+01
 Coeff:     -0.129D-04-0.127D-01-0.355D-01-0.485D-01 0.185D+00 0.911D+00
 Gap=     0.353 Goal=   None    Shift=    0.000
 RMSDP=1.18D-04 MaxDP=1.43D-03 DE=-2.45D-05 OVMax= 1.24D-03

 Cycle   7  Pass 1  IDiag  1:
 E= -191.786130980394     Delta-E=       -0.000004233873 Rises=F Damp=F
 DIIS: error= 6.09D-05 at cycle   7 NSaved=   7.
 NSaved= 7 IEnMin= 7 EnMin= -191.786130980394     IErMin= 7 ErrMin= 6.09D-05
 ErrMax= 6.09D-05  0.00D+00 EMaxC= 1.00D-01 BMatC= 1.36D-07 BMatP= 2.08D-06
 IDIUse=1 WtCom= 1.00D+00 WtEn= 0.00D+00
 Coeff-Com:  0.381D-03-0.462D-02-0.173D-01-0.290D-01 0.288D-02 0.225D+00
 Coeff-Com:  0.823D+00
 Coeff:      0.381D-03-0.462D-02-0.173D-01-0.290D-01 0.288D-02 0.225D+00
 Coeff:      0.823D+00
 Gap=     0.353 Goal=   None    Shift=    0.000
 RMSDP=2.08D-05 MaxDP=1.86D-04 DE=-4.23D-06 OVMax= 4.09D-04

 Cycle   8  Pass 1  IDiag  1:
 E= -191.786131383035     Delta-E=       -0.000000402641 Rises=F Damp=F
 DIIS: error= 3.30D-05 at cycle   8 NSaved=   8.
 NSaved= 8 IEnMin= 8 EnMin= -191.786131383035     IErMin= 8 ErrMin= 3.30D-05
 ErrMax= 3.30D-05  0.00D+00 EMaxC= 1.00D-01 BMatC= 1.60D-08 BMatP= 1.36D-07
 IDIUse=1 WtCom= 1.00D+00 WtEn= 0.00D+00
 Coeff-Com: -0.497D-04 0.228D-02 0.593D-02 0.937D-02-0.302D-01-0.160D+00
 Coeff-Com: -0.169D-01 0.119D+01
 Coeff:     -0.497D-04 0.228D-02 0.593D-02 0.937D-02-0.302D-01-0.160D+00
 Coeff:     -0.169D-01 0.119D+01
 Gap=     0.353 Goal=   None    Shift=    0.000
 RMSDP=1.17D-05 MaxDP=7.69D-05 DE=-4.03D-07 OVMax= 3.19D-04

 Cycle   9  Pass 1  IDiag  1:
 E= -191.786131481129     Delta-E=       -0.000000098094 Rises=F Damp=F
 DIIS: error= 1.01D-05 at cycle   9 NSaved=   9.
 NSaved= 9 IEnMin= 9 EnMin= -191.786131481129     IErMin= 9 ErrMin= 1.01D-05
 ErrMax= 1.01D-05  0.00D+00 EMaxC= 1.00D-01 BMatC= 1.12D-09 BMatP= 1.60D-08
 IDIUse=1 WtCom= 1.00D+00 WtEn= 0.00D+00
 Coeff-Com: -0.198D-04-0.797D-04 0.277D-03 0.647D-03 0.818D-02 0.175D-01
 Coeff-Com: -0.727D-01-0.260D+00 0.131D+01
 Coeff:     -0.198D-04-0.797D-04 0.277D-03 0.647D-03 0.818D-02 0.175D-01
 Coeff:     -0.727D-01-0.260D+00 0.131D+01
 Gap=     0.353 Goal=   None    Shift=    0.000
 RMSDP=4.43D-06 MaxDP=4.66D-05 DE=-9.81D-08 OVMax= 1.24D-04

 Cycle  10  Pass 1  IDiag  1:
 E= -191.786131491896     Delta-E=       -0.000000010767 Rises=F Damp=F
 DIIS: error= 3.25D-06 at cycle  10 NSaved=  10.
 NSaved=10 IEnMin=10 EnMin= -191.786131491896     IErMin=10 ErrMin= 3.25D-06
 ErrMax= 3.25D-06  0.00D+00 EMaxC= 1.00D-01 BMatC= 1.31D-10 BMatP= 1.12D-09
 IDIUse=1 WtCom= 1.00D+00 WtEn= 0.00D+00
 Coeff-Com:  0.107D-04-0.173D-03-0.637D-03-0.106D-02-0.407D-03 0.727D-02
 Coeff-Com:  0.303D-01-0.172D-02-0.541D+00 0.151D+01
 Coeff:      0.107D-04-0.173D-03-0.637D-03-0.106D-02-0.407D-03 0.727D-02
 Coeff:      0.303D-01-0.172D-02-0.541D+00 0.151D+01
 Gap=     0.353 Goal=   None    Shift=    0.000
 RMSDP=1.34D-06 MaxDP=1.28D-05 DE=-1.08D-08 OVMax= 5.45D-05

 Cycle  11  Pass 1  IDiag  1:
 E= -191.786131493360     Delta-E=       -0.000000001464 Rises=F Damp=F
 DIIS: error= 7.18D-07 at cycle  11 NSaved=  11.
 NSaved=11 IEnMin=11 EnMin= -191.786131493360     IErMin=11 ErrMin= 7.18D-07
 ErrMax= 7.18D-07  0.00D+00 EMaxC= 1.00D-01 BMatC= 1.31D-11 BMatP= 1.31D-10
 IDIUse=1 WtCom= 1.00D+00 WtEn= 0.00D+00
 Coeff-Com: -0.149D-05 0.508D-04 0.172D-03 0.210D-03-0.729D-03-0.384D-02
 Coeff-Com: -0.255D-02 0.233D-01 0.334D-01-0.419D+00 0.137D+01
 Coeff:     -0.149D-05 0.508D-04 0.172D-03 0.210D-03-0.729D-03-0.384D-02
 Coeff:     -0.255D-02 0.233D-01 0.334D-01-0.419D+00 0.137D+01
 Gap=     0.353 Goal=   None    Shift=    0.000
 RMSDP=5.31D-07 MaxDP=5.12D-06 DE=-1.46D-09 OVMax= 1.43D-05

 Cycle  12  Pass 1  IDiag  1:
 E= -191.786131493448     Delta-E=       -0.000000000088 Rises=F Damp=F
 DIIS: error= 9.48D-08 at cycle  12 NSaved=  12.
 NSaved=12 IEnMin=12 EnMin= -191.786131493448     IErMin=12 ErrMin= 9.48D-08
 ErrMax= 9.48D-08  0.00D+00 EMaxC= 1.00D-01 BMatC= 3.27D-13 BMatP= 1.31D-11
 IDIUse=1 WtCom= 1.00D+00 WtEn= 0.00D+00
 Coeff-Com: -0.175D-06-0.113D-05 0.216D-05 0.186D-04 0.144D-03 0.472D-03
 Coeff-Com: -0.773D-03-0.416D-02 0.183D-01 0.111D-01-0.274D+00 0.125D+01
 Coeff:     -0.175D-06-0.113D-05 0.216D-05 0.186D-04 0.144D-03 0.472D-03
 Coeff:     -0.773D-03-0.416D-02 0.183D-01 0.111D-01-0.274D+00 0.125D+01
 Gap=     0.353 Goal=   None    Shift=    0.000
 RMSDP=7.54D-08 MaxDP=6.72D-07 DE=-8.82D-11 OVMax= 1.42D-06

 Cycle  13  Pass 1  IDiag  1:
 E= -191.786131493451     Delta-E=       -0.000000000004 Rises=F Damp=F
 DIIS: error= 1.78D-08 at cycle  13 NSaved=  13.
 NSaved=13 IEnMin=13 EnMin= -191.786131493451     IErMin=13 ErrMin= 1.78D-08
 ErrMax= 1.78D-08  0.00D+00 EMaxC= 1.00D-01 BMatC= 1.47D-14 BMatP= 3.27D-13
 IDIUse=1 WtCom= 1.00D+00 WtEn= 0.00D+00
 Coeff-Com:  0.865D-07-0.170D-05-0.692D-05-0.948D-05-0.417D-05 0.925D-04
 Coeff-Com:  0.177D-03-0.279D-03-0.388D-02 0.149D-01-0.139D-01-0.184D+00
 Coeff-Com:  0.119D+01
 Coeff:      0.865D-07-0.170D-05-0.692D-05-0.948D-05-0.417D-05 0.925D-04
 Coeff:      0.177D-03-0.279D-03-0.388D-02 0.149D-01-0.139D-01-0.184D+00
 Coeff:      0.119D+01
 Gap=     0.353 Goal=   None    Shift=    0.000
 RMSDP=1.06D-08 MaxDP=1.05D-07 DE=-3.52D-12 OVMax= 1.19D-07

 Cycle  14  Pass 1  IDiag  1:
 E= -191.786131493451     Delta-E=        0.000000000000 Rises=F Damp=F
 DIIS: error= 2.79D-09 at cycle  14 NSaved=  14.
 NSaved=14 IEnMin=13 EnMin= -191.786131493451     IErMin=14 ErrMin= 2.79D-09
 ErrMax= 2.79D-09  0.00D+00 EMaxC= 1.00D-01 BMatC= 3.24D-16 BMatP= 1.47D-14
 IDIUse=1 WtCom= 1.00D+00 WtEn= 0.00D+00
 Coeff-Com: -0.502D-08 0.172D-06 0.480D-06 0.295D-06-0.525D-05-0.245D-04
 Coeff-Com:  0.396D-05 0.162D-03-0.237D-03-0.191D-02 0.110D-01-0.225D-01
 Coeff-Com: -0.126D+00 0.114D+01
 Coeff:     -0.502D-08 0.172D-06 0.480D-06 0.295D-06-0.525D-05-0.245D-04
 Coeff:      0.396D-05 0.162D-03-0.237D-03-0.191D-02 0.110D-01-0.225D-01
 Coeff:     -0.126D+00 0.114D+01
 Gap=     0.353 Goal=   None    Shift=    0.000
 RMSDP=1.84D-09 MaxDP=1.85D-08 DE= 2.27D-13 OVMax= 1.74D-08

 SCF Done:  E(RwB97XD) =  -191.786131493     A.U. after   14 cycles
            NFock= 14  Conv=0.18D-08     -V/T= 2.0061
 KE= 1.906296679426D+02 PE=-6.518911285097D+02 EE= 1.672061878090D+02
 Leave Link  502 at Wed May 12 11:58:25 2021, MaxMem=  2147483648 cpu:         9.3
 (Enter /opt/cluster/programs/g09_d.01/g09/l601.exe)
 Copying SCF densities to generalized density rwf, IOpCl= 0 IROHF=0.

 **********************************************************************

            Population analysis using the SCF density.

 **********************************************************************

 Orbital symmetries:
       Occupied  (A) (A) (A) (A) (A) (A) (A) (A) (A) (A) (A) (A)
                 (A) (A) (A)
       Virtual   (A) (A) (A) (A) (A) (A) (A) (A) (A) (A) (A) (A)
                 (A) (A) (A) (A) (A) (A) (A) (A) (A) (A) (A) (A)
                 (A) (A) (A) (A) (A) (A) (A) (A) (A) (A) (A) (A)
                 (A) (A) (A) (A) (A) (A) (A) (A) (A)
 The electronic state is 1-A.
 Alpha  occ. eigenvalues --  -19.29426 -10.41195 -10.33400 -10.33283  -1.17333
 Alpha  occ. eigenvalues --   -0.91431  -0.76026  -0.67758  -0.58864  -0.57177
 Alpha  occ. eigenvalues --   -0.53040  -0.49210  -0.47312  -0.37907  -0.35520
 Alpha virt. eigenvalues --   -0.00227   0.06313   0.07581   0.08840   0.08959
 Alpha virt. eigenvalues --    0.11166   0.12543   0.13047   0.14686   0.16317
 Alpha virt. eigenvalues --    0.17136   0.17807   0.19819   0.22686   0.27216
 Alpha virt. eigenvalues --    0.28131   0.28868   0.31064   0.32729   0.34482
 Alpha virt. eigenvalues --    0.36773   0.39901   0.42872   0.45686   0.50014
 Alpha virt. eigenvalues --    0.69671   0.71964   0.75055   0.79411   0.80404
 Alpha virt. eigenvalues --    0.84905   0.88250   0.92493   1.00709   1.05495
 Alpha virt. eigenvalues --    1.09633   1.12977   1.14551   1.23787   1.26799
 Alpha virt. eigenvalues --    1.33560   1.34415   1.38481   1.42900   1.88262
          Condensed to atoms (all electrons):
               1          2          3          4          5          6
     1  C    5.227040   0.374720   0.025472  -0.010640   0.029580   0.353612
     2  C    0.374720   5.420660   0.250828  -0.117196  -0.119909  -0.004955
     3  C    0.025472   0.250828   5.054761   0.281682   0.358213   0.007433
     4  O   -0.010640  -0.117196   0.281682   8.301151  -0.066419  -0.000479
     5  H    0.029580  -0.119909   0.358213  -0.066419   0.611251  -0.000072
     6  H    0.353612  -0.004955   0.007433  -0.000479  -0.000072   0.461350
     7  H    0.389588  -0.058952   0.010629   0.000454   0.000738  -0.022527
     8  H   -0.008969   0.352131  -0.017022  -0.002890   0.001489  -0.003922
               7          8
     1  C    0.389588  -0.008969
     2  C   -0.058952   0.352131
     3  C    0.010629  -0.017022
     4  O    0.000454  -0.002890
     5  H    0.000738   0.001489
     6  H   -0.022527  -0.003922
     7  H    0.473415   0.002500
     8  H    0.002500   0.440134
 Mulliken charges:
               1
     1  C   -0.380403
     2  C   -0.097328
     3  C    0.028004
     4  O   -0.385663
     5  H    0.185128
     6  H    0.209560
     7  H    0.204154
     8  H    0.236549
 Sum of Mulliken charges =   0.00000
 Mulliken charges with hydrogens summed into heavy atoms:
               1
     1  C    0.033311
     2  C    0.139220
     3  C    0.213132
     4  O   -0.385663
 Electronic spatial extent (au):  <R**2>=            296.1741
 Charge=              0.0000 electrons
 Dipole moment (field-independent basis, Debye):
    X=              3.0925    Y=              0.7117    Z=              1.1221  Tot=              3.3659
 Quadrupole moment (field-independent basis, Debye-Ang):
   XX=            -27.7013   YY=            -21.7660   ZZ=            -25.3305
   XY=             -1.1031   XZ=             -3.1260   YZ=             -0.5590
 Traceless Quadrupole moment (field-independent basis, Debye-Ang):
   XX=             -2.7687   YY=              3.1667   ZZ=             -0.3979
   XY=             -1.1031   XZ=             -3.1260   YZ=             -0.5590
 Octapole moment (field-independent basis, Debye-Ang**2):
  XXX=             13.7150  YYY=             -0.1987  ZZZ=             -0.7883  XYY=             -0.0589
  XXY=              0.3923  XXZ=              0.1651  XZZ=             -3.6302  YZZ=              0.6831
  YYZ=              0.6823  XYZ=             -0.5098
 Hexadecapole moment (field-independent basis, Debye-Ang**3):
 XXXX=           -294.8361 YYYY=            -50.9969 ZZZZ=            -42.4780 XXXY=             -3.5255
 XXXZ=            -10.8816 YYYX=             -0.3015 YYYZ=             -1.3758 ZZZX=              0.1185
 ZZZY=             -0.0072 XXYY=            -55.2620 XXZZ=            -58.0786 YYZZ=            -16.1377
 XXYZ=             -0.7682 YYXZ=             -1.2414 ZZXY=             -0.2857
 N-N= 1.022691412646D+02 E-N=-6.518911285361D+02  KE= 1.906296679426D+02
 No NMR shielding tensors so no spin-rotation constants.
 Leave Link  601 at Wed May 12 11:58:25 2021, MaxMem=  2147483648 cpu:         0.6
 (Enter /opt/cluster/programs/g09_d.01/g09/l701.exe)
 Compute integral first derivatives.
 ... and contract with generalized density number  0.
 R6Disp: Adding Grimme-D2 dispersion energy 1st derivatives to the gradient.
 Leave Link  701 at Wed May 12 11:58:25 2021, MaxMem=  2147483648 cpu:         0.6
 (Enter /opt/cluster/programs/g09_d.01/g09/l702.exe)
 L702 exits ... SP integral derivatives will be done elsewhere.
 Leave Link  702 at Wed May 12 11:58:25 2021, MaxMem=  2147483648 cpu:         0.2
 (Enter /opt/cluster/programs/g09_d.01/g09/l703.exe)
 Compute integral first derivatives, UseDBF=F ICtDFT=           0.
 Integral derivatives from FoFJK, PRISM(SPDF).
 Calling FoFJK, ICntrl=      2127 FMM=F ISym2X=0 I1Cent= 0 IOpClX= 0 NMat=1 NMatS=1 NMatT=0.
 FoFJK:  IHMeth= 1 ICntrl=    2127 DoSepK=T KAlg= 0 I1Cent=   0 FoldK=F
 IRaf=         1 NMat=   1 IRICut=       1 DoRegI=T DoRafI=F ISym2E= 0.
 FoFCou: FMM=F IPFlag=           0 FMFlag=      100000 FMFlg1=         800
         NFxFlg=           0 DoJE=F BraDBF=F KetDBF=F FulRan=T
         wScrn=  0.000000 ICntrl=    2527 IOpCl=  0 I1Cent=           0 NGrid=           0
         NMat0=    1 NMatS0=      1 NMatT0=    0 NMatD0=    1 NMtDS0=    0 NMtDT0=    0
 Symmetry not used in FoFCou.
 Leave Link  703 at Wed May 12 11:58:26 2021, MaxMem=  2147483648 cpu:         2.4
 (Enter /opt/cluster/programs/g09_d.01/g09/l716.exe)
 Dipole        = 1.21670276D+00 2.80005165D-01 4.41466126D-01
 ***** Axes restored to original set *****
 -------------------------------------------------------------------
 Center     Atomic                   Forces (Hartrees/Bohr)
 Number     Number              X              Y              Z
 -------------------------------------------------------------------
      1        6          -0.002963402    0.000370997    0.007866607
      2        6           0.000456085   -0.004239329   -0.009588310
      3        6          -0.002447181    0.006276824   -0.009036443
      4        8           0.006144704   -0.001349359    0.010515137
      5        1          -0.000274235   -0.001509611   -0.000666175
      6        1          -0.000712486    0.000016169    0.000480340
      7        1          -0.000435092   -0.000356747    0.000086393
      8        1           0.000231607    0.000791055    0.000342452
 -------------------------------------------------------------------
 Cartesian Forces:  Max     0.010515137 RMS     0.004391120
 Leave Link  716 at Wed May 12 11:58:26 2021, MaxMem=  2147483648 cpu:         0.2
 (Enter /opt/cluster/programs/g09_d.01/g09/l103.exe)

 GradGradGradGradGradGradGradGradGradGradGradGradGradGradGradGradGradGrad
 Berny optimization.
 FormGI is forming the generalized inverse of G from B-inverse, IUseBI=4.
 Internal  Forces:  Max     0.009807406 RMS     0.003419434
 Search for a local minimum.
 Step number   1 out of a maximum of   34
 All quantities printed in internal units (Hartrees-Bohrs-Radians)
 RMS Force = .25137D-02 SwitMx=.10000D-02 MixMth= 1
 Mixed Optimization -- RFO/linear search
 Second derivative matrix not updated -- first step.
 ITU=  0
     Eigenvalues ---    0.00997   0.01836   0.02844   0.02844   0.15776
     Eigenvalues ---    0.16000   0.16000   0.16000   0.22013   0.22051
     Eigenvalues ---    0.33183   0.34095   0.34960   0.35035   0.35341
     Eigenvalues ---    0.56553   0.864841000.000001000.000001000.00000
     Eigenvalues --- 1000.000001000.000001000.000001000.00000
 RFO step:  Lambda=-2.49133829D-04 EMin= 9.96830834D-03
 Linear search not attempted -- first point.
 Iteration  1 RMS(Cart)=  0.01088183 RMS(Int)=  0.00007446
 Iteration  2 RMS(Cart)=  0.00007283 RMS(Int)=  0.00001993
 Iteration  3 RMS(Cart)=  0.00000000 RMS(Int)=  0.00001993
 Iteration  1 RMS(Cart)=  0.00000094 RMS(Int)=  0.00000067
 ITry= 1 IFail=0 DXMaxC= 2.19D-02 DCOld= 1.00D+10 DXMaxT= 3.00D-01 DXLimC= 3.00D+00 Rises=F
 Variable       Old X    -DE/DX   Delta X   Delta X   Delta X     New X
                                 (Linear)    (Quad)   (Total)
    R1        2.53777  -0.00620   0.00000  -0.01095  -0.01095   2.52682
    R2        2.05125  -0.00069   0.00000  -0.00194  -0.00194   2.04931
    R3        2.05617  -0.00038   0.00000  -0.00108  -0.00108   2.05509
    R4        2.80469  -0.00136   0.00000  -0.00398  -0.00398   2.80071
    R5        2.05739  -0.00074   0.00000  -0.00212  -0.00212   2.05528
    R6        2.34597  -0.00981   0.00000  -0.01134  -0.01134   2.33463
    R7        2.08731  -0.00163   0.00000  -0.00492  -0.00492   2.08239
    A1        2.12301  -0.00033   0.00000  -0.00208  -0.00209   2.12092
    A2        2.12817  -0.00026   0.00000  -0.00159  -0.00160   2.12657
    A3        2.03201   0.00059   0.00000   0.00369   0.00368   2.03569
    A4        2.12513  -0.00112   0.00000  -0.00516  -0.00521   2.11992
    A5        2.10944   0.00119   0.00000   0.00353   0.00348   2.11292
    A6        2.02982   0.00063   0.00000   0.00514   0.00509   2.03491
    A7        2.14526  -0.00068   0.00000  -0.00381  -0.00383   2.14143
    A8        2.04358   0.00095   0.00000   0.00420   0.00418   2.04776
    A9        2.08994   0.00037   0.00000   0.00059   0.00057   2.09051
    D1       -2.98900  -0.00222   0.00000  -0.01806  -0.01806  -3.00706
    D2       -0.06215   0.00178   0.00000   0.00241   0.00240  -0.05974
    D3        0.15032  -0.00210   0.00000  -0.01356  -0.01356   0.13677
    D4        3.07717   0.00190   0.00000   0.00691   0.00691   3.08408
    D5        2.09441   0.00916   0.00000   0.00000   0.00000   2.09442
    D6       -0.94604   0.00176   0.00000  -0.01125  -0.01125  -0.95728
    D7       -0.84169   0.00525   0.00000  -0.01947  -0.01948  -0.86117
    D8        2.40105  -0.00215   0.00000  -0.03072  -0.03073   2.37032
         Item               Value     Threshold  Converged?
 Maximum Force            0.009807     0.000450     NO 
 RMS     Force            0.002514     0.000300     NO 
 Maximum Displacement     0.021857     0.001800     NO 
 RMS     Displacement     0.010900     0.001200     NO 
 Predicted change in Energy=-1.248170D-04
 Lowest energy point so far.  Saving SCF results.
 GradGradGradGradGradGradGradGradGradGradGradGradGradGradGradGradGradGrad

 Leave Link  103 at Wed May 12 11:58:26 2021, MaxMem=  2147483648 cpu:         0.0
 (Enter /opt/cluster/programs/g09_d.01/g09/l202.exe)
                          Input orientation:                          
 ---------------------------------------------------------------------
 Center     Atomic      Atomic             Coordinates (Angstroms)
 Number     Number       Type             X           Y           Z
 ---------------------------------------------------------------------
      1          6           0        1.700788    0.178383   -0.197913
      2          6           0        0.592440   -0.425240    0.243827
      3          6           0       -0.707193    0.285279    0.295430
      4          8           0       -1.702391   -0.097766   -0.328393
      5          1           0       -0.742156    1.236215    0.851129
      6          1           0        2.622552   -0.371537   -0.352725
      7          1           0        1.725424    1.243107   -0.417983
      8          1           0        0.566705   -1.499857    0.409424
 ---------------------------------------------------------------------
                    Distance matrix (angstroms):
                    1          2          3          4          5
     1  C    0.000000
     2  C    1.337135   0.000000
     3  C    2.460322   1.482075   0.000000
     4  O    3.416856   2.387661   1.235434   0.000000
     5  H    2.861376   2.215941   1.101955   2.023074   0.000000
     6  H    1.084448   2.116628   3.455244   4.333668   3.918595
     7  H    1.087509   2.122505   2.709985   3.681831   2.774823
     8  H    2.114590   1.087605   2.196023   2.767495   3.065014
                    6          7          8
     6  H    0.000000
     7  H    1.848289   0.000000
     8  H    2.465864   3.090483   0.000000
 Stoichiometry    C3H4O
 Framework group  C1[X(C3H4O)]
 Deg. of freedom    18
 Full point group                 C1      NOp   1
 RotChk:  IX=0 Diff= 8.85D-03
 Largest Abelian subgroup         C1      NOp   1
 Largest concise Abelian subgroup C1      NOp   1
                         Standard orientation:                         
 ---------------------------------------------------------------------
 Center     Atomic      Atomic             Coordinates (Angstroms)
 Number     Number       Type             X           Y           Z
 ---------------------------------------------------------------------
      1          6           0        1.697781    0.183315   -0.194631
      2          6           0        0.591666   -0.426388    0.244348
      3          6           0       -0.710361    0.279414    0.300142
      4          8           0       -1.704486   -0.103753   -0.325314
      5          1           0       -0.748353    1.227305    0.860823
      6          1           0        2.621356   -0.362640   -0.352654
      7          1           0        1.718704    1.249254   -0.409134
      8          1           0        0.569658   -1.501938    0.404327
 ---------------------------------------------------------------------
 Rotational constants (GHZ):     35.3744558      4.7252248      4.5516165
 Leave Link  202 at Wed May 12 11:58:26 2021, MaxMem=  2147483648 cpu:         0.0
 (Enter /opt/cluster/programs/g09_d.01/g09/l301.exe)
 Standard basis: 6-31+G (6D, 7F)
 Ernie: Thresh=  0.10000D-02 Tol=  0.10000D-05 Strict=F.
 There are    60 symmetry adapted cartesian basis functions of A   symmetry.
 There are    60 symmetry adapted basis functions of A   symmetry.
    60 basis functions,   120 primitive gaussians,    60 cartesian basis functions
    15 alpha electrons       15 beta electrons
       nuclear repulsion energy       102.6199228087 Hartrees.
 IExCor= 4639 DFT=T Ex+Corr=wB97XD ExCW=0 ScaHFX=  1.000000
 ScaDFX=  1.000000  1.000000  1.000000  1.000000 ScalE2=  1.000000  1.000000
 IRadAn=      0 IRanWt=     -1 IRanGd=            0 ICorTp=0 IEmpDi=121
  HFx wShort=  0.000000 wLong=  0.200000 cFull=  0.222036 cShort=  0.000000 cLong=  0.777964
  DFx wShort=  0.000000 wLong=  0.200000 cFull=  0.000000 cShort=  0.000000 cLong=  1.000000
 NAtoms=    8 NActive=    8 NUniq=    8 SFac= 1.00D+00 NAtFMM=   60 NAOKFM=F Big=F
 Integral buffers will be    131072 words long.
 Raffenetti 2 integral format.
 Two-electron integral symmetry is turned on.
 R6Disp:  Grimme-D2 Dispersion energy=       -0.0018116530 Hartrees.
 Nuclear repulsion after empirical dispersion term =      102.6181111557 Hartrees.
 Leave Link  301 at Wed May 12 11:58:26 2021, MaxMem=  2147483648 cpu:         0.3
 (Enter /opt/cluster/programs/g09_d.01/g09/l302.exe)
 NPDir=0 NMtPBC=     1 NCelOv=     1 NCel=       1 NClECP=     1 NCelD=      1
         NCelK=      1 NCelE2=     1 NClLst=     1 CellRange=     0.0.
 One-electron integrals computed using PRISM.
 NBasis=    60 RedAO= T EigKep=  1.42D-04  NBF=    60
 NBsUse=    60 1.00D-06 EigRej= -1.00D+00 NBFU=    60
 Precomputing XC quadrature grid using
 IXCGrd= 4 IRadAn=           0 IRanWt=          -1 IRanGd=           0 AccXCQ= 0.00D+00.
 Generated NRdTot=       0 NPtTot=           0 NUsed=           0 NTot=          32
 NSgBfM=    60    60    60    60    60 MxSgAt=     8 MxSgA2=     8.
 Leave Link  302 at Wed May 12 11:58:26 2021, MaxMem=  2147483648 cpu:         0.8
 (Enter /opt/cluster/programs/g09_d.01/g09/l303.exe)
 DipDrv:  MaxL=1.
 Leave Link  303 at Wed May 12 11:58:26 2021, MaxMem=  2147483648 cpu:         0.2
 (Enter /opt/cluster/programs/g09_d.01/g09/l401.exe)
 Initial guess from the checkpoint file:  "/home/unibas/boittier/RDKit_G2/L.pdb/SCAN_1_2_3_4_S_17_20.0/15_SCAN_1_2_3_4_F/L.pdb.chk"
 B after Tr=     0.000000    0.000000    0.000000
         Rot=    0.999992   -0.003914    0.000031   -0.000720 Ang=  -0.46 deg.
 Guess basis will be translated and rotated to current coordinates.
 JPrj=2 DoOrth=T DoCkMO=T.
 Generating alternative initial guess.
 ExpMin= 4.38D-02 ExpMax= 5.48D+03 ExpMxC= 8.25D+02 IAcc=2 IRadAn=         4 AccDes= 0.00D+00
 Harris functional with IExCor= 4639 and IRadAn=       4 diagonalized for initial guess.
 HarFok:  IExCor= 4639 AccDes= 0.00D+00 IRadAn=         4 IDoV= 1 UseB2=F ITyADJ=14
 ICtDFT=  3500011 ScaDFX=  1.000000  1.000000  1.000000  1.000000
 FoFCou: FMM=F IPFlag=           0 FMFlag=      100000 FMFlg1=           0
         NFxFlg=           0 DoJE=T BraDBF=F KetDBF=T FulRan=T
         wScrn=  0.000000 ICntrl=     500 IOpCl=  0 I1Cent=   200000004 NGrid=           0
         NMat0=    1 NMatS0=      1 NMatT0=    0 NMatD0=    1 NMtDS0=    0 NMtDT0=    0
 Petite list used in FoFCou.
 Harris En= -183.740402004109    
 Leave Link  401 at Wed May 12 11:58:26 2021, MaxMem=  2147483648 cpu:         1.4
 (Enter /opt/cluster/programs/g09_d.01/g09/l502.exe)
 Closed shell SCF:
 Using DIIS extrapolation, IDIIS=  1040.
 Integral symmetry usage will be decided dynamically.
 Keep R1 ints in memory in canonical form, NReq=4262490.
 IVT=       30290 IEndB=       30290 NGot=  2147483648 MDV=  2144102629
 LenX=  2144102629 LenY=  2144098588
 Requested convergence on RMS density matrix=1.00D-08 within 128 cycles.
 Requested convergence on MAX density matrix=1.00D-06.
 Requested convergence on             energy=1.00D-06.
 No special actions if energy rises.
 FoFCou: FMM=F IPFlag=           0 FMFlag=           0 FMFlg1=           0
         NFxFlg=           0 DoJE=F BraDBF=F KetDBF=F FulRan=T
         wScrn=  0.000000 ICntrl=     600 IOpCl=  0 I1Cent=           0 NGrid=           0
         NMat0=    1 NMatS0=   1830 NMatT0=    0 NMatD0=    1 NMtDS0=    0 NMtDT0=    0
 Symmetry not used in FoFCou.

 Cycle   1  Pass 1  IDiag  1:
 E= -191.786153101032    
 DIIS: error= 5.68D-04 at cycle   1 NSaved=   1.
 NSaved= 1 IEnMin= 1 EnMin= -191.786153101032     IErMin= 1 ErrMin= 5.68D-04
 ErrMax= 5.68D-04  0.00D+00 EMaxC= 1.00D-01 BMatC= 4.80D-05 BMatP= 4.80D-05
 IDIUse=3 WtCom= 9.94D-01 WtEn= 5.68D-03
 Coeff-Com:  0.100D+01
 Coeff-En:   0.100D+01
 Coeff:      0.100D+01
 Gap=     0.616 Goal=   None    Shift=    0.000
 RMSDP=2.38D-04 MaxDP=1.60D-03              OVMax= 3.19D-03

 Cycle   2  Pass 1  IDiag  1:
 E= -191.786238545473     Delta-E=       -0.000085444441 Rises=F Damp=F
 DIIS: error= 2.34D-04 at cycle   2 NSaved=   2.
 NSaved= 2 IEnMin= 2 EnMin= -191.786238545473     IErMin= 2 ErrMin= 2.34D-04
 ErrMax= 2.34D-04  0.00D+00 EMaxC= 1.00D-01 BMatC= 4.24D-06 BMatP= 4.80D-05
 IDIUse=3 WtCom= 9.98D-01 WtEn= 2.34D-03
 Coeff-Com:  0.178D-01 0.982D+00
 Coeff-En:   0.000D+00 0.100D+01
 Coeff:      0.177D-01 0.982D+00
 Gap=     0.355 Goal=   None    Shift=    0.000
 RMSDP=9.19D-05 MaxDP=7.48D-04 DE=-8.54D-05 OVMax= 1.30D-03

 Cycle   3  Pass 1  IDiag  1:
 E= -191.786246262825     Delta-E=       -0.000007717352 Rises=F Damp=F
 DIIS: error= 1.84D-04 at cycle   3 NSaved=   3.
 NSaved= 3 IEnMin= 3 EnMin= -191.786246262825     IErMin= 3 ErrMin= 1.84D-04
 ErrMax= 1.84D-04  0.00D+00 EMaxC= 1.00D-01 BMatC= 2.25D-06 BMatP= 4.24D-06
 IDIUse=3 WtCom= 9.98D-01 WtEn= 1.84D-03
 Coeff-Com: -0.690D-01 0.411D+00 0.658D+00
 Coeff-En:   0.000D+00 0.000D+00 0.100D+01
 Coeff:     -0.689D-01 0.410D+00 0.659D+00
 Gap=     0.354 Goal=   None    Shift=    0.000
 RMSDP=3.97D-05 MaxDP=4.07D-04 DE=-7.72D-06 OVMax= 6.49D-04

 Cycle   4  Pass 1  IDiag  1:
 E= -191.786248728762     Delta-E=       -0.000002465937 Rises=F Damp=F
 DIIS: error= 9.24D-05 at cycle   4 NSaved=   4.
 NSaved= 4 IEnMin= 4 EnMin= -191.786248728762     IErMin= 4 ErrMin= 9.24D-05
 ErrMax= 9.24D-05  0.00D+00 EMaxC= 1.00D-01 BMatC= 6.95D-07 BMatP= 2.25D-06
 IDIUse=1 WtCom= 1.00D+00 WtEn= 0.00D+00
 Coeff-Com: -0.460D-01 0.929D-01 0.379D+00 0.574D+00
 Coeff:     -0.460D-01 0.929D-01 0.379D+00 0.574D+00
 Gap=     0.354 Goal=   None    Shift=    0.000
 RMSDP=1.98D-05 MaxDP=2.39D-04 DE=-2.47D-06 OVMax= 3.35D-04

 Cycle   5  Pass 1  IDiag  1:
 E= -191.786249494739     Delta-E=       -0.000000765977 Rises=F Damp=F
 DIIS: error= 3.23D-05 at cycle   5 NSaved=   5.
 NSaved= 5 IEnMin= 5 EnMin= -191.786249494739     IErMin= 5 ErrMin= 3.23D-05
 ErrMax= 3.23D-05  0.00D+00 EMaxC= 1.00D-01 BMatC= 3.39D-08 BMatP= 6.95D-07
 IDIUse=1 WtCom= 1.00D+00 WtEn= 0.00D+00
 Coeff-Com:  0.132D-01-0.911D-01-0.111D+00 0.379D-01 0.115D+01
 Coeff:      0.132D-01-0.911D-01-0.111D+00 0.379D-01 0.115D+01
 Gap=     0.354 Goal=   None    Shift=    0.000
 RMSDP=1.55D-05 MaxDP=2.00D-04 DE=-7.66D-07 OVMax= 3.49D-04

 Cycle   6  Pass 1  IDiag  1:
 E= -191.786249667460     Delta-E=       -0.000000172722 Rises=F Damp=F
 DIIS: error= 1.55D-05 at cycle   6 NSaved=   6.
 NSaved= 6 IEnMin= 6 EnMin= -191.786249667460     IErMin= 6 ErrMin= 1.55D-05
 ErrMax= 1.55D-05  0.00D+00 EMaxC= 1.00D-01 BMatC= 3.04D-09 BMatP= 3.39D-08
 IDIUse=1 WtCom= 1.00D+00 WtEn= 0.00D+00
 Coeff-Com:  0.320D-02-0.848D-02-0.243D-01-0.473D-01 0.285D-01 0.105D+01
 Coeff:      0.320D-02-0.848D-02-0.243D-01-0.473D-01 0.285D-01 0.105D+01
 Gap=     0.354 Goal=   None    Shift=    0.000
 RMSDP=4.49D-06 MaxDP=3.68D-05 DE=-1.73D-07 OVMax= 1.41D-04

 Cycle   7  Pass 1  IDiag  1:
 E= -191.786249686501     Delta-E=       -0.000000019040 Rises=F Damp=F
 DIIS: error= 6.63D-06 at cycle   7 NSaved=   7.
 NSaved= 7 IEnMin= 7 EnMin= -191.786249686501     IErMin= 7 ErrMin= 6.63D-06
 ErrMax= 6.63D-06  0.00D+00 EMaxC= 1.00D-01 BMatC= 1.13D-09 BMatP= 3.04D-09
 IDIUse=1 WtCom= 1.00D+00 WtEn= 0.00D+00
 Coeff-Com: -0.147D-02 0.154D-01 0.137D-01-0.254D-01-0.229D+00 0.420D+00
 Coeff-Com:  0.807D+00
 Coeff:     -0.147D-02 0.154D-01 0.137D-01-0.254D-01-0.229D+00 0.420D+00
 Coeff:      0.807D+00
 Gap=     0.354 Goal=   None    Shift=    0.000
 RMSDP=2.00D-06 MaxDP=1.62D-05 DE=-1.90D-08 OVMax= 7.16D-05

 Cycle   8  Pass 1  IDiag  1:
 E= -191.786249691362     Delta-E=       -0.000000004862 Rises=F Damp=F
 DIIS: error= 2.98D-06 at cycle   8 NSaved=   8.
 NSaved= 8 IEnMin= 8 EnMin= -191.786249691362     IErMin= 8 ErrMin= 2.98D-06
 ErrMax= 2.98D-06  0.00D+00 EMaxC= 1.00D-01 BMatC= 1.62D-10 BMatP= 1.13D-09
 IDIUse=1 WtCom= 1.00D+00 WtEn= 0.00D+00
 Coeff-Com: -0.985D-03 0.443D-02 0.733D-02 0.917D-02-0.501D-01-0.160D+00
 Coeff-Com:  0.101D+00 0.109D+01
 Coeff:     -0.985D-03 0.443D-02 0.733D-02 0.917D-02-0.501D-01-0.160D+00
 Coeff:      0.101D+00 0.109D+01
 Gap=     0.354 Goal=   None    Shift=    0.000
 RMSDP=1.24D-06 MaxDP=9.73D-06 DE=-4.86D-09 OVMax= 4.34D-05

 Cycle   9  Pass 1  IDiag  1:
 E= -191.786249692457     Delta-E=       -0.000000001095 Rises=F Damp=F
 DIIS: error= 7.81D-07 at cycle   9 NSaved=   9.
 NSaved= 9 IEnMin= 9 EnMin= -191.786249692457     IErMin= 9 ErrMin= 7.81D-07
 ErrMax= 7.81D-07  0.00D+00 EMaxC= 1.00D-01 BMatC= 3.71D-11 BMatP= 1.62D-10
 IDIUse=1 WtCom= 1.00D+00 WtEn= 0.00D+00
 Coeff-Com:  0.346D-05-0.171D-02-0.412D-03 0.896D-02 0.310D-01-0.141D+00
 Coeff-Com: -0.136D+00 0.418D+00 0.820D+00
 Coeff:      0.346D-05-0.171D-02-0.412D-03 0.896D-02 0.310D-01-0.141D+00
 Coeff:     -0.136D+00 0.418D+00 0.820D+00
 Gap=     0.354 Goal=   None    Shift=    0.000
 RMSDP=4.45D-07 MaxDP=4.74D-06 DE=-1.09D-09 OVMax= 1.31D-05

 Cycle  10  Pass 1  IDiag  1:
 E= -191.786249692581     Delta-E=       -0.000000000124 Rises=F Damp=F
 DIIS: error= 2.22D-07 at cycle  10 NSaved=  10.
 NSaved=10 IEnMin=10 EnMin= -191.786249692581     IErMin=10 ErrMin= 2.22D-07
 ErrMax= 2.22D-07  0.00D+00 EMaxC= 1.00D-01 BMatC= 1.23D-12 BMatP= 3.71D-11
 IDIUse=1 WtCom= 1.00D+00 WtEn= 0.00D+00
 Coeff-Com:  0.989D-04-0.367D-03-0.713D-03-0.198D-02 0.401D-02 0.267D-01
 Coeff-Com: -0.540D-02-0.135D+00-0.727D-01 0.119D+01
 Coeff:      0.989D-04-0.367D-03-0.713D-03-0.198D-02 0.401D-02 0.267D-01
 Coeff:     -0.540D-02-0.135D+00-0.727D-01 0.119D+01
 Gap=     0.354 Goal=   None    Shift=    0.000
 RMSDP=1.31D-07 MaxDP=1.44D-06 DE=-1.24D-10 OVMax= 3.10D-06

 Cycle  11  Pass 1  IDiag  1:
 E= -191.786249692589     Delta-E=       -0.000000000008 Rises=F Damp=F
 DIIS: error= 4.26D-08 at cycle  11 NSaved=  11.
 NSaved=11 IEnMin=11 EnMin= -191.786249692589     IErMin=11 ErrMin= 4.26D-08
 ErrMax= 4.26D-08  0.00D+00 EMaxC= 1.00D-01 BMatC= 4.51D-14 BMatP= 1.23D-12
 IDIUse=1 WtCom= 1.00D+00 WtEn= 0.00D+00
 Coeff-Com: -0.171D-04 0.133D-03 0.117D-03 0.499D-04-0.200D-02 0.104D-02
 Coeff-Com:  0.556D-02 0.104D-01-0.288D-01-0.212D+00 0.123D+01
 Coeff:     -0.171D-04 0.133D-03 0.117D-03 0.499D-04-0.200D-02 0.104D-02
 Coeff:      0.556D-02 0.104D-01-0.288D-01-0.212D+00 0.123D+01
 Gap=     0.354 Goal=   None    Shift=    0.000
 RMSDP=2.48D-08 MaxDP=2.10D-07 DE=-7.84D-12 OVMax= 4.25D-07

 Cycle  12  Pass 1  IDiag  1:
 E= -191.786249692590     Delta-E=       -0.000000000002 Rises=F Damp=F
 DIIS: error= 6.02D-09 at cycle  12 NSaved=  12.
 NSaved=12 IEnMin=12 EnMin= -191.786249692590     IErMin=12 ErrMin= 6.02D-09
 ErrMax= 6.02D-09  0.00D+00 EMaxC= 1.00D-01 BMatC= 1.64D-15 BMatP= 4.51D-14
 IDIUse=1 WtCom= 1.00D+00 WtEn= 0.00D+00
 Coeff-Com:  0.146D-05-0.235D-04-0.135D-04 0.567D-04 0.419D-03-0.111D-02
 Coeff-Com: -0.164D-02 0.244D-02 0.869D-02 0.216D-01-0.347D+00 0.132D+01
 Coeff:      0.146D-05-0.235D-04-0.135D-04 0.567D-04 0.419D-03-0.111D-02
 Coeff:     -0.164D-02 0.244D-02 0.869D-02 0.216D-01-0.347D+00 0.132D+01
 Gap=     0.354 Goal=   None    Shift=    0.000
 RMSDP=4.96D-09 MaxDP=7.54D-08 DE=-1.71D-12 OVMax= 8.42D-08

 SCF Done:  E(RwB97XD) =  -191.786249693     A.U. after   12 cycles
            NFock= 12  Conv=0.50D-08     -V/T= 2.0058
 KE= 1.906817174901D+02 PE=-6.526299024292D+02 EE= 1.675438240908D+02
 Leave Link  502 at Wed May 12 11:58:27 2021, MaxMem=  2147483648 cpu:         8.1
 (Enter /opt/cluster/programs/g09_d.01/g09/l701.exe)
 Compute integral first derivatives.
 ... and contract with generalized density number  0.
 R6Disp: Adding Grimme-D2 dispersion energy 1st derivatives to the gradient.
 Leave Link  701 at Wed May 12 11:58:27 2021, MaxMem=  2147483648 cpu:         0.6
 (Enter /opt/cluster/programs/g09_d.01/g09/l702.exe)
 L702 exits ... SP integral derivatives will be done elsewhere.
 Leave Link  702 at Wed May 12 11:58:27 2021, MaxMem=  2147483648 cpu:         0.2
 (Enter /opt/cluster/programs/g09_d.01/g09/l703.exe)
 Compute integral first derivatives, UseDBF=F ICtDFT=           0.
 Integral derivatives from FoFJK, PRISM(SPDF).
 Calling FoFJK, ICntrl=      2127 FMM=F ISym2X=0 I1Cent= 0 IOpClX= 0 NMat=1 NMatS=1 NMatT=0.
 FoFJK:  IHMeth= 1 ICntrl=    2127 DoSepK=T KAlg= 0 I1Cent=   0 FoldK=F
 IRaf=         1 NMat=   1 IRICut=       1 DoRegI=T DoRafI=F ISym2E= 0.
 FoFCou: FMM=F IPFlag=           0 FMFlag=      100000 FMFlg1=         800
         NFxFlg=           0 DoJE=F BraDBF=F KetDBF=F FulRan=T
         wScrn=  0.000000 ICntrl=    2527 IOpCl=  0 I1Cent=           0 NGrid=           0
         NMat0=    1 NMatS0=      1 NMatT0=    0 NMatD0=    1 NMtDS0=    0 NMtDT0=    0
 Symmetry not used in FoFCou.
 Leave Link  703 at Wed May 12 11:58:28 2021, MaxMem=  2147483648 cpu:         2.4
 (Enter /opt/cluster/programs/g09_d.01/g09/l716.exe)
 Dipole        = 1.19902990D+00 2.73438460D-01 4.53163500D-01
 ***** Axes restored to original set *****
 -------------------------------------------------------------------
 Center     Atomic                   Forces (Hartrees/Bohr)
 Number     Number              X              Y              Z
 -------------------------------------------------------------------
      1        6           0.002127506    0.002324747    0.006084605
      2        6          -0.002511571   -0.005284800   -0.006344985
      3        6           0.001544890    0.006039342   -0.005535591
      4        8          -0.001424076   -0.003483767    0.005846971
      5        1           0.000280998    0.000230166    0.000025017
      6        1           0.000103087    0.000062137   -0.000194414
      7        1           0.000008694    0.000001054   -0.000053955
      8        1          -0.000129528    0.000111122    0.000172351
 -------------------------------------------------------------------
 Cartesian Forces:  Max     0.006344985 RMS     0.003159315
 Leave Link  716 at Wed May 12 11:58:28 2021, MaxMem=  2147483648 cpu:         0.2
 (Enter /opt/cluster/programs/g09_d.01/g09/l103.exe)

 GradGradGradGradGradGradGradGradGradGradGradGradGradGradGradGradGradGrad
 Berny optimization.
 Using GEDIIS/GDIIS optimizer.
 FormGI is forming the generalized inverse of G from B-inverse, IUseBI=4.
 Internal  Forces:  Max     0.008516455 RMS     0.002239286
 Search for a local minimum.
 Step number   2 out of a maximum of   34
 All quantities printed in internal units (Hartrees-Bohrs-Radians)
 RMS Force = .38226D-03 SwitMx=.10000D-02 MixMth= 2
 Mixed Optimization -- En-DIIS/RFO-DIIS
 Update second derivatives using D2CorX and points    1    2
 DE= -1.18D-04 DEPred=-1.25D-04 R= 9.47D-01
 TightC=F SS=  1.41D+00  RLast= 4.93D-02 DXNew= 5.0454D-01 1.4788D-01
 Trust test= 9.47D-01 RLast= 4.93D-02 DXMaxT set to 3.00D-01
 ITU=  1  0
 Use linear search instead of GDIIS.
     Eigenvalues ---    0.01039   0.01716   0.02838   0.02884   0.15824
     Eigenvalues ---    0.15957   0.16000   0.16215   0.21870   0.22664
     Eigenvalues ---    0.33126   0.34741   0.35012   0.35157   0.35642
     Eigenvalues ---    0.61373   0.794311000.000001000.000001000.00000
     Eigenvalues --- 1000.000001000.000001000.000001000.00000
 RFO step:  Lambda=-1.50271440D-05 EMin= 1.03948032D-02
 Quartic linear search produced a step of -0.05362.
 Iteration  1 RMS(Cart)=  0.00427739 RMS(Int)=  0.00003131
 Iteration  2 RMS(Cart)=  0.00002508 RMS(Int)=  0.00001549
 Iteration  3 RMS(Cart)=  0.00000000 RMS(Int)=  0.00001549
 Iteration  1 RMS(Cart)=  0.00000023 RMS(Int)=  0.00000017
 ITry= 1 IFail=0 DXMaxC= 1.06D-02 DCOld= 1.00D+10 DXMaxT= 3.00D-01 DXLimC= 3.00D+00 Rises=F
 Variable       Old X    -DE/DX   Delta X   Delta X   Delta X     New X
                                 (Linear)    (Quad)   (Total)
    R1        2.52682   0.00101   0.00059   0.00043   0.00102   2.52784
    R2        2.04931   0.00008   0.00010   0.00000   0.00011   2.04942
    R3        2.05509   0.00001   0.00006  -0.00009  -0.00003   2.05506
    R4        2.80071   0.00100   0.00021   0.00231   0.00252   2.80324
    R5        2.05528  -0.00008   0.00011  -0.00046  -0.00035   2.05493
    R6        2.33463  -0.00072   0.00061  -0.00208  -0.00148   2.33316
    R7        2.08239   0.00020   0.00026   0.00001   0.00028   2.08267
    A1        2.12092   0.00020   0.00011   0.00094   0.00104   2.12196
    A2        2.12657  -0.00008   0.00009  -0.00063  -0.00055   2.12603
    A3        2.03569  -0.00012  -0.00020  -0.00030  -0.00050   2.03519
    A4        2.11992   0.00025   0.00028   0.00005   0.00033   2.12025
    A5        2.11292   0.00071  -0.00019   0.00184   0.00164   2.11456
    A6        2.03491  -0.00039  -0.00027  -0.00028  -0.00056   2.03435
    A7        2.14143   0.00067   0.00021   0.00136   0.00152   2.14295
    A8        2.04776  -0.00034  -0.00022  -0.00269  -0.00296   2.04480
    A9        2.09051   0.00019  -0.00003   0.00004  -0.00004   2.09048
    D1       -3.00706  -0.00163   0.00097  -0.00182  -0.00085  -3.00791
    D2       -0.05974   0.00187  -0.00013   0.00819   0.00806  -0.05168
    D3        0.13677  -0.00179   0.00073  -0.00684  -0.00612   0.13065
    D4        3.08408   0.00171  -0.00037   0.00316   0.00279   3.08688
    D5        2.09442   0.00852   0.00000   0.00000   0.00000   2.09442
    D6       -0.95728   0.00189   0.00060   0.01675   0.01735  -0.93994
    D7       -0.86117   0.00505   0.00104  -0.00980  -0.00875  -0.86992
    D8        2.37032  -0.00158   0.00165   0.00695   0.00860   2.37891
         Item               Value     Threshold  Converged?
 Maximum Force            0.001006     0.000450     NO 
 RMS     Force            0.000382     0.000300     NO 
 Maximum Displacement     0.010584     0.001800     NO 
 RMS     Displacement     0.004280     0.001200     NO 
 Predicted change in Energy=-7.903731D-06
 Lowest energy point so far.  Saving SCF results.
 GradGradGradGradGradGradGradGradGradGradGradGradGradGradGradGradGradGrad

 Leave Link  103 at Wed May 12 11:58:28 2021, MaxMem=  2147483648 cpu:         0.0
 (Enter /opt/cluster/programs/g09_d.01/g09/l202.exe)
                          Input orientation:                          
 ---------------------------------------------------------------------
 Center     Atomic      Atomic             Coordinates (Angstroms)
 Number     Number       Type             X           Y           Z
 ---------------------------------------------------------------------
      1          6           0        1.700855    0.178710   -0.196198
      2          6           0        0.592068   -0.427827    0.242070
      3          6           0       -0.709047    0.282454    0.297760
      4          8           0       -1.704395   -0.095717   -0.327249
      5          1           0       -0.737306    1.238372    0.845528
      6          1           0        2.623490   -0.369120   -0.353611
      7          1           0        1.723279    1.243657   -0.415335
      8          1           0        0.567226   -1.501944    0.409828
 ---------------------------------------------------------------------
                    Distance matrix (angstroms):
                    1          2          3          4          5
     1  C    0.000000
     2  C    1.337676   0.000000
     3  C    2.462191   1.483409   0.000000
     4  O    3.418803   2.389176   1.234653   0.000000
     5  H    2.855294   2.215314   1.102102   2.022489   0.000000
     6  H    1.084505   2.117772   3.457547   4.336592   3.913683
     7  H    1.087491   2.122659   2.710835   3.681118   2.764829
     8  H    2.115887   1.087422   2.196704   2.771465   3.066100
                    6          7          8
     6  H    0.000000
     7  H    1.848037   0.000000
     8  H    2.468673   3.091226   0.000000
 Stoichiometry    C3H4O
 Framework group  C1[X(C3H4O)]
 Deg. of freedom    18
 Full point group                 C1      NOp   1
 RotChk:  IX=0 Diff= 3.11D-03
 Largest Abelian subgroup         C1      NOp   1
 Largest concise Abelian subgroup C1      NOp   1
                         Standard orientation:                         
 ---------------------------------------------------------------------
 Center     Atomic      Atomic             Coordinates (Angstroms)
 Number     Number       Type             X           Y           Z
 ---------------------------------------------------------------------
      1          6           0        1.698622    0.184963   -0.193108
      2          6           0        0.592256   -0.428932    0.241014
      3          6           0       -0.711475    0.276065    0.302393
      4          8           0       -1.705629   -0.101169   -0.325077
      5          1           0       -0.743098    1.227786    0.857240
      6          1           0        2.623234   -0.358245   -0.354879
      7          1           0        1.717003    1.251582   -0.404352
      8          1           0        0.571473   -1.504347    0.400814
 ---------------------------------------------------------------------
 Rotational constants (GHZ):     35.3987100      4.7209511      4.5461062
 Leave Link  202 at Wed May 12 11:58:28 2021, MaxMem=  2147483648 cpu:         0.0
 (Enter /opt/cluster/programs/g09_d.01/g09/l301.exe)
 Standard basis: 6-31+G (6D, 7F)
 Ernie: Thresh=  0.10000D-02 Tol=  0.10000D-05 Strict=F.
 There are    60 symmetry adapted cartesian basis functions of A   symmetry.
 There are    60 symmetry adapted basis functions of A   symmetry.
    60 basis functions,   120 primitive gaussians,    60 cartesian basis functions
    15 alpha electrons       15 beta electrons
       nuclear repulsion energy       102.5968010121 Hartrees.
 IExCor= 4639 DFT=T Ex+Corr=wB97XD ExCW=0 ScaHFX=  1.000000
 ScaDFX=  1.000000  1.000000  1.000000  1.000000 ScalE2=  1.000000  1.000000
 IRadAn=      0 IRanWt=     -1 IRanGd=            0 ICorTp=0 IEmpDi=121
  HFx wShort=  0.000000 wLong=  0.200000 cFull=  0.222036 cShort=  0.000000 cLong=  0.777964
  DFx wShort=  0.000000 wLong=  0.200000 cFull=  0.000000 cShort=  0.000000 cLong=  1.000000
 NAtoms=    8 NActive=    8 NUniq=    8 SFac= 1.00D+00 NAtFMM=   60 NAOKFM=F Big=F
 Integral buffers will be    131072 words long.
 Raffenetti 2 integral format.
 Two-electron integral symmetry is turned on.
 R6Disp:  Grimme-D2 Dispersion energy=       -0.0018132324 Hartrees.
 Nuclear repulsion after empirical dispersion term =      102.5949877797 Hartrees.
 Leave Link  301 at Wed May 12 11:58:28 2021, MaxMem=  2147483648 cpu:         0.3
 (Enter /opt/cluster/programs/g09_d.01/g09/l302.exe)
 NPDir=0 NMtPBC=     1 NCelOv=     1 NCel=       1 NClECP=     1 NCelD=      1
         NCelK=      1 NCelE2=     1 NClLst=     1 CellRange=     0.0.
 One-electron integrals computed using PRISM.
 NBasis=    60 RedAO= T EigKep=  1.42D-04  NBF=    60
 NBsUse=    60 1.00D-06 EigRej= -1.00D+00 NBFU=    60
 Precomputing XC quadrature grid using
 IXCGrd= 4 IRadAn=           0 IRanWt=          -1 IRanGd=           0 AccXCQ= 0.00D+00.
 Generated NRdTot=       0 NPtTot=           0 NUsed=           0 NTot=          32
 NSgBfM=    60    60    60    60    60 MxSgAt=     8 MxSgA2=     8.
 Leave Link  302 at Wed May 12 11:58:28 2021, MaxMem=  2147483648 cpu:         0.8
 (Enter /opt/cluster/programs/g09_d.01/g09/l303.exe)
 DipDrv:  MaxL=1.
 Leave Link  303 at Wed May 12 11:58:28 2021, MaxMem=  2147483648 cpu:         0.2
 (Enter /opt/cluster/programs/g09_d.01/g09/l401.exe)
 Initial guess from the checkpoint file:  "/home/unibas/boittier/RDKit_G2/L.pdb/SCAN_1_2_3_4_S_17_20.0/15_SCAN_1_2_3_4_F/L.pdb.chk"
 B after Tr=     0.000000    0.000000    0.000000
         Rot=    0.999998   -0.002050   -0.000103   -0.000009 Ang=  -0.24 deg.
 Guess basis will be translated and rotated to current coordinates.
 JPrj=2 DoOrth=T DoCkMO=T.
 Leave Link  401 at Wed May 12 11:58:28 2021, MaxMem=  2147483648 cpu:         0.6
 (Enter /opt/cluster/programs/g09_d.01/g09/l502.exe)
 Closed shell SCF:
 Using DIIS extrapolation, IDIIS=  1040.
 Integral symmetry usage will be decided dynamically.
 Keep R1 ints in memory in canonical form, NReq=4262490.
 IVT=       30290 IEndB=       30290 NGot=  2147483648 MDV=  2144102629
 LenX=  2144102629 LenY=  2144098588
 Requested convergence on RMS density matrix=1.00D-08 within 128 cycles.
 Requested convergence on MAX density matrix=1.00D-06.
 Requested convergence on             energy=1.00D-06.
 No special actions if energy rises.
 FoFCou: FMM=F IPFlag=           0 FMFlag=           0 FMFlg1=           0
         NFxFlg=           0 DoJE=F BraDBF=F KetDBF=F FulRan=T
         wScrn=  0.000000 ICntrl=     600 IOpCl=  0 I1Cent=           0 NGrid=           0
         NMat0=    1 NMatS0=   1830 NMatT0=    0 NMatD0=    1 NMtDS0=    0 NMtDT0=    0
 Symmetry not used in FoFCou.

 Cycle   1  Pass 1  IDiag  1:
 E= -191.786230158467    
 DIIS: error= 3.03D-04 at cycle   1 NSaved=   1.
 NSaved= 1 IEnMin= 1 EnMin= -191.786230158467     IErMin= 1 ErrMin= 3.03D-04
 ErrMax= 3.03D-04  0.00D+00 EMaxC= 1.00D-01 BMatC= 8.37D-06 BMatP= 8.37D-06
 IDIUse=3 WtCom= 9.97D-01 WtEn= 3.03D-03
 Coeff-Com:  0.100D+01
 Coeff-En:   0.100D+01
 Coeff:      0.100D+01
 Gap=     0.617 Goal=   None    Shift=    0.000
 RMSDP=1.33D-04 MaxDP=1.23D-03              OVMax= 1.35D-03

 Cycle   2  Pass 1  IDiag  1:
 E= -191.786246718900     Delta-E=       -0.000016560432 Rises=F Damp=F
 DIIS: error= 8.87D-05 at cycle   2 NSaved=   2.
 NSaved= 2 IEnMin= 2 EnMin= -191.786246718900     IErMin= 2 ErrMin= 8.87D-05
 ErrMax= 8.87D-05  0.00D+00 EMaxC= 1.00D-01 BMatC= 6.67D-07 BMatP= 8.37D-06
 IDIUse=1 WtCom= 1.00D+00 WtEn= 0.00D+00
 Coeff-Com: -0.911D-01 0.109D+01
 Coeff:     -0.911D-01 0.109D+01
 Gap=     0.354 Goal=   None    Shift=    0.000
 RMSDP=3.98D-05 MaxDP=3.72D-04 DE=-1.66D-05 OVMax= 7.87D-04

 Cycle   3  Pass 1  IDiag  1:
 E= -191.786247687424     Delta-E=       -0.000000968524 Rises=F Damp=F
 DIIS: error= 9.64D-05 at cycle   3 NSaved=   3.
 NSaved= 3 IEnMin= 3 EnMin= -191.786247687424     IErMin= 2 ErrMin= 8.87D-05
 ErrMax= 9.64D-05  0.00D+00 EMaxC= 1.00D-01 BMatC= 9.00D-07 BMatP= 6.67D-07
 IDIUse=1 WtCom= 1.00D+00 WtEn= 0.00D+00
 Coeff-Com: -0.124D+00 0.650D+00 0.474D+00
 Coeff:     -0.124D+00 0.650D+00 0.474D+00
 Gap=     0.354 Goal=   None    Shift=    0.000
 RMSDP=1.73D-05 MaxDP=2.23D-04 DE=-9.69D-07 OVMax= 2.58D-04

 Cycle   4  Pass 1  IDiag  1:
 E= -191.786248482246     Delta-E=       -0.000000794823 Rises=F Damp=F
 DIIS: error= 3.41D-05 at cycle   4 NSaved=   4.
 NSaved= 4 IEnMin= 4 EnMin= -191.786248482246     IErMin= 4 ErrMin= 3.41D-05
 ErrMax= 3.41D-05  0.00D+00 EMaxC= 1.00D-01 BMatC= 2.96D-08 BMatP= 6.67D-07
 IDIUse=1 WtCom= 1.00D+00 WtEn= 0.00D+00
 Coeff-Com: -0.574D-02-0.530D-01 0.868D-01 0.972D+00
 Coeff:     -0.574D-02-0.530D-01 0.868D-01 0.972D+00
 Gap=     0.354 Goal=   None    Shift=    0.000
 RMSDP=1.01D-05 MaxDP=9.53D-05 DE=-7.95D-07 OVMax= 2.90D-04

 Cycle   5  Pass 1  IDiag  1:
 E= -191.786248590699     Delta-E=       -0.000000108452 Rises=F Damp=F
 DIIS: error= 1.60D-05 at cycle   5 NSaved=   5.
 NSaved= 5 IEnMin= 5 EnMin= -191.786248590699     IErMin= 5 ErrMin= 1.60D-05
 ErrMax= 1.60D-05  0.00D+00 EMaxC= 1.00D-01 BMatC= 8.06D-09 BMatP= 2.96D-08
 IDIUse=1 WtCom= 1.00D+00 WtEn= 0.00D+00
 Coeff-Com:  0.188D-01-0.129D+00-0.495D-01 0.358D+00 0.802D+00
 Coeff:      0.188D-01-0.129D+00-0.495D-01 0.358D+00 0.802D+00
 Gap=     0.354 Goal=   None    Shift=    0.000
 RMSDP=4.83D-06 MaxDP=4.25D-05 DE=-1.08D-07 OVMax= 1.64D-04

 Cycle   6  Pass 1  IDiag  1:
 E= -191.786248623032     Delta-E=       -0.000000032333 Rises=F Damp=F
 DIIS: error= 9.53D-06 at cycle   6 NSaved=   6.
 NSaved= 6 IEnMin= 6 EnMin= -191.786248623032     IErMin= 6 ErrMin= 9.53D-06
 ErrMax= 9.53D-06  0.00D+00 EMaxC= 1.00D-01 BMatC= 1.38D-09 BMatP= 8.06D-09
 IDIUse=1 WtCom= 1.00D+00 WtEn= 0.00D+00
 Coeff-Com:  0.468D-02-0.865D-02-0.348D-01-0.176D+00 0.104D+00 0.111D+01
 Coeff:      0.468D-02-0.865D-02-0.348D-01-0.176D+00 0.104D+00 0.111D+01
 Gap=     0.354 Goal=   None    Shift=    0.000
 RMSDP=3.56D-06 MaxDP=3.05D-05 DE=-3.23D-08 OVMax= 1.28D-04

 Cycle   7  Pass 1  IDiag  1:
 E= -191.786248633257     Delta-E=       -0.000000010225 Rises=F Damp=F
 DIIS: error= 2.99D-06 at cycle   7 NSaved=   7.
 NSaved= 7 IEnMin= 7 EnMin= -191.786248633257     IErMin= 7 ErrMin= 2.99D-06
 ErrMax= 2.99D-06  0.00D+00 EMaxC= 1.00D-01 BMatC= 3.54D-10 BMatP= 1.38D-09
 IDIUse=1 WtCom= 1.00D+00 WtEn= 0.00D+00
 Coeff-Com: -0.214D-02 0.236D-01-0.380D-02-0.143D+00-0.122D+00 0.445D+00
 Coeff-Com:  0.802D+00
 Coeff:     -0.214D-02 0.236D-01-0.380D-02-0.143D+00-0.122D+00 0.445D+00
 Coeff:      0.802D+00
 Gap=     0.354 Goal=   None    Shift=    0.000
 RMSDP=1.23D-06 MaxDP=1.20D-05 DE=-1.02D-08 OVMax= 4.57D-05

 Cycle   8  Pass 1  IDiag  1:
 E= -191.786248634678     Delta-E=       -0.000000001422 Rises=F Damp=F
 DIIS: error= 1.01D-06 at cycle   8 NSaved=   8.
 NSaved= 8 IEnMin= 8 EnMin= -191.786248634678     IErMin= 8 ErrMin= 1.01D-06
 ErrMax= 1.01D-06  0.00D+00 EMaxC= 1.00D-01 BMatC= 2.09D-11 BMatP= 3.54D-10
 IDIUse=1 WtCom= 1.00D+00 WtEn= 0.00D+00
 Coeff-Com: -0.578D-03 0.759D-03 0.585D-02 0.269D-01-0.101D-01-0.187D+00
 Coeff-Com:  0.312D-02 0.116D+01
 Coeff:     -0.578D-03 0.759D-03 0.585D-02 0.269D-01-0.101D-01-0.187D+00
 Coeff:      0.312D-02 0.116D+01
 Gap=     0.354 Goal=   None    Shift=    0.000
 RMSDP=4.87D-07 MaxDP=4.80D-06 DE=-1.42D-09 OVMax= 1.59D-05

 Cycle   9  Pass 1  IDiag  1:
 E= -191.786248634810     Delta-E=       -0.000000000132 Rises=F Damp=F
 DIIS: error= 1.33D-07 at cycle   9 NSaved=   9.
 NSaved= 9 IEnMin= 9 EnMin= -191.786248634810     IErMin= 9 ErrMin= 1.33D-07
 ErrMax= 1.33D-07  0.00D+00 EMaxC= 1.00D-01 BMatC= 6.60D-13 BMatP= 2.09D-11
 IDIUse=1 WtCom= 1.00D+00 WtEn= 0.00D+00
 Coeff-Com:  0.123D-03-0.121D-02-0.662D-05 0.614D-02 0.639D-02-0.122D-01
 Coeff-Com: -0.484D-01-0.449D-01 0.109D+01
 Coeff:      0.123D-03-0.121D-02-0.662D-05 0.614D-02 0.639D-02-0.122D-01
 Coeff:     -0.484D-01-0.449D-01 0.109D+01
 Gap=     0.354 Goal=   None    Shift=    0.000
 RMSDP=7.87D-08 MaxDP=1.06D-06 DE=-1.32D-10 OVMax= 1.74D-06

 Cycle  10  Pass 1  IDiag  1:
 E= -191.786248634813     Delta-E=       -0.000000000003 Rises=F Damp=F
 DIIS: error= 3.10D-08 at cycle  10 NSaved=  10.
 NSaved=10 IEnMin=10 EnMin= -191.786248634813     IErMin=10 ErrMin= 3.10D-08
 ErrMax= 3.10D-08  0.00D+00 EMaxC= 1.00D-01 BMatC= 4.97D-14 BMatP= 6.60D-13
 IDIUse=1 WtCom= 1.00D+00 WtEn= 0.00D+00
 Coeff-Com:  0.523D-04-0.233D-03-0.345D-03-0.601D-03 0.172D-02 0.855D-02
 Coeff-Com: -0.821D-02-0.671D-01 0.149D+00 0.917D+00
 Coeff:      0.523D-04-0.233D-03-0.345D-03-0.601D-03 0.172D-02 0.855D-02
 Coeff:     -0.821D-02-0.671D-01 0.149D+00 0.917D+00
 Gap=     0.354 Goal=   None    Shift=    0.000
 RMSDP=1.65D-08 MaxDP=1.63D-07 DE=-2.73D-12 OVMax= 3.01D-07

 Cycle  11  Pass 1  IDiag  1:
 E= -191.786248634812     Delta-E=        0.000000000001 Rises=F Damp=F
 DIIS: error= 1.08D-08 at cycle  11 NSaved=  11.
 NSaved=11 IEnMin=10 EnMin= -191.786248634813     IErMin=11 ErrMin= 1.08D-08
 ErrMax= 1.08D-08  0.00D+00 EMaxC= 1.00D-01 BMatC= 5.53D-15 BMatP= 4.97D-14
 IDIUse=1 WtCom= 1.00D+00 WtEn= 0.00D+00
 Coeff-Com: -0.404D-05 0.770D-04-0.343D-04-0.701D-03-0.287D-03 0.225D-02
 Coeff-Com:  0.325D-02-0.439D-02-0.909D-01 0.142D+00 0.949D+00
 Coeff:     -0.404D-05 0.770D-04-0.343D-04-0.701D-03-0.287D-03 0.225D-02
 Coeff:      0.325D-02-0.439D-02-0.909D-01 0.142D+00 0.949D+00
 Gap=     0.354 Goal=   None    Shift=    0.000
 RMSDP=8.66D-09 MaxDP=9.24D-08 DE= 9.66D-13 OVMax= 1.09D-07

 SCF Done:  E(RwB97XD) =  -191.786248635     A.U. after   11 cycles
            NFock= 11  Conv=0.87D-08     -V/T= 2.0058
 KE= 1.906799407016D+02 PE=-6.525801618333D+02 EE= 1.675189847172D+02
 Leave Link  502 at Wed May 12 11:58:29 2021, MaxMem=  2147483648 cpu:         7.5
 (Enter /opt/cluster/programs/g09_d.01/g09/l701.exe)
 Compute integral first derivatives.
 ... and contract with generalized density number  0.
 R6Disp: Adding Grimme-D2 dispersion energy 1st derivatives to the gradient.
 Leave Link  701 at Wed May 12 11:58:29 2021, MaxMem=  2147483648 cpu:         0.6
 (Enter /opt/cluster/programs/g09_d.01/g09/l702.exe)
 L702 exits ... SP integral derivatives will be done elsewhere.
 Leave Link  702 at Wed May 12 11:58:29 2021, MaxMem=  2147483648 cpu:         0.2
 (Enter /opt/cluster/programs/g09_d.01/g09/l703.exe)
 Compute integral first derivatives, UseDBF=F ICtDFT=           0.
 Integral derivatives from FoFJK, PRISM(SPDF).
 Calling FoFJK, ICntrl=      2127 FMM=F ISym2X=0 I1Cent= 0 IOpClX= 0 NMat=1 NMatS=1 NMatT=0.
 FoFJK:  IHMeth= 1 ICntrl=    2127 DoSepK=T KAlg= 0 I1Cent=   0 FoldK=F
 IRaf=         1 NMat=   1 IRICut=       1 DoRegI=T DoRafI=F ISym2E= 0.
 FoFCou: FMM=F IPFlag=           0 FMFlag=      100000 FMFlg1=         800
         NFxFlg=           0 DoJE=F BraDBF=F KetDBF=F FulRan=T
         wScrn=  0.000000 ICntrl=    2527 IOpCl=  0 I1Cent=           0 NGrid=           0
         NMat0=    1 NMatS0=      1 NMatT0=    0 NMatD0=    1 NMtDS0=    0 NMtDT0=    0
 Symmetry not used in FoFCou.
 Leave Link  703 at Wed May 12 11:58:29 2021, MaxMem=  2147483648 cpu:         2.4
 (Enter /opt/cluster/programs/g09_d.01/g09/l716.exe)
 Dipole        = 1.19869647D+00 2.70166347D-01 4.52460415D-01
 ***** Axes restored to original set *****
 -------------------------------------------------------------------
 Center     Atomic                   Forces (Hartrees/Bohr)
 Number     Number              X              Y              Z
 -------------------------------------------------------------------
      1        6           0.001280572    0.001988135    0.005819124
      2        6          -0.002654939   -0.004995536   -0.005480265
      3        6           0.003661610    0.007380806   -0.006671761
      4        8          -0.002327732   -0.004282340    0.005833180
      5        1           0.000003895   -0.000096740    0.000591405
      6        1           0.000025947    0.000006572   -0.000030594
      7        1           0.000014755    0.000061328    0.000038041
      8        1          -0.000004107   -0.000062225   -0.000099131
 -------------------------------------------------------------------
 Cartesian Forces:  Max     0.007380806 RMS     0.003366817
 Leave Link  716 at Wed May 12 11:58:29 2021, MaxMem=  2147483648 cpu:         0.2
 (Enter /opt/cluster/programs/g09_d.01/g09/l103.exe)

 GradGradGradGradGradGradGradGradGradGradGradGradGradGradGradGradGradGrad
 Berny optimization.
 Using GEDIIS/GDIIS optimizer.
 FormGI is forming the generalized inverse of G from B-inverse, IUseBI=4.
 Internal  Forces:  Max     0.009046063 RMS     0.002356017
 Search for a local minimum.
 Step number   3 out of a maximum of   34
 All quantities printed in internal units (Hartrees-Bohrs-Radians)
 RMS Force = .22240D-03 SwitMx=.10000D-02 MixMth= 2
 Mixed Optimization -- En-DIIS/RFO-DIIS
 Swapping is turned off.
 Update second derivatives using D2CorX and points    1    2    3
 DE=  1.06D-06 DEPred=-7.90D-06 R=-1.34D-01
 Trust test=-1.34D-01 RLast= 2.43D-02 DXMaxT set to 1.50D-01
 ITU= -1  1  0
     Eigenvalues ---    0.01219   0.02762   0.02847   0.04665   0.14428
     Eigenvalues ---    0.15945   0.16049   0.16053   0.20357   0.22604
     Eigenvalues ---    0.31477   0.33490   0.34999   0.35093   0.35410
     Eigenvalues ---    0.60386   0.732601000.000001000.000001000.00000
     Eigenvalues --- 1000.000001000.000001000.000001000.00000
 En-DIIS/RFO-DIIS IScMMF=        0 using points:     3    2
 RFO step:  Lambda=-8.27133551D-06.
 NNeg= 0 NP= 2 Switch=  2.50D-03 Rises=F DC= -1.06D-06 SmlDif=  1.00D-05
 RMS Error=  0.8651297586D-03 NUsed= 2 EDIIS=F
 DidBck=T Rises=F RFO-DIIS coefs:    0.46798    0.53202
 Iteration  1 RMS(Cart)=  0.00417766 RMS(Int)=  0.00002742
 Iteration  2 RMS(Cart)=  0.00002485 RMS(Int)=  0.00000570
 Iteration  3 RMS(Cart)=  0.00000000 RMS(Int)=  0.00000570
 Iteration  1 RMS(Cart)=  0.00000118 RMS(Int)=  0.00000085
 Iteration  2 RMS(Cart)=  0.00000045 RMS(Int)=  0.00000094
 ITry= 1 IFail=0 DXMaxC= 1.22D-02 DCOld= 1.00D+10 DXMaxT= 1.50D-01 DXLimC= 3.00D+00 Rises=F
 Variable       Old X    -DE/DX   Delta X   Delta X   Delta X     New X
                                 (Linear)    (Quad)   (Total)
    R1        2.52784   0.00012  -0.00054   0.00083   0.00029   2.52813
    R2        2.04942   0.00002  -0.00006   0.00008   0.00002   2.04944
    R3        2.05506   0.00005   0.00002  -0.00001   0.00001   2.05507
    R4        2.80324   0.00026  -0.00134   0.00292   0.00157   2.80481
    R5        2.05493   0.00005   0.00018  -0.00039  -0.00020   2.05473
    R6        2.33316   0.00024   0.00079  -0.00185  -0.00106   2.33209
    R7        2.08267   0.00021  -0.00015   0.00041   0.00027   2.08294
    A1        2.12196   0.00003  -0.00056   0.00115   0.00059   2.12256
    A2        2.12603  -0.00002   0.00029  -0.00069  -0.00040   2.12563
    A3        2.03519  -0.00002   0.00027  -0.00047  -0.00020   2.03499
    A4        2.12025  -0.00010  -0.00017  -0.00058  -0.00074   2.11951
    A5        2.11456   0.00064  -0.00087   0.00159   0.00072   2.11528
    A6        2.03435  -0.00004   0.00030  -0.00055  -0.00025   2.03410
    A7        2.14295   0.00049  -0.00081   0.00254   0.00172   2.14467
    A8        2.04480  -0.00002   0.00158  -0.00287  -0.00131   2.04350
    A9        2.09048   0.00027   0.00002   0.00096   0.00096   2.09144
    D1       -3.00791  -0.00163   0.00045   0.00242   0.00287  -3.00504
    D2       -0.05168   0.00166  -0.00429   0.00539   0.00110  -0.05058
    D3        0.13065  -0.00160   0.00326  -0.00272   0.00054   0.13119
    D4        3.08688   0.00169  -0.00149   0.00026  -0.00123   3.08564
    D5        2.09442   0.00905   0.00000   0.00000   0.00000   2.09442
    D6       -0.93994   0.00112  -0.00923  -0.00686  -0.01610  -0.95603
    D7       -0.86992   0.00583   0.00466  -0.00305   0.00159  -0.86833
    D8        2.37891  -0.00210  -0.00457  -0.00993  -0.01450   2.36441
         Item               Value     Threshold  Converged?
 Maximum Force            0.000647     0.000450     NO 
 RMS     Force            0.000222     0.000300     YES
 Maximum Displacement     0.012160     0.001800     NO 
 RMS     Displacement     0.004183     0.001200     NO 
 Predicted change in Energy=-8.910217D-06
 GradGradGradGradGradGradGradGradGradGradGradGradGradGradGradGradGradGrad

 Leave Link  103 at Wed May 12 11:58:29 2021, MaxMem=  2147483648 cpu:         0.0
 (Enter /opt/cluster/programs/g09_d.01/g09/l202.exe)
                          Input orientation:                          
 ---------------------------------------------------------------------
 Center     Atomic      Atomic             Coordinates (Angstroms)
 Number     Number       Type             X           Y           Z
 ---------------------------------------------------------------------
      1          6           0        1.701821    0.178479   -0.196573
      2          6           0        0.592686   -0.427025    0.242708
[...]
 RMSDP=3.81D-08 MaxDP=3.67D-07 DE=-1.24D-11 OVMax= 9.94D-07

 Cycle  10  Pass 1  IDiag  1:
 E= -191.786256490554     Delta-E=       -0.000000000002 Rises=F Damp=F
 DIIS: error= 1.89D-08 at cycle  10 NSaved=  10.
 NSaved=10 IEnMin=10 EnMin= -191.786256490554     IErMin=10 ErrMin= 1.89D-08
 ErrMax= 1.89D-08  0.00D+00 EMaxC= 1.00D-01 BMatC= 1.30D-14 BMatP= 3.81D-13
 IDIUse=1 WtCom= 1.00D+00 WtEn= 0.00D+00
 Coeff-Com:  0.999D-04-0.321D-03-0.939D-03-0.114D-02 0.230D-02 0.226D-01
 Coeff-Com: -0.111D-01-0.119D+00-0.735D-01 0.118D+01
 Coeff:      0.999D-04-0.321D-03-0.939D-03-0.114D-02 0.230D-02 0.226D-01
 Coeff:     -0.111D-01-0.119D+00-0.735D-01 0.118D+01
 Gap=     0.355 Goal=   None    Shift=    0.000
 RMSDP=1.05D-08 MaxDP=8.75D-08 DE=-2.44D-12 OVMax= 1.69D-07

 Cycle  11  Pass 1  IDiag  1:
 E= -191.786256490553     Delta-E=        0.000000000001 Rises=F Damp=F
 DIIS: error= 2.96D-09 at cycle  11 NSaved=  11.
 NSaved=11 IEnMin=10 EnMin= -191.786256490554     IErMin=11 ErrMin= 2.96D-09
 ErrMax= 2.96D-09  0.00D+00 EMaxC= 1.00D-01 BMatC= 3.49D-16 BMatP= 1.30D-14
 IDIUse=1 WtCom= 1.00D+00 WtEn= 0.00D+00
 Coeff-Com: -0.122D-04 0.928D-04 0.718D-04-0.273D-03-0.886D-03 0.117D-02
 Coeff-Com:  0.339D-02 0.248D-02-0.201D-01-0.156D+00 0.117D+01
 Coeff:     -0.122D-04 0.928D-04 0.718D-04-0.273D-03-0.886D-03 0.117D-02
 Coeff:      0.339D-02 0.248D-02-0.201D-01-0.156D+00 0.117D+01
 Gap=     0.355 Goal=   None    Shift=    0.000
 RMSDP=3.47D-09 MaxDP=4.45D-08 DE= 9.66D-13 OVMax= 3.81D-08

 SCF Done:  E(RwB97XD) =  -191.786256491     A.U. after   11 cycles
            NFock= 11  Conv=0.35D-08     -V/T= 2.0058
 KE= 1.906777939958D+02 PE=-6.525404452343D+02 EE= 1.675004564105D+02
 Leave Link  502 at Wed May 12 11:58:34 2021, MaxMem=  2147483648 cpu:         7.5
 (Enter /opt/cluster/programs/g09_d.01/g09/l701.exe)
 Compute integral first derivatives.
 ... and contract with generalized density number  0.
 R6Disp: Adding Grimme-D2 dispersion energy 1st derivatives to the gradient.
 Leave Link  701 at Wed May 12 11:58:34 2021, MaxMem=  2147483648 cpu:         0.6
 (Enter /opt/cluster/programs/g09_d.01/g09/l702.exe)
 L702 exits ... SP integral derivatives will be done elsewhere.
 Leave Link  702 at Wed May 12 11:58:35 2021, MaxMem=  2147483648 cpu:         0.2
 (Enter /opt/cluster/programs/g09_d.01/g09/l703.exe)
 Compute integral first derivatives, UseDBF=F ICtDFT=           0.
 Integral derivatives from FoFJK, PRISM(SPDF).
 Calling FoFJK, ICntrl=      2127 FMM=F ISym2X=0 I1Cent= 0 IOpClX= 0 NMat=1 NMatS=1 NMatT=0.
 FoFJK:  IHMeth= 1 ICntrl=    2127 DoSepK=T KAlg= 0 I1Cent=   0 FoldK=F
 IRaf=         1 NMat=   1 IRICut=       1 DoRegI=T DoRafI=F ISym2E= 0.
 FoFCou: FMM=F IPFlag=           0 FMFlag=      100000 FMFlg1=         800
         NFxFlg=           0 DoJE=F BraDBF=F KetDBF=F FulRan=T
         wScrn=  0.000000 ICntrl=    2527 IOpCl=  0 I1Cent=           0 NGrid=           0
         NMat0=    1 NMatS0=      1 NMatT0=    0 NMatD0=    1 NMtDS0=    0 NMtDT0=    0
 Symmetry not used in FoFCou.
 Leave Link  703 at Wed May 12 11:58:35 2021, MaxMem=  2147483648 cpu:         2.4
 (Enter /opt/cluster/programs/g09_d.01/g09/l716.exe)
 Dipole        = 1.19816101D+00 2.69478631D-01 4.53456714D-01
 ***** Axes restored to original set *****
 -------------------------------------------------------------------
 Center     Atomic                   Forces (Hartrees/Bohr)
 Number     Number              X              Y              Z
 -------------------------------------------------------------------
      1        6           0.001277752    0.001953670    0.006025890
      2        6          -0.002786720   -0.004657195   -0.006279309
      3        6           0.003485778    0.006685505   -0.005194791
      4        8          -0.001982685   -0.003978580    0.005496685
      5        1           0.000009246    0.000008553    0.000007253
      6        1          -0.000004262   -0.000001779   -0.000014557
      7        1          -0.000005812    0.000000753   -0.000020541
      8        1           0.000006703   -0.000010927   -0.000020630
 -------------------------------------------------------------------
 Cartesian Forces:  Max     0.006685505 RMS     0.003191483
 Leave Link  716 at Wed May 12 11:58:35 2021, MaxMem=  2147483648 cpu:         0.2
 (Enter /opt/cluster/programs/g09_d.01/g09/l103.exe)

 GradGradGradGradGradGradGradGradGradGradGradGradGradGradGradGradGradGrad
 Berny optimization.
 Using GEDIIS/GDIIS optimizer.
 FormGI is forming the generalized inverse of G from B-inverse, IUseBI=4.
 Internal  Forces:  Max     0.008579579 RMS     0.002224730
 Search for a local minimum.
 Step number   5 out of a maximum of   34
 All quantities printed in internal units (Hartrees-Bohrs-Radians)
 RMS Force = .18292D-04 SwitMx=.10000D-02 MixMth= 2
 Mixed Optimization -- En-DIIS/RFO-DIIS
 Swapping is turned off.
 Update second derivatives using D2CorX and points    1    2    3    4    5
 DE= -1.25D-06 DEPred=-1.27D-06 R= 9.80D-01
 TightC=F SS=  1.41D+00  RLast= 7.18D-03 DXNew= 2.5227D-01 2.1550D-02
 Trust test= 9.80D-01 RLast= 7.18D-03 DXMaxT set to 1.50D-01
 ITU=  1  1 -1  1  0
     Eigenvalues ---    0.01376   0.02834   0.03718   0.05075   0.13755
     Eigenvalues ---    0.15899   0.16000   0.16098   0.21369   0.22768
     Eigenvalues ---    0.31972   0.33355   0.34976   0.35033   0.35373
     Eigenvalues ---    0.61417   0.793011000.000001000.000001000.00000
     Eigenvalues --- 1000.000001000.000001000.000001000.00000
 En-DIIS/RFO-DIIS IScMMF=        0 using points:     5    4    3    2
 RFO step:  Lambda=-3.77429354D-06.
 NNeg= 0 NP= 4 Switch=  2.50D-03 Rises=F DC= -1.06D-06 SmlDif=  1.00D-05
 RMS Error=  0.8783838689D-04 NUsed= 4 EDIIS=F
 DidBck=F Rises=F RFO-DIIS coefs:    0.93583    0.03105    0.01243    0.02068
 Iteration  1 RMS(Cart)=  0.00024479 RMS(Int)=  0.00000110
 Iteration  2 RMS(Cart)=  0.00000008 RMS(Int)=  0.00000109
 Iteration  1 RMS(Cart)=  0.00000087 RMS(Int)=  0.00000062
 ITry= 1 IFail=0 DXMaxC= 5.34D-04 DCOld= 1.00D+10 DXMaxT= 1.50D-01 DXLimC= 3.00D+00 Rises=F
 Variable       Old X    -DE/DX   Delta X   Delta X   Delta X     New X
                                 (Linear)    (Quad)   (Total)
    R1        2.52812  -0.00004  -0.00003  -0.00003  -0.00006   2.52806
    R2        2.04950   0.00000  -0.00001   0.00001   0.00000   2.04950
    R3        2.05518   0.00000  -0.00001   0.00002   0.00002   2.05520
    R4        2.80431  -0.00001  -0.00007   0.00001  -0.00006   2.80425
    R5        2.05503   0.00001  -0.00001   0.00004   0.00003   2.05506
    R6        2.33309   0.00004   0.00000   0.00009   0.00009   2.33318
    R7        2.08331   0.00001  -0.00004   0.00008   0.00004   2.08336
    A1        2.12235   0.00000  -0.00003   0.00002  -0.00001   2.12234
    A2        2.12583   0.00000   0.00001  -0.00001   0.00001   2.12583
    A3        2.03501   0.00000   0.00002  -0.00002   0.00000   2.03501
    A4        2.11949   0.00011   0.00002  -0.00020  -0.00018   2.11930
    A5        2.11487   0.00056  -0.00003   0.00000  -0.00003   2.11484
    A6        2.03431  -0.00014   0.00001   0.00012   0.00013   2.03444
    A7        2.14410   0.00019  -0.00005   0.00005   0.00000   2.14410
    A8        2.04362   0.00017   0.00010  -0.00016  -0.00006   2.04356
    A9        2.09167   0.00019  -0.00005   0.00009   0.00004   2.09171
    D1       -3.00730  -0.00169   0.00007   0.00047   0.00053  -3.00676
    D2       -0.05429   0.00171   0.00003  -0.00003   0.00000  -0.05429
    D3        0.13327  -0.00172  -0.00002  -0.00029  -0.00032   0.13295
    D4        3.08627   0.00168  -0.00006  -0.00079  -0.00085   3.08542
    D5        2.09442   0.00858   0.00000   0.00000   0.00000   2.09442
    D6       -0.95339   0.00167   0.00000   0.00020   0.00021  -0.95318
    D7       -0.86688   0.00526   0.00004   0.00049   0.00052  -0.86635
    D8        2.36851  -0.00165   0.00004   0.00069   0.00073   2.36924
         Item               Value     Threshold  Converged?
 Maximum Force            0.000045     0.000450     YES
 RMS     Force            0.000018     0.000300     YES
 Maximum Displacement     0.000534     0.001800     YES
 RMS     Displacement     0.000245     0.001200     YES
 Predicted change in Energy=-3.564410D-08
 Optimization completed.
    -- Stationary point found.
                           ----------------------------
                           !   Optimized Parameters   !
                           ! (Angstroms and Degrees)  !
 --------------------------                            --------------------------
 ! Name  Definition              Value          Derivative Info.                !
 --------------------------------------------------------------------------------
 ! R1    R(1,2)                  1.3378         -DE/DX =    0.0                 !
 ! R2    R(1,6)                  1.0845         -DE/DX =    0.0                 !
 ! R3    R(1,7)                  1.0876         -DE/DX =    0.0                 !
 ! R4    R(2,3)                  1.484          -DE/DX =    0.0                 !
 ! R5    R(2,8)                  1.0875         -DE/DX =    0.0                 !
 ! R6    R(3,4)                  1.2346         -DE/DX =    0.0                 !
 ! R7    R(3,5)                  1.1024         -DE/DX =    0.0                 !
 ! A1    A(2,1,6)              121.6016         -DE/DX =    0.0                 !
 ! A2    A(2,1,7)              121.8009         -DE/DX =    0.0                 !
 ! A3    A(6,1,7)              116.5975         -DE/DX =    0.0                 !
 ! A4    A(1,2,3)              121.4377         -DE/DX =    0.0001              !
 ! A5    A(1,2,8)              121.1731         -DE/DX =    0.0006              !
 ! A6    A(3,2,8)              116.5571         -DE/DX =   -0.0001              !
 ! A7    A(2,3,4)              122.8479         -DE/DX =    0.0002              !
 ! A8    A(2,3,5)              117.0907         -DE/DX =    0.0002              !
 ! A9    A(4,3,5)              119.844          -DE/DX =    0.0002              !
 ! D1    D(6,1,2,3)           -172.3054         -DE/DX =   -0.0017              !
 ! D2    D(6,1,2,8)             -3.1107         -DE/DX =    0.0017              !
 ! D3    D(7,1,2,3)              7.6357         -DE/DX =   -0.0017              !
 ! D4    D(7,1,2,8)            176.8303         -DE/DX =    0.0017              !
 ! D5    D(1,2,3,4)            120.0012         -DE/DX =    0.0086              !
 ! D6    D(1,2,3,5)            -54.625          -DE/DX =    0.0017              !
 ! D7    D(8,2,3,4)            -49.6684         -DE/DX =    0.0053              !
 ! D8    D(8,2,3,5)            135.7054         -DE/DX =   -0.0016              !
 --------------------------------------------------------------------------------
 Lowest energy point so far.  Saving SCF results.
 GradGradGradGradGradGradGradGradGradGradGradGradGradGradGradGradGradGrad

 Largest change from initial coordinates is atom    5       0.009 Angstoms.
 Leave Link  103 at Wed May 12 11:58:35 2021, MaxMem=  2147483648 cpu:         0.0
 (Enter /opt/cluster/programs/g09_d.01/g09/l202.exe)
                          Input orientation:                          
 ---------------------------------------------------------------------
 Center     Atomic      Atomic             Coordinates (Angstroms)
 Number     Number       Type             X           Y           Z
 ---------------------------------------------------------------------
      1          6           0        1.701356    0.178405   -0.197276
      2          6           0        0.592511   -0.427095    0.242730
      3          6           0       -0.708943    0.284021    0.294879
      4          8           0       -1.704689   -0.095123   -0.328838
      5          1           0       -0.739141    1.235702    0.850551
      6          1           0        2.624368   -0.369367   -0.352962
      7          1           0        1.723864    1.243107   -0.417917
      8          1           0        0.566844   -1.501065    0.411627
 ---------------------------------------------------------------------
                    Distance matrix (angstroms):
                    1          2          3          4          5
     1  C    0.000000
     2  C    1.337824   0.000000
     3  C    2.462298   1.483977   0.000000
     4  O    3.419542   2.390402   1.234619   0.000000
     5  H    2.858643   2.215319   1.102443   2.023447   0.000000
     6  H    1.084548   2.118165   3.457972   4.337802   3.916360
     7  H    1.087557   2.122732   2.710438   3.681545   2.770462
     8  H    2.116247   1.087472   2.197224   2.772151   3.064008
                    6          7          8
     6  H    0.000000
     7  H    1.848026   0.000000
     8  H    2.469563   3.091492   0.000000
 Stoichiometry    C3H4O
 Framework group  C1[X(C3H4O)]
 Deg. of freedom    18
 Full point group                 C1      NOp   1
 RotChk:  IX=0 Diff= 6.09D-16
 Largest Abelian subgroup         C1      NOp   1
 Largest concise Abelian subgroup C1      NOp   1
                         Standard orientation:                         
 ---------------------------------------------------------------------
 Center     Atomic      Atomic             Coordinates (Angstroms)
 Number     Number       Type             X           Y           Z
 ---------------------------------------------------------------------
      1          6           0        1.698892    0.184994   -0.193620
      2          6           0        0.592815   -0.428807    0.241829
      3          6           0       -0.711466    0.276551    0.301050
      4          8           0       -1.706110   -0.101169   -0.325284
      5          1           0       -0.745121    1.223221    0.865022
      6          1           0        2.624002   -0.357658   -0.354695
      7          1           0        1.716940    1.251662   -0.404980
      8          1           0        0.571611   -1.504304    0.401369
 ---------------------------------------------------------------------
 Rotational constants (GHZ):     35.3888355      4.7180499      4.5443373
 Leave Link  202 at Wed May 12 11:58:35 2021, MaxMem=  2147483648 cpu:         0.0
 (Enter /opt/cluster/programs/g09_d.01/g09/l601.exe)
 Copying SCF densities to generalized density rwf, IOpCl= 0 IROHF=0.

 **********************************************************************

            Population analysis using the SCF density.

 **********************************************************************

 Orbital symmetries:
       Occupied  (A) (A) (A) (A) (A) (A) (A) (A) (A) (A) (A) (A)
                 (A) (A) (A)
       Virtual   (A) (A) (A) (A) (A) (A) (A) (A) (A) (A) (A) (A)
                 (A) (A) (A) (A) (A) (A) (A) (A) (A) (A) (A) (A)
                 (A) (A) (A) (A) (A) (A) (A) (A) (A) (A) (A) (A)
                 (A) (A) (A) (A) (A) (A) (A) (A) (A)
 The electronic state is 1-A.
 Alpha  occ. eigenvalues --  -19.29401 -10.41097 -10.33245 -10.33106  -1.17733
 Alpha  occ. eigenvalues --   -0.91502  -0.75933  -0.67767  -0.59009  -0.57178
 Alpha  occ. eigenvalues --   -0.53161  -0.49226  -0.47433  -0.37959  -0.35482
 Alpha virt. eigenvalues --   -0.00026   0.06397   0.07589   0.08840   0.08984
 Alpha virt. eigenvalues --    0.11175   0.12575   0.13060   0.14685   0.16322
 Alpha virt. eigenvalues --    0.17166   0.17810   0.19789   0.22701   0.27327
 Alpha virt. eigenvalues --    0.28225   0.28952   0.31098   0.32798   0.34458
 Alpha virt. eigenvalues --    0.36891   0.39963   0.43157   0.45814   0.50186
 Alpha virt. eigenvalues --    0.69712   0.72022   0.75144   0.79659   0.80475
 Alpha virt. eigenvalues --    0.85089   0.88644   0.92369   1.00902   1.05552
 Alpha virt. eigenvalues --    1.09768   1.13149   1.14675   1.23753   1.26800
 Alpha virt. eigenvalues --    1.33580   1.34568   1.38507   1.43103   1.88274
          Condensed to atoms (all electrons):
               1          2          3          4          5          6
     1  C    5.228376   0.372667   0.024222  -0.009530   0.029686   0.354051
     2  C    0.372667   5.427543   0.250297  -0.119795  -0.122494  -0.005306
     3  C    0.024222   0.250297   5.059691   0.278112   0.360880   0.007498
     4  O   -0.009530  -0.119795   0.278112   8.305439  -0.067803  -0.000507
     5  H    0.029686  -0.122494   0.360880  -0.067803   0.613215  -0.000078
     6  H    0.354051  -0.005306   0.007498  -0.000507  -0.000078   0.461554
     7  H    0.390956  -0.060334   0.010610   0.000503   0.000751  -0.022324
     8  H   -0.009094   0.352214  -0.016335  -0.003103   0.001441  -0.003936
               7          8
     1  C    0.390956  -0.009094
     2  C   -0.060334   0.352214
     3  C    0.010610  -0.016335
     4  O    0.000503  -0.003103
     5  H    0.000751   0.001441
     6  H   -0.022324  -0.003936
     7  H    0.473412   0.002517
     8  H    0.002517   0.439241
 Mulliken charges:
               1
     1  C   -0.381335
     2  C   -0.094792
     3  C    0.025026
     4  O   -0.383314
     5  H    0.184402
     6  H    0.209048
     7  H    0.203910
     8  H    0.237055
 Sum of Mulliken charges =   0.00000
 Mulliken charges with hydrogens summed into heavy atoms:
               1
     1  C    0.031624
     2  C    0.142262
     3  C    0.209428
     4  O   -0.383314
 Electronic spatial extent (au):  <R**2>=            294.5861
 Charge=              0.0000 electrons
 Dipole moment (field-independent basis, Debye):
    X=              3.0454    Y=              0.6849    Z=              1.1526  Tot=              3.3275
 Quadrupole moment (field-independent basis, Debye-Ang):
   XX=            -27.6767   YY=            -21.7558   ZZ=            -25.3021
   XY=             -1.0697   XZ=             -3.0917   YZ=             -0.5740
 Traceless Quadrupole moment (field-independent basis, Debye-Ang):
   XX=             -2.7651   YY=              3.1557   ZZ=             -0.3906
   XY=             -1.0697   XZ=             -3.0917   YZ=             -0.5740
 Octapole moment (field-independent basis, Debye-Ang**2):
  XXX=             13.4208  YYY=             -0.2615  ZZZ=             -0.7038  XYY=             -0.0934
  XXY=              0.3371  XXZ=              0.2946  XZZ=             -3.6501  YZZ=              0.6964
  YYZ=              0.6892  XYZ=             -0.5142
 Hexadecapole moment (field-independent basis, Debye-Ang**3):
 XXXX=           -292.6533 YYYY=            -50.8976 ZZZZ=            -42.4276 XXXY=             -3.4487
 XXXZ=            -10.5780 YYYX=             -0.2991 YYYZ=             -1.4441 ZZZX=              0.1564
 ZZZY=             -0.0208 XXYY=            -54.9584 XXZZ=            -57.7492 YYZZ=            -16.1045
 XXYZ=             -0.7930 YYXZ=             -1.1725 ZZXY=             -0.3241
 N-N= 1.025759383374D+02 E-N=-6.525404452717D+02  KE= 1.906777939958D+02
 No NMR shielding tensors so no spin-rotation constants.
 Leave Link  601 at Wed May 12 11:58:35 2021, MaxMem=  2147483648 cpu:         0.6
 (Enter /opt/cluster/programs/g09_d.01/g09/l9999.exe)
 1\1\GINC-NODE21\FOpt\RwB97XD\6-31+G\C3H4O1\BOITTIER\12-May-2021\0\\#p 
 wB97XD/6-31+G Opt=ModRedun\\L.pdb\\0,1\C,1.7013556417,0.1784053677,-0.
 1972759617\C,0.5925105804,-0.4270953678,0.2427298715\C,-0.708942553,0.
 2840210854,0.294879419\O,-1.7046887986,-0.0951231234,-0.3288376913\H,-
 0.7391405825,1.2357023897,0.8505505003\H,2.6243678176,-0.3693672648,-0
 .3529617612\H,1.7238640342,1.2431071948,-0.4179174546\H,0.5668438602,-
 1.5010652816,0.411627078\\Version=ES64L-G09RevD.01\State=1-A\HF=-191.7
 862565\RMSD=3.472e-09\RMSF=3.191e-03\Dipole=1.198939,0.2685764,0.45193
 31\Quadrupole=-2.0590868,2.345071,-0.2859843,-0.7972255,-2.2946099,-0.
 4409666\PG=C01 [X(C3H4O1)]\\@


 Just remember, when you're over the hill, you begin to pick up speed.
 -- Charles Schulz
 Job cpu time:       0 days  0 hours  1 minutes 17.8 seconds.
 File lengths (MBytes):  RWF=      5 Int=      0 D2E=      0 Chk=      2 Scr=      1
 Normal termination of Gaussian 09 at Wed May 12 11:58:35 2021.
