 Entering Gaussian System, Link 0=/opt/cluster/programs/g09_d.01/g09//g09
 Input=/home/unibas/boittier/RDKit_G2/N.pdb/SCAN_1_2_6_8_S_17_20.0/15_SCAN_1_2_6_8_F/15_SCAN_N.pdb.com
 Output=/scratch/boittier/15_SCAN_N.pdb/15_SCAN_N.pdb.out
 Initial command:
 /opt/cluster/programs/g09_d.01/g09/l1.exe "/scratch/boittier/15_SCAN_N.pdb/Gau-146664.inp" -scrdir="/scratch/boittier/15_SCAN_N.pdb/"
 Entering Link 1 = /opt/cluster/programs/g09_d.01/g09/l1.exe PID=    146665.
  
 Copyright (c) 1988,1990,1992,1993,1995,1998,2003,2009,2013,
            Gaussian, Inc.  All Rights Reserved.
  
 This is part of the Gaussian(R) 09 program.  It is based on
 the Gaussian(R) 03 system (copyright 2003, Gaussian, Inc.),
 the Gaussian(R) 98 system (copyright 1998, Gaussian, Inc.),
 the Gaussian(R) 94 system (copyright 1995, Gaussian, Inc.),
 the Gaussian 92(TM) system (copyright 1992, Gaussian, Inc.),
 the Gaussian 90(TM) system (copyright 1990, Gaussian, Inc.),
 the Gaussian 88(TM) system (copyright 1988, Gaussian, Inc.),
 the Gaussian 86(TM) system (copyright 1986, Carnegie Mellon
 University), and the Gaussian 82(TM) system (copyright 1983,
 Carnegie Mellon University). Gaussian is a federally registered
 trademark of Gaussian, Inc.
  
 This software contains proprietary and confidential information,
 including trade secrets, belonging to Gaussian, Inc.
  
 This software is provided under written license and may be
 used, copied, transmitted, or stored only in accord with that
 written license.
  
 The following legend is applicable only to US Government
 contracts under FAR:
  
                    RESTRICTED RIGHTS LEGEND
  
 Use, reproduction and disclosure by the US Government is
 subject to restrictions as set forth in subparagraphs (a)
 and (c) of the Commercial Computer Software - Restricted
 Rights clause in FAR 52.227-19.
  
 Gaussian, Inc.
 340 Quinnipiac St., Bldg. 40, Wallingford CT 06492
  
  
 ---------------------------------------------------------------
 Warning -- This program may not be used in any manner that
 competes with the business of Gaussian, Inc. or will provide
 assistance to any competitor of Gaussian, Inc.  The licensee
 of this program is prohibited from giving any competitor of
 Gaussian, Inc. access to this program.  By using this program,
 the user acknowledges that Gaussian, Inc. is engaged in the
 business of creating and licensing software in the field of
 computational chemistry and represents and warrants to the
 licensee that it is not a competitor of Gaussian, Inc. and that
 it will not use this program in any manner prohibited above.
 ---------------------------------------------------------------
  

 Cite this work as:
 Gaussian 09, Revision D.01,
 M. J. Frisch, G. W. Trucks, H. B. Schlegel, G. E. Scuseria, 
 M. A. Robb, J. R. Cheeseman, G. Scalmani, V. Barone, B. Mennucci, 
 G. A. Petersson, H. Nakatsuji, M. Caricato, X. Li, H. P. Hratchian, 
 A. F. Izmaylov, J. Bloino, G. Zheng, J. L. Sonnenberg, M. Hada, 
 M. Ehara, K. Toyota, R. Fukuda, J. Hasegawa, M. Ishida, T. Nakajima, 
 Y. Honda, O. Kitao, H. Nakai, T. Vreven, J. A. Montgomery, Jr., 
 J. E. Peralta, F. Ogliaro, M. Bearpark, J. J. Heyd, E. Brothers, 
 K. N. Kudin, V. N. Staroverov, T. Keith, R. Kobayashi, J. Normand, 
 K. Raghavachari, A. Rendell, J. C. Burant, S. S. Iyengar, J. Tomasi, 
 M. Cossi, N. Rega, J. M. Millam, M. Klene, J. E. Knox, J. B. Cross, 
 V. Bakken, C. Adamo, J. Jaramillo, R. Gomperts, R. E. Stratmann, 
 O. Yazyev, A. J. Austin, R. Cammi, C. Pomelli, J. W. Ochterski, 
 R. L. Martin, K. Morokuma, V. G. Zakrzewski, G. A. Voth, 
 P. Salvador, J. J. Dannenberg, S. Dapprich, A. D. Daniels, 
 O. Farkas, J. B. Foresman, J. V. Ortiz, J. Cioslowski, 
 and D. J. Fox, Gaussian, Inc., Wallingford CT, 2013.
 
 ******************************************
 Gaussian 09:  ES64L-G09RevD.01 24-Apr-2013
                26-May-2021 
 ******************************************
 %chk=/home/unibas/boittier/RDKit_G2/N.pdb/SCAN_1_2_6_8_S_17_20.0/15_SCAN_1_2_6_8
 _F/N.pdb.chk
 %nproc=8
 Will use up to    8 processors via shared memory.
 %mem=16GB
 -----------------------------
 #p wB97XD/6-31+G Opt=ModRedun
 -----------------------------
 1/14=-1,18=120,19=15,26=3,38=1/1,3;
 2/9=110,12=2,17=6,18=5,40=1/2;
 3/5=1,6=6,7=10,11=2,16=1,25=1,30=1,71=1,74=-58/1,2,3;
 4//1;
 5/5=2,38=5/2;
 6/7=2,8=2,9=2,10=2,28=1/1;
 7//1,2,3,16;
 1/14=-1,18=20,19=15,26=3/3(2);
 2/9=110/2;
 99//99;
 2/9=110/2;
 3/5=1,6=6,7=10,11=2,16=1,25=1,30=1,71=1,74=-58/1,2,3;
 4/5=5,16=3,69=1/1;
 5/5=2,38=5/2;
 7//1,2,3,16;
 1/14=-1,18=20,19=15,26=3/3(-5);
 2/9=110/2;
 6/7=2,8=2,9=2,10=2,19=2,28=1/1;
 99/9=1/99;
 Leave Link    1 at Wed May 26 09:20:48 2021, MaxMem=  2147483648 cpu:         0.3
 (Enter /opt/cluster/programs/g09_d.01/g09/l101.exe)
 -----
 N.pdb
 -----
 Symbolic Z-matrix:
 Charge =  0 Multiplicity = 1
 C                     1.68314   1.26758   0.02358 
 C                     1.54972  -0.22687   0.0437 
 H                     1.08457   1.70438  -0.78231 
 H                     2.73255   1.5251   -0.12168 
 H                     1.32375   1.70114   0.96285 
 C                     0.18928  -0.89414   0.25952 
 O                     2.52585  -0.97457  -0.07163 
 C                    -1.04028  -0.07669   0.00142 
 H                     0.14466  -1.23872   1.29921 
 H                     0.14871  -1.78314  -0.37526 
 F                    -1.16889   1.00634   0.87004 
 F                    -2.18985  -0.84284   0.15626 
 F                    -1.07818   0.44412  -1.29064 
 
 The following ModRedundant input section has been read:
 D       1       2       6       8 F                                           
 
 NAtoms=     13 NQM=       13 NQMF=       0 NMMI=      0 NMMIF=      0
                NMic=       0 NMicF=      0.
                    Isotopes and Nuclear Properties:
 (Nuclear quadrupole moments (NQMom) in fm**2, nuclear magnetic moments (NMagM)
  in nuclear magnetons)

  Atom         1           2           3           4           5           6           7           8           9          10
 IAtWgt=          12          12           1           1           1          12          16          12           1           1
 AtmWgt=  12.0000000  12.0000000   1.0078250   1.0078250   1.0078250  12.0000000  15.9949146  12.0000000   1.0078250   1.0078250
 NucSpn=           0           0           1           1           1           0           0           0           1           1
 AtZEff=   0.0000000   0.0000000   0.0000000   0.0000000   0.0000000   0.0000000   0.0000000   0.0000000   0.0000000   0.0000000
 NQMom=    0.0000000   0.0000000   0.0000000   0.0000000   0.0000000   0.0000000   0.0000000   0.0000000   0.0000000   0.0000000
 NMagM=    0.0000000   0.0000000   2.7928460   2.7928460   2.7928460   0.0000000   0.0000000   0.0000000   2.7928460   2.7928460
 AtZNuc=   6.0000000   6.0000000   1.0000000   1.0000000   1.0000000   6.0000000   8.0000000   6.0000000   1.0000000   1.0000000

  Atom        11          12          13
 IAtWgt=          19          19          19
 AtmWgt=  18.9984033  18.9984033  18.9984033
 NucSpn=           1           1           1
 AtZEff=   0.0000000   0.0000000   0.0000000
 NQMom=    0.0000000   0.0000000   0.0000000
 NMagM=    2.6288670   2.6288670   2.6288670
 AtZNuc=   9.0000000   9.0000000   9.0000000
 Leave Link  101 at Wed May 26 09:20:48 2021, MaxMem=  2147483648 cpu:         4.2
 (Enter /opt/cluster/programs/g09_d.01/g09/l103.exe)

 GradGradGradGradGradGradGradGradGradGradGradGradGradGradGradGradGradGrad
 Berny optimization.
 Initialization pass.
                           ----------------------------
                           !    Initial Parameters    !
                           ! (Angstroms and Degrees)  !
 --------------------------                            --------------------------
 ! Name  Definition              Value          Derivative Info.                !
 --------------------------------------------------------------------------------
 ! R1    R(1,2)                  1.5005         estimate D2E/DX2                !
 ! R2    R(1,3)                  1.0948         estimate D2E/DX2                !
 ! R3    R(1,4)                  1.0903         estimate D2E/DX2                !
 ! R4    R(1,5)                  1.0951         estimate D2E/DX2                !
 ! R5    R(2,6)                  1.5306         estimate D2E/DX2                !
 ! R6    R(2,7)                  1.235          estimate D2E/DX2                !
 ! R7    R(6,8)                  1.4989         estimate D2E/DX2                !
 ! R8    R(6,9)                  1.0962         estimate D2E/DX2                !
 ! R9    R(6,10)                 1.0931         estimate D2E/DX2                !
 ! R10   R(8,11)                 1.3943         estimate D2E/DX2                !
 ! R11   R(8,12)                 1.3901         estimate D2E/DX2                !
 ! R12   R(8,13)                 1.3936         estimate D2E/DX2                !
 ! A1    A(2,1,3)              111.0159         estimate D2E/DX2                !
 ! A2    A(2,1,4)              108.8208         estimate D2E/DX2                !
 ! A3    A(2,1,5)              110.7085         estimate D2E/DX2                !
 ! A4    A(3,1,4)              109.5081         estimate D2E/DX2                !
 ! A5    A(3,1,5)              107.0955         estimate D2E/DX2                !
 ! A6    A(4,1,5)              109.6714         estimate D2E/DX2                !
 ! A7    A(1,2,6)              121.0054         estimate D2E/DX2                !
 ! A8    A(1,2,7)              122.1035         estimate D2E/DX2                !
 ! A9    A(6,2,7)              116.8571         estimate D2E/DX2                !
 ! A10   A(2,6,8)              117.8455         estimate D2E/DX2                !
 ! A11   A(2,6,9)              107.8756         estimate D2E/DX2                !
 ! A12   A(2,6,10)             107.7974         estimate D2E/DX2                !
 ! A13   A(8,6,9)              107.5398         estimate D2E/DX2                !
 ! A14   A(8,6,10)             108.2459         estimate D2E/DX2                !
 ! A15   A(9,6,10)             107.0747         estimate D2E/DX2                !
 ! A16   A(6,8,11)             113.0802         estimate D2E/DX2                !
 ! A17   A(6,8,12)             111.0144         estimate D2E/DX2                !
 ! A18   A(6,8,13)             112.6921         estimate D2E/DX2                !
 ! A19   A(11,8,12)            106.4051         estimate D2E/DX2                !
 ! A20   A(11,8,13)            106.5469         estimate D2E/DX2                !
 ! A21   A(12,8,13)            106.6638         estimate D2E/DX2                !
 ! D1    D(3,1,2,6)            -60.5843         estimate D2E/DX2                !
 ! D2    D(3,1,2,7)            121.6027         estimate D2E/DX2                !
 ! D3    D(4,1,2,6)            178.8261         estimate D2E/DX2                !
 ! D4    D(4,1,2,7)              1.0131         estimate D2E/DX2                !
 ! D5    D(5,1,2,6)             58.2253         estimate D2E/DX2                !
 ! D6    D(5,1,2,7)           -119.5877         estimate D2E/DX2                !
 ! D7    D(1,2,6,8)             19.7833         Frozen                          !
 ! D8    D(1,2,6,9)           -102.1205         estimate D2E/DX2                !
 ! D9    D(1,2,6,10)           142.5672         estimate D2E/DX2                !
 ! D10   D(7,2,6,8)           -162.2932         estimate D2E/DX2                !
 ! D11   D(7,2,6,9)             75.803          estimate D2E/DX2                !
 ! D12   D(7,2,6,10)           -39.5094         estimate D2E/DX2                !
 ! D13   D(2,6,8,11)           -64.3656         estimate D2E/DX2                !
 ! D14   D(2,6,8,12)           176.1246         estimate D2E/DX2                !
 ! D15   D(2,6,8,13)            56.5476         estimate D2E/DX2                !
 ! D16   D(9,6,8,11)            57.7099         estimate D2E/DX2                !
 ! D17   D(9,6,8,12)           -61.7999         estimate D2E/DX2                !
 ! D18   D(9,6,8,13)           178.6231         estimate D2E/DX2                !
 ! D19   D(10,6,8,11)          173.0781         estimate D2E/DX2                !
 ! D20   D(10,6,8,12)           53.5683         estimate D2E/DX2                !
 ! D21   D(10,6,8,13)          -66.0087         estimate D2E/DX2                !
 --------------------------------------------------------------------------------
 Trust Radius=3.00D-01 FncErr=1.00D-07 GrdErr=1.00D-06
 Number of steps in this run=     64 maximum allowed number of steps=    100.
 GradGradGradGradGradGradGradGradGradGradGradGradGradGradGradGradGradGrad

 Leave Link  103 at Wed May 26 09:20:48 2021, MaxMem=  2147483648 cpu:         0.1
 (Enter /opt/cluster/programs/g09_d.01/g09/l202.exe)
                          Input orientation:                          
 ---------------------------------------------------------------------
 Center     Atomic      Atomic             Coordinates (Angstroms)
 Number     Number       Type             X           Y           Z
 ---------------------------------------------------------------------
      1          6           0        1.683137    1.267576    0.023584
      2          6           0        1.549720   -0.226872    0.043700
      3          1           0        1.084569    1.704382   -0.782312
      4          1           0        2.732548    1.525095   -0.121678
      5          1           0        1.323752    1.701136    0.962846
      6          6           0        0.189277   -0.894144    0.259524
      7          8           0        2.525853   -0.974574   -0.071633
      8          6           0       -1.040278   -0.076689    0.001415
      9          1           0        0.144664   -1.238723    1.299212
     10          1           0        0.148713   -1.783142   -0.375263
     11          9           0       -1.168889    1.006339    0.870035
     12          9           0       -2.189848   -0.842836    0.156263
     13          9           0       -1.078175    0.444122   -1.290640
 ---------------------------------------------------------------------
                    Distance matrix (angstroms):
                    1          2          3          4          5
     1  C    0.000000
     2  C    1.500526   0.000000
     3  H    1.094784   2.151372   0.000000
     4  H    1.090266   2.120335   1.784493   0.000000
     5  H    1.095146   2.147814   1.761475   1.786586   0.000000
     6  C    2.638242   1.530568   2.939270   3.530759   2.918420
     7  O    2.397180   1.234988   3.123967   2.508699   3.110405
     8  C    3.037191   2.594693   2.881218   4.100619   3.110249
     9  H    3.205567   2.138770   3.725323   4.044102   3.185304
    10  H    3.438083   2.135492   3.633778   4.205347   3.912984
    11  F    2.986432   3.097495   2.880206   4.058795   2.589327
    12  F    4.412647   3.791629   4.253357   5.469399   4.412228
    13  F    3.167034   3.022669   2.554235   4.129962   3.525271
                    6          7          8          9         10
     6  C    0.000000
     7  O    2.361297   0.000000
     8  C    1.498886   3.678155   0.000000
     9  H    1.096210   2.760263   2.106819   0.000000
    10  H    1.093123   2.529183   2.113662   1.760760   0.000000
    11  F    2.414368   4.296728   1.394271   2.636270   3.326867
    12  F    2.381918   4.723042   1.390133   2.629259   2.575959
    13  F    2.408402   4.060504   1.393588   3.321842   2.702568
                   11         12         13
    11  F    0.000000
    12  F    2.229636   0.000000
    13  F    2.234465   2.232847   0.000000
 Stoichiometry    C4H5F3O
 Framework group  C1[X(C4H5F3O)]
 Deg. of freedom    33
 Full point group                 C1      NOp   1
 Largest Abelian subgroup         C1      NOp   1
 Largest concise Abelian subgroup C1      NOp   1
                         Standard orientation:                         
 ---------------------------------------------------------------------
 Center     Atomic      Atomic             Coordinates (Angstroms)
 Number     Number       Type             X           Y           Z
 ---------------------------------------------------------------------
      1          6           0       -1.683137    1.267576   -0.023584
      2          6           0       -1.549720   -0.226872   -0.043700
      3          1           0       -1.084569    1.704382    0.782312
      4          1           0       -2.732548    1.525095    0.121678
      5          1           0       -1.323752    1.701136   -0.962846
      6          6           0       -0.189277   -0.894144   -0.259524
      7          8           0       -2.525853   -0.974574    0.071633
      8          6           0        1.040278   -0.076689   -0.001415
      9          1           0       -0.144664   -1.238723   -1.299212
     10          1           0       -0.148713   -1.783142    0.375263
     11          9           0        1.168889    1.006339   -0.870035
     12          9           0        2.189848   -0.842836   -0.156263
     13          9           0        1.078175    0.444122    1.290640
 ---------------------------------------------------------------------
 Rotational constants (GHZ):      3.4920908      1.3362150      1.1993864
 Leave Link  202 at Wed May 26 09:20:48 2021, MaxMem=  2147483648 cpu:         0.0
 (Enter /opt/cluster/programs/g09_d.01/g09/l301.exe)
 Standard basis: 6-31+G (6D, 7F)
 Ernie: Thresh=  0.10000D-02 Tol=  0.10000D-05 Strict=F.
 There are   114 symmetry adapted cartesian basis functions of A   symmetry.
 There are   114 symmetry adapted basis functions of A   symmetry.
   114 basis functions,   228 primitive gaussians,   114 cartesian basis functions
    32 alpha electrons       32 beta electrons
       nuclear repulsion energy       404.6444421596 Hartrees.
 IExCor= 4639 DFT=T Ex+Corr=wB97XD ExCW=0 ScaHFX=  1.000000
 ScaDFX=  1.000000  1.000000  1.000000  1.000000 ScalE2=  1.000000  1.000000
 IRadAn=      0 IRanWt=     -1 IRanGd=            0 ICorTp=0 IEmpDi=121
  HFx wShort=  0.000000 wLong=  0.200000 cFull=  0.222036 cShort=  0.000000 cLong=  0.777964
  DFx wShort=  0.000000 wLong=  0.200000 cFull=  0.000000 cShort=  0.000000 cLong=  1.000000
 NAtoms=   13 NActive=   13 NUniq=   13 SFac= 1.00D+00 NAtFMM=   60 NAOKFM=F Big=F
 Integral buffers will be    131072 words long.
 Raffenetti 2 integral format.
 Two-electron integral symmetry is turned on.
 R6Disp:  Grimme-D2 Dispersion energy=       -0.0062333267 Hartrees.
 Nuclear repulsion after empirical dispersion term =      404.6382088329 Hartrees.
 Leave Link  301 at Wed May 26 09:20:48 2021, MaxMem=  2147483648 cpu:         0.3
 (Enter /opt/cluster/programs/g09_d.01/g09/l302.exe)
 NPDir=0 NMtPBC=     1 NCelOv=     1 NCel=       1 NClECP=     1 NCelD=      1
         NCelK=      1 NCelE2=     1 NClLst=     1 CellRange=     0.0.
 One-electron integrals computed using PRISM.
 NBasis=   114 RedAO= T EigKep=  3.74D-05  NBF=   114
 NBsUse=   114 1.00D-06 EigRej= -1.00D+00 NBFU=   114
 Precomputing XC quadrature grid using
 IXCGrd= 4 IRadAn=           0 IRanWt=          -1 IRanGd=           0 AccXCQ= 0.00D+00.
 Generated NRdTot=       0 NPtTot=           0 NUsed=           0 NTot=          32
 NSgBfM=   114   114   114   114   114 MxSgAt=    13 MxSgA2=    13.
 Leave Link  302 at Wed May 26 09:20:49 2021, MaxMem=  2147483648 cpu:         0.9
 (Enter /opt/cluster/programs/g09_d.01/g09/l303.exe)
 DipDrv:  MaxL=1.
 Leave Link  303 at Wed May 26 09:20:49 2021, MaxMem=  2147483648 cpu:         0.3
 (Enter /opt/cluster/programs/g09_d.01/g09/l401.exe)
 ExpMin= 4.38D-02 ExpMax= 7.00D+03 ExpMxC= 1.05D+03 IAcc=2 IRadAn=         4 AccDes= 0.00D+00
 Harris functional with IExCor= 4639 and IRadAn=       4 diagonalized for initial guess.
 HarFok:  IExCor= 4639 AccDes= 0.00D+00 IRadAn=         4 IDoV= 1 UseB2=F ITyADJ=14
 ICtDFT=  3500011 ScaDFX=  1.000000  1.000000  1.000000  1.000000
 FoFCou: FMM=F IPFlag=           0 FMFlag=      100000 FMFlg1=           0
         NFxFlg=           0 DoJE=T BraDBF=F KetDBF=T FulRan=T
         wScrn=  0.000000 ICntrl=     500 IOpCl=  0 I1Cent=   200000004 NGrid=           0
         NMat0=    1 NMatS0=      1 NMatT0=    0 NMatD0=    1 NMtDS0=    0 NMtDT0=    0
 Petite list used in FoFCou.
 Harris En= -511.188693207593    
 JPrj=0 DoOrth=F DoCkMO=F.
 Leave Link  401 at Wed May 26 09:20:49 2021, MaxMem=  2147483648 cpu:         2.1
 (Enter /opt/cluster/programs/g09_d.01/g09/l502.exe)
 Closed shell SCF:
 Using DIIS extrapolation, IDIIS=  1040.
 Integral symmetry usage will be decided dynamically.
 Keep R1 ints in memory in canonical form, NReq=43969700.
 IVT=       59316 IEndB=       59316 NGot=  2147483648 MDV=  2104449753
 LenX=  2104449753 LenY=  2104436316
 Requested convergence on RMS density matrix=1.00D-08 within 128 cycles.
 Requested convergence on MAX density matrix=1.00D-06.
 Requested convergence on             energy=1.00D-06.
 No special actions if energy rises.
 FoFCou: FMM=F IPFlag=           0 FMFlag=           0 FMFlg1=           0
         NFxFlg=           0 DoJE=F BraDBF=F KetDBF=F FulRan=T
         wScrn=  0.000000 ICntrl=     600 IOpCl=  0 I1Cent=           0 NGrid=           0
         NMat0=    1 NMatS0=   6555 NMatT0=    0 NMatD0=    1 NMtDS0=    0 NMtDT0=    0
 Symmetry not used in FoFCou.

 Cycle   1  Pass 1  IDiag  1:
 E= -529.584566124341    
 DIIS: error= 6.89D-02 at cycle   1 NSaved=   1.
 NSaved= 1 IEnMin= 1 EnMin= -529.584566124341     IErMin= 1 ErrMin= 6.89D-02
 ErrMax= 6.89D-02  0.00D+00 EMaxC= 1.00D-01 BMatC= 5.30D-01 BMatP= 5.30D-01
 IDIUse=3 WtCom= 3.11D-01 WtEn= 6.89D-01
 Coeff-Com:  0.100D+01
 Coeff-En:   0.100D+01
 Coeff:      0.100D+01
 Gap=     0.410 Goal=   None    Shift=    0.000
 GapD=    0.410 DampG=2.000 DampE=0.500 DampFc=1.0000 IDamp=-1.
 RMSDP=2.24D-02 MaxDP=1.17D+00              OVMax= 1.33D-01

 Cycle   2  Pass 1  IDiag  1:
 E= -529.733409846097     Delta-E=       -0.148843721756 Rises=F Damp=F
 DIIS: error= 5.79D-02 at cycle   2 NSaved=   2.
 NSaved= 2 IEnMin= 2 EnMin= -529.733409846097     IErMin= 2 ErrMin= 5.79D-02
 ErrMax= 5.79D-02  0.00D+00 EMaxC= 1.00D-01 BMatC= 3.18D-01 BMatP= 5.30D-01
 IDIUse=3 WtCom= 4.21D-01 WtEn= 5.79D-01
 Coeff-Com:  0.431D+00 0.569D+00
 Coeff-En:   0.326D+00 0.674D+00
 Coeff:      0.370D+00 0.630D+00
 Gap=     0.532 Goal=   None    Shift=    0.000
 RMSDP=4.73D-03 MaxDP=1.28D-01 DE=-1.49D-01 OVMax= 5.54D-02

 Cycle   3  Pass 1  IDiag  1:
 E= -529.910888982832     Delta-E=       -0.177479136735 Rises=F Damp=F
 DIIS: error= 1.23D-02 at cycle   3 NSaved=   3.
 NSaved= 3 IEnMin= 3 EnMin= -529.910888982832     IErMin= 3 ErrMin= 1.23D-02
 ErrMax= 1.23D-02  0.00D+00 EMaxC= 1.00D-01 BMatC= 2.42D-02 BMatP= 3.18D-01
 IDIUse=3 WtCom= 8.77D-01 WtEn= 1.23D-01
 Coeff-Com:  0.964D-01 0.259D+00 0.644D+00
 Coeff-En:   0.000D+00 0.000D+00 0.100D+01
 Coeff:      0.846D-01 0.228D+00 0.688D+00
 Gap=     0.389 Goal=   None    Shift=    0.000
 RMSDP=3.80D-03 MaxDP=1.50D-01 DE=-1.77D-01 OVMax= 3.45D-02

 Cycle   4  Pass 1  IDiag  1:
 E= -529.925029525349     Delta-E=       -0.014140542517 Rises=F Damp=F
 DIIS: error= 3.74D-03 at cycle   4 NSaved=   4.
 NSaved= 4 IEnMin= 4 EnMin= -529.925029525349     IErMin= 4 ErrMin= 3.74D-03
 ErrMax= 3.74D-03  0.00D+00 EMaxC= 1.00D-01 BMatC= 3.42D-03 BMatP= 2.42D-02
 IDIUse=3 WtCom= 9.63D-01 WtEn= 3.74D-02
 Coeff-Com: -0.677D-02 0.204D-01 0.316D+00 0.670D+00
 Coeff-En:   0.000D+00 0.000D+00 0.827D-01 0.917D+00
 Coeff:     -0.651D-02 0.197D-01 0.308D+00 0.679D+00
 Gap=     0.381 Goal=   None    Shift=    0.000
 RMSDP=8.47D-04 MaxDP=1.45D-02 DE=-1.41D-02 OVMax= 1.53D-02

 Cycle   5  Pass 1  IDiag  1:
 E= -529.927438769248     Delta-E=       -0.002409243899 Rises=F Damp=F
 DIIS: error= 1.33D-03 at cycle   5 NSaved=   5.
 NSaved= 5 IEnMin= 5 EnMin= -529.927438769248     IErMin= 5 ErrMin= 1.33D-03
 ErrMax= 1.33D-03  0.00D+00 EMaxC= 1.00D-01 BMatC= 2.57D-04 BMatP= 3.42D-03
 IDIUse=3 WtCom= 9.87D-01 WtEn= 1.33D-02
 Coeff-Com: -0.897D-02-0.245D-02 0.150D+00 0.393D+00 0.468D+00
 Coeff-En:   0.000D+00 0.000D+00 0.000D+00 0.000D+00 0.100D+01
 Coeff:     -0.885D-02-0.242D-02 0.148D+00 0.388D+00 0.475D+00
 Gap=     0.384 Goal=   None    Shift=    0.000
 RMSDP=6.17D-04 MaxDP=2.47D-02 DE=-2.41D-03 OVMax= 4.73D-03

 Cycle   6  Pass 1  IDiag  1:
 E= -529.927625755261     Delta-E=       -0.000186986013 Rises=F Damp=F
 DIIS: error= 2.28D-04 at cycle   6 NSaved=   6.
 NSaved= 6 IEnMin= 6 EnMin= -529.927625755261     IErMin= 6 ErrMin= 2.28D-04
 ErrMax= 2.28D-04  0.00D+00 EMaxC= 1.00D-01 BMatC= 5.78D-06 BMatP= 2.57D-04
 IDIUse=3 WtCom= 9.98D-01 WtEn= 2.28D-03
 Coeff-Com: -0.785D-03-0.414D-02-0.121D-01-0.115D-01 0.104D+00 0.925D+00
 Coeff-En:   0.000D+00 0.000D+00 0.000D+00 0.000D+00 0.000D+00 0.100D+01
 Coeff:     -0.783D-03-0.414D-02-0.120D-01-0.115D-01 0.104D+00 0.925D+00
 Gap=     0.384 Goal=   None    Shift=    0.000
 RMSDP=1.77D-04 MaxDP=7.61D-03 DE=-1.87D-04 OVMax= 1.27D-03

 Cycle   7  Pass 1  IDiag  1:
 E= -529.927632668940     Delta-E=       -0.000006913678 Rises=F Damp=F
 DIIS: error= 5.40D-05 at cycle   7 NSaved=   7.
 NSaved= 7 IEnMin= 7 EnMin= -529.927632668940     IErMin= 7 ErrMin= 5.40D-05
 ErrMax= 5.40D-05  0.00D+00 EMaxC= 1.00D-01 BMatC= 5.33D-07 BMatP= 5.78D-06
 IDIUse=1 WtCom= 1.00D+00 WtEn= 0.00D+00
 Coeff-Com:  0.416D-03-0.147D-02-0.168D-01-0.352D-01-0.652D-02 0.323D+00
 Coeff-Com:  0.737D+00
 Coeff:      0.416D-03-0.147D-02-0.168D-01-0.352D-01-0.652D-02 0.323D+00
 Coeff:      0.737D+00
 Gap=     0.384 Goal=   None    Shift=    0.000
 RMSDP=5.08D-05 MaxDP=1.90D-03 DE=-6.91D-06 OVMax= 2.34D-04

 Cycle   8  Pass 1  IDiag  1:
 E= -529.927633336951     Delta-E=       -0.000000668011 Rises=F Damp=F
 DIIS: error= 6.85D-06 at cycle   8 NSaved=   8.
 NSaved= 8 IEnMin= 8 EnMin= -529.927633336951     IErMin= 8 ErrMin= 6.85D-06
 ErrMax= 6.85D-06  0.00D+00 EMaxC= 1.00D-01 BMatC= 1.59D-08 BMatP= 5.33D-07
 IDIUse=1 WtCom= 1.00D+00 WtEn= 0.00D+00
 Coeff-Com:  0.613D-04 0.147D-03-0.268D-03-0.103D-02-0.932D-02-0.339D-01
 Coeff-Com:  0.542D-01 0.990D+00
 Coeff:      0.613D-04 0.147D-03-0.268D-03-0.103D-02-0.932D-02-0.339D-01
 Coeff:      0.542D-01 0.990D+00
 Gap=     0.384 Goal=   None    Shift=    0.000
 RMSDP=1.09D-05 MaxDP=3.71D-04 DE=-6.68D-07 OVMax= 7.91D-05

 Cycle   9  Pass 1  IDiag  1:
 E= -529.927633362976     Delta-E=       -0.000000026025 Rises=F Damp=F
 DIIS: error= 5.79D-06 at cycle   9 NSaved=   9.
 NSaved= 9 IEnMin= 9 EnMin= -529.927633362976     IErMin= 9 ErrMin= 5.79D-06
 ErrMax= 5.79D-06  0.00D+00 EMaxC= 1.00D-01 BMatC= 5.90D-09 BMatP= 1.59D-08
 IDIUse=1 WtCom= 1.00D+00 WtEn= 0.00D+00
 Coeff-Com: -0.868D-06 0.196D-03 0.119D-02 0.231D-02-0.470D-02-0.419D-01
 Coeff-Com: -0.283D-01 0.499D+00 0.573D+00
 Coeff:     -0.868D-06 0.196D-03 0.119D-02 0.231D-02-0.470D-02-0.419D-01
 Coeff:     -0.283D-01 0.499D+00 0.573D+00
 Gap=     0.384 Goal=   None    Shift=    0.000
 RMSDP=1.91D-06 MaxDP=5.49D-05 DE=-2.60D-08 OVMax= 1.93D-05

 Cycle  10  Pass 1  IDiag  1:
 E= -529.927633367739     Delta-E=       -0.000000004763 Rises=F Damp=F
 DIIS: error= 1.54D-06 at cycle  10 NSaved=  10.
 NSaved=10 IEnMin=10 EnMin= -529.927633367739     IErMin=10 ErrMin= 1.54D-06
 ErrMax= 1.54D-06  0.00D+00 EMaxC= 1.00D-01 BMatC= 3.15D-10 BMatP= 5.90D-09
 IDIUse=1 WtCom= 1.00D+00 WtEn= 0.00D+00
 Coeff-Com: -0.962D-05 0.222D-04 0.316D-03 0.749D-03 0.236D-03-0.251D-02
 Coeff-Com: -0.142D-01-0.635D-01 0.998D-01 0.979D+00
 Coeff:     -0.962D-05 0.222D-04 0.316D-03 0.749D-03 0.236D-03-0.251D-02
 Coeff:     -0.142D-01-0.635D-01 0.998D-01 0.979D+00
 Gap=     0.384 Goal=   None    Shift=    0.000
 RMSDP=1.05D-06 MaxDP=2.13D-05 DE=-4.76D-09 OVMax= 1.73D-05

 Cycle  11  Pass 1  IDiag  1:
 E= -529.927633368367     Delta-E=       -0.000000000628 Rises=F Damp=F
 DIIS: error= 5.68D-07 at cycle  11 NSaved=  11.
 NSaved=11 IEnMin=11 EnMin= -529.927633368367     IErMin=11 ErrMin= 5.68D-07
 ErrMax= 5.68D-07  0.00D+00 EMaxC= 1.00D-01 BMatC= 2.38D-11 BMatP= 3.15D-10
 IDIUse=1 WtCom= 1.00D+00 WtEn= 0.00D+00
 Coeff-Com: -0.505D-06-0.884D-05-0.400D-04-0.542D-04 0.279D-03 0.268D-02
 Coeff-Com: -0.436D-03-0.471D-01-0.197D-01 0.164D+00 0.901D+00
 Coeff:     -0.505D-06-0.884D-05-0.400D-04-0.542D-04 0.279D-03 0.268D-02
 Coeff:     -0.436D-03-0.471D-01-0.197D-01 0.164D+00 0.901D+00
 Gap=     0.384 Goal=   None    Shift=    0.000
 RMSDP=2.51D-07 MaxDP=5.97D-06 DE=-6.28D-10 OVMax= 6.99D-06

 Cycle  12  Pass 1  IDiag  1:
 E= -529.927633368441     Delta-E=       -0.000000000074 Rises=F Damp=F
 DIIS: error= 3.17D-07 at cycle  12 NSaved=  12.
 NSaved=12 IEnMin=12 EnMin= -529.927633368441     IErMin=12 ErrMin= 3.17D-07
 ErrMax= 3.17D-07  0.00D+00 EMaxC= 1.00D-01 BMatC= 3.70D-12 BMatP= 2.38D-11
 IDIUse=1 WtCom= 1.00D+00 WtEn= 0.00D+00
 Coeff-Com:  0.105D-05-0.466D-05-0.491D-04-0.108D-03-0.429D-05 0.696D-03
 Coeff-Com:  0.183D-02 0.349D-02-0.144D-01-0.127D+00 0.143D+00 0.993D+00
 Coeff:      0.105D-05-0.466D-05-0.491D-04-0.108D-03-0.429D-05 0.696D-03
 Coeff:      0.183D-02 0.349D-02-0.144D-01-0.127D+00 0.143D+00 0.993D+00
 Gap=     0.384 Goal=   None    Shift=    0.000
 RMSDP=1.22D-07 MaxDP=3.06D-06 DE=-7.39D-11 OVMax= 4.58D-06

 Cycle  13  Pass 1  IDiag  1:
 E= -529.927633368471     Delta-E=       -0.000000000029 Rises=F Damp=F
 DIIS: error= 1.50D-07 at cycle  13 NSaved=  13.
 NSaved=13 IEnMin=13 EnMin= -529.927633368471     IErMin=13 ErrMin= 1.50D-07
 ErrMax= 1.50D-07  0.00D+00 EMaxC= 1.00D-01 BMatC= 4.96D-13 BMatP= 3.70D-12
 IDIUse=1 WtCom= 1.00D+00 WtEn= 0.00D+00
 Coeff-Com: -0.226D-06 0.210D-05 0.180D-04 0.338D-04-0.354D-04-0.549D-03
 Coeff-Com: -0.452D-03 0.597D-02 0.535D-02 0.852D-02-0.171D+00-0.283D+00
 Coeff-Com:  0.144D+01
 Coeff:     -0.226D-06 0.210D-05 0.180D-04 0.338D-04-0.354D-04-0.549D-03
 Coeff:     -0.452D-03 0.597D-02 0.535D-02 0.852D-02-0.171D+00-0.283D+00
 Coeff:      0.144D+01
 Gap=     0.384 Goal=   None    Shift=    0.000
 RMSDP=7.01D-08 MaxDP=1.69D-06 DE=-2.93D-11 OVMax= 3.07D-06

 Cycle  14  Pass 1  IDiag  1:
 E= -529.927633368474     Delta-E=       -0.000000000004 Rises=F Damp=F
 DIIS: error= 3.31D-08 at cycle  14 NSaved=  14.
 NSaved=14 IEnMin=14 EnMin= -529.927633368474     IErMin=14 ErrMin= 3.31D-08
 ErrMax= 3.31D-08  0.00D+00 EMaxC= 1.00D-01 BMatC= 4.81D-14 BMatP= 4.96D-13
 IDIUse=1 WtCom= 1.00D+00 WtEn= 0.00D+00
 Coeff-Com: -0.990D-07 0.559D-06 0.522D-05 0.108D-04 0.368D-05-0.981D-04
 Coeff-Com: -0.148D-03 0.691D-04 0.145D-02 0.110D-01-0.192D-01-0.105D+00
 Coeff-Com:  0.731D-01 0.104D+01
 Coeff:     -0.990D-07 0.559D-06 0.522D-05 0.108D-04 0.368D-05-0.981D-04
 Coeff:     -0.148D-03 0.691D-04 0.145D-02 0.110D-01-0.192D-01-0.105D+00
 Coeff:      0.731D-01 0.104D+01
 Gap=     0.384 Goal=   None    Shift=    0.000
 RMSDP=1.71D-08 MaxDP=3.47D-07 DE=-3.64D-12 OVMax= 6.03D-07

 Cycle  15  Pass 1  IDiag  1:
 E= -529.927633368470     Delta-E=        0.000000000005 Rises=F Damp=F
 DIIS: error= 7.54D-09 at cycle  15 NSaved=  15.
 NSaved=15 IEnMin=14 EnMin= -529.927633368474     IErMin=15 ErrMin= 7.54D-09
 ErrMax= 7.54D-09  0.00D+00 EMaxC= 1.00D-01 BMatC= 1.28D-14 BMatP= 4.81D-14
 IDIUse=1 WtCom= 1.00D+00 WtEn= 0.00D+00
 Coeff-Com: -0.189D-07 0.223D-07 0.298D-06 0.102D-05 0.713D-05 0.191D-04
 Coeff-Com: -0.124D-04-0.738D-03 0.600D-04 0.447D-02 0.116D-01-0.175D-01
 Coeff-Com: -0.130D+00 0.454D+00 0.678D+00
 Coeff:     -0.189D-07 0.223D-07 0.298D-06 0.102D-05 0.713D-05 0.191D-04
 Coeff:     -0.124D-04-0.738D-03 0.600D-04 0.447D-02 0.116D-01-0.175D-01
 Coeff:     -0.130D+00 0.454D+00 0.678D+00
 Gap=     0.384 Goal=   None    Shift=    0.000
 RMSDP=4.58D-09 MaxDP=1.35D-07 DE= 4.55D-12 OVMax= 1.10D-07

 SCF Done:  E(RwB97XD) =  -529.927633368     A.U. after   15 cycles
            NFock= 15  Conv=0.46D-08     -V/T= 2.0052
 KE= 5.271898276241D+02 PE=-2.059560623319D+03 EE= 5.978049534937D+02
 Leave Link  502 at Wed May 26 09:20:53 2021, MaxMem=  2147483648 cpu:        31.6
 (Enter /opt/cluster/programs/g09_d.01/g09/l601.exe)
 Copying SCF densities to generalized density rwf, IOpCl= 0 IROHF=0.

 **********************************************************************

            Population analysis using the SCF density.

 **********************************************************************

 Orbital symmetries:
       Occupied  (A) (A) (A) (A) (A) (A) (A) (A) (A) (A) (A) (A)
                 (A) (A) (A) (A) (A) (A) (A) (A) (A) (A) (A) (A)
                 (A) (A) (A) (A) (A) (A) (A) (A)
       Virtual   (A) (A) (A) (A) (A) (A) (A) (A) (A) (A) (A) (A)
                 (A) (A) (A) (A) (A) (A) (A) (A) (A) (A) (A) (A)
                 (A) (A) (A) (A) (A) (A) (A) (A) (A) (A) (A) (A)
                 (A) (A) (A) (A) (A) (A) (A) (A) (A) (A) (A) (A)
                 (A) (A) (A) (A) (A) (A) (A) (A) (A) (A) (A) (A)
                 (A) (A) (A) (A) (A) (A) (A) (A) (A) (A) (A) (A)
                 (A) (A) (A) (A) (A) (A) (A) (A) (A) (A)
 The electronic state is 1-A.
 Alpha  occ. eigenvalues --  -24.89289 -24.89278 -24.89117 -19.30179 -10.59551
 Alpha  occ. eigenvalues --  -10.43984 -10.36471 -10.31992  -1.44062  -1.35581
 Alpha  occ. eigenvalues --   -1.35519  -1.19433  -0.95260  -0.87229  -0.80274
 Alpha  occ. eigenvalues --   -0.71126  -0.70455  -0.69309  -0.64257  -0.59827
 Alpha  occ. eigenvalues --   -0.58475  -0.57730  -0.57073  -0.55098  -0.54209
 Alpha  occ. eigenvalues --   -0.53765  -0.52929  -0.52297  -0.50446  -0.49558
 Alpha  occ. eigenvalues --   -0.45959  -0.36964
 Alpha virt. eigenvalues --    0.01401   0.06248   0.08162   0.09546   0.10072
 Alpha virt. eigenvalues --    0.10641   0.11217   0.11610   0.12898   0.13401
 Alpha virt. eigenvalues --    0.13759   0.16052   0.16582   0.17548   0.17713
 Alpha virt. eigenvalues --    0.18073   0.18509   0.20736   0.21044   0.22252
 Alpha virt. eigenvalues --    0.25066   0.26679   0.27932   0.29335   0.31333
 Alpha virt. eigenvalues --    0.33237   0.33831   0.34602   0.36093   0.37292
 Alpha virt. eigenvalues --    0.38149   0.38645   0.38965   0.40399   0.41805
 Alpha virt. eigenvalues --    0.42963   0.43425   0.44310   0.45054   0.45242
 Alpha virt. eigenvalues --    0.47157   0.49424   0.50914   0.52367   0.54440
 Alpha virt. eigenvalues --    0.72241   0.73636   0.75217   0.76746   0.80762
 Alpha virt. eigenvalues --    0.82990   0.83787   0.86685   0.91336   0.93637
 Alpha virt. eigenvalues --    0.95258   1.06919   1.10703   1.14766   1.16519
 Alpha virt. eigenvalues --    1.19945   1.22170   1.22841   1.34057   1.38822
 Alpha virt. eigenvalues --    1.43710   1.47573   1.51210   1.56917   1.58991
 Alpha virt. eigenvalues --    1.65309   1.67025   1.68807   1.74142   1.79540
 Alpha virt. eigenvalues --    1.82306   1.83618   1.85455   1.97073   2.28873
 Alpha virt. eigenvalues --    2.33804   2.69732
          Condensed to atoms (all electrons):
               1          2          3          4          5          6
     1  C    8.803335  -1.207026   0.324442   0.344547   0.313088  -1.546177
     2  C   -1.207026   6.549005  -0.003755  -0.028856  -0.007001  -0.550851
     3  H    0.324442  -0.003755   0.449610  -0.019335  -0.021269  -0.010168
     4  H    0.344547  -0.028856  -0.019335   0.445854  -0.019266   0.035864
     5  H    0.313088  -0.007001  -0.021269  -0.019266   0.453898   0.032328
     6  C   -1.546177  -0.550851  -0.010168   0.035864   0.032328   8.849980
     7  O   -0.111364   0.485502   0.004365  -0.004959   0.001603  -0.292727
     8  C   -0.093370   0.167451   0.013972  -0.004786  -0.008945  -0.230767
     9  H    0.004610  -0.017441   0.000085  -0.000063  -0.000056   0.371361
    10  H    0.008625  -0.007405  -0.000072  -0.000074   0.000009   0.350768
    11  F    0.010140   0.015462  -0.004111   0.000303  -0.000281  -0.130987
    12  F   -0.013718   0.008614   0.000245   0.000023  -0.000097  -0.094633
    13  F   -0.036894   0.097325   0.005525   0.000011  -0.001157  -0.224815
               7          8          9         10         11         12
     1  C   -0.111364  -0.093370   0.004610   0.008625   0.010140  -0.013718
     2  C    0.485502   0.167451  -0.017441  -0.007405   0.015462   0.008614
     3  H    0.004365   0.013972   0.000085  -0.000072  -0.004111   0.000245
     4  H   -0.004959  -0.004786  -0.000063  -0.000074   0.000303   0.000023
     5  H    0.001603  -0.008945  -0.000056   0.000009  -0.000281  -0.000097
     6  C   -0.292727  -0.230767   0.371361   0.350768  -0.130987  -0.094633
     7  O    8.325855   0.006991  -0.003579  -0.004648  -0.001735  -0.001053
     8  C    0.006991   5.330284  -0.052515  -0.040504   0.111660   0.119312
     9  H   -0.003579  -0.052515   0.417547  -0.016223  -0.004754  -0.002616
    10  H   -0.004648  -0.040504  -0.016223   0.410452   0.006715  -0.000698
    11  F   -0.001735   0.111660  -0.004754   0.006715   9.297522  -0.051833
    12  F   -0.001053   0.119312  -0.002616  -0.000698  -0.051833   9.296469
    13  F   -0.002050   0.179713   0.007180  -0.004331  -0.053302  -0.053564
              13
     1  C   -0.036894
     2  C    0.097325
     3  H    0.005525
     4  H    0.000011
     5  H   -0.001157
     6  C   -0.224815
     7  O   -0.002050
     8  C    0.179713
     9  H    0.007180
    10  H   -0.004331
    11  F   -0.053302
    12  F   -0.053564
    13  F    9.286167
 Mulliken charges:
               1
     1  C   -0.800241
     2  C    0.498975
     3  H    0.260464
     4  H    0.250737
     5  H    0.257147
     6  C   -0.559176
     7  O   -0.402202
     8  C    0.501504
     9  H    0.296465
    10  H    0.297386
    11  F   -0.194801
    12  F   -0.206451
    13  F   -0.199808
 Sum of Mulliken charges =   0.00000
 Mulliken charges with hydrogens summed into heavy atoms:
               1
     1  C   -0.031892
     2  C    0.498975
     6  C    0.034674
     7  O   -0.402202
     8  C    0.501504
    11  F   -0.194801
    12  F   -0.206451
    13  F   -0.199808
 Electronic spatial extent (au):  <R**2>=            981.2989
 Charge=              0.0000 electrons
 Dipole moment (field-independent basis, Debye):
    X=             -0.0316    Y=              0.6559    Z=             -0.8672  Tot=              1.0877
 Quadrupole moment (field-independent basis, Debye-Ang):
   XX=            -57.9834   YY=            -45.1319   ZZ=            -45.3612
   XY=             -6.3605   XZ=              0.7194   YZ=              0.7722
 Traceless Quadrupole moment (field-independent basis, Debye-Ang):
   XX=             -8.4912   YY=              4.3603   ZZ=              4.1309
   XY=             -6.3605   XZ=              0.7194   YZ=              0.7722
 Octapole moment (field-independent basis, Debye-Ang**2):
  XXX=             40.0598  YYY=              2.6401  ZZZ=             -1.9174  XYY=              7.9530
  XXY=             20.7236  XXZ=              0.0240  XZZ=              3.8637  YZZ=             -2.0681
  YYZ=              1.3693  XYZ=             -0.4149
 Hexadecapole moment (field-independent basis, Debye-Ang**3):
 XXXX=           -816.6691 YYYY=           -256.5786 ZZZZ=           -127.2947 XXXY=            -35.9922
 XXXZ=              4.3240 YYYX=             -6.5475 YYYZ=             -1.7312 ZZZX=             -1.2099
 ZZZY=              0.3934 XXYY=           -178.9182 XXZZ=           -143.7859 YYZZ=            -60.7412
 XXYZ=              1.2766 YYXZ=              1.7581 ZZXY=             -0.7024
 N-N= 4.046382088329D+02 E-N=-2.059560623398D+03  KE= 5.271898276241D+02
 No NMR shielding tensors so no spin-rotation constants.
 Leave Link  601 at Wed May 26 09:20:53 2021, MaxMem=  2147483648 cpu:         0.6
 (Enter /opt/cluster/programs/g09_d.01/g09/l701.exe)
 Compute integral first derivatives.
 ... and contract with generalized density number  0.
 R6Disp: Adding Grimme-D2 dispersion energy 1st derivatives to the gradient.
 Leave Link  701 at Wed May 26 09:20:53 2021, MaxMem=  2147483648 cpu:         0.6
 (Enter /opt/cluster/programs/g09_d.01/g09/l702.exe)
 L702 exits ... SP integral derivatives will be done elsewhere.
 Leave Link  702 at Wed May 26 09:20:54 2021, MaxMem=  2147483648 cpu:         0.2
 (Enter /opt/cluster/programs/g09_d.01/g09/l703.exe)
 Compute integral first derivatives, UseDBF=F ICtDFT=           0.
 Integral derivatives from FoFJK, PRISM(SPDF).
 Calling FoFJK, ICntrl=      2127 FMM=F ISym2X=0 I1Cent= 0 IOpClX= 0 NMat=1 NMatS=1 NMatT=0.
 FoFJK:  IHMeth= 1 ICntrl=    2127 DoSepK=T KAlg= 0 I1Cent=   0 FoldK=F
 IRaf=         1 NMat=   1 IRICut=       1 DoRegI=T DoRafI=F ISym2E= 0.
 FoFCou: FMM=F IPFlag=           0 FMFlag=      100000 FMFlg1=         800
         NFxFlg=           0 DoJE=F BraDBF=F KetDBF=F FulRan=T
         wScrn=  0.000000 ICntrl=    2527 IOpCl=  0 I1Cent=           0 NGrid=           0
         NMat0=    1 NMatS0=      1 NMatT0=    0 NMatD0=    1 NMtDS0=    0 NMtDT0=    0
 Symmetry not used in FoFCou.
 Leave Link  703 at Wed May 26 09:20:55 2021, MaxMem=  2147483648 cpu:         8.6
 (Enter /opt/cluster/programs/g09_d.01/g09/l716.exe)
 Dipole        =-1.24343752D-02 2.58039974D-01-3.41173371D-01
 ***** Axes restored to original set *****
 -------------------------------------------------------------------
 Center     Atomic                   Forces (Hartrees/Bohr)
 Number     Number              X              Y              Z
 -------------------------------------------------------------------
      1        6           0.000073883   -0.000034632    0.000413626
      2        6          -0.000059355   -0.000040891   -0.000780223
      3        1          -0.000014211   -0.000019256   -0.000008149
      4        1           0.000015614    0.000002658    0.000010675
      5        1          -0.000006385   -0.000008489    0.000019990
      6        6           0.000039482    0.000181758    0.000750150
      7        8          -0.000041863    0.000015049    0.000012156
      8        6          -0.000006393   -0.000112966   -0.000388004
      9        1          -0.000009524   -0.000006280   -0.000004258
     10        1          -0.000023238   -0.000003530    0.000000252
     11        9           0.000000596    0.000002493   -0.000010163
     12        9           0.000000956    0.000009983   -0.000014593
     13        9           0.000030437    0.000014102   -0.000001458
 -------------------------------------------------------------------
 Cartesian Forces:  Max     0.000780223 RMS     0.000199888
 Leave Link  716 at Wed May 26 09:20:55 2021, MaxMem=  2147483648 cpu:         0.2
 (Enter /opt/cluster/programs/g09_d.01/g09/l103.exe)

 GradGradGradGradGradGradGradGradGradGradGradGradGradGradGradGradGradGrad
 Berny optimization.
 FormGI is forming the generalized inverse of G from B-inverse, IUseBI=4.
 Internal  Forces:  Max     0.000378371 RMS     0.000085643
 Search for a local minimum.
 Step number   1 out of a maximum of   64
 All quantities printed in internal units (Hartrees-Bohrs-Radians)
 RMS Force = .20913D-04 SwitMx=.10000D-02 MixMth= 2
 Mixed Optimization -- En-DIIS/RFO-DIIS
 Second derivative matrix not updated -- first step.
 ITU=  0
     Eigenvalues ---    0.00504   0.00759   0.00781   0.02735   0.05496
     Eigenvalues ---    0.07334   0.07450   0.08241   0.08582   0.10120
     Eigenvalues ---    0.12311   0.16000   0.16000   0.16000   0.22073
     Eigenvalues ---    0.24980   0.25000   0.25000   0.25000   0.25000
     Eigenvalues ---    0.29371   0.32322   0.32494   0.34105   0.34225
     Eigenvalues ---    0.34266   0.34454   0.34782   0.46583   0.46700
     Eigenvalues ---    0.47296   0.890391000.000001000.000001000.00000
     Eigenvalues --- 1000.000001000.000001000.000001000.000001000.00000
     Eigenvalues --- 1000.000001000.000001000.000001000.000001000.00000
     Eigenvalues --- 1000.000001000.000001000.000001000.000001000.00000
     Eigenvalues --- 1000.000001000.000001000.000001000.00000
 RFO step:  Lambda=-1.44041820D-07 EMin= 5.03838586D-03
 Linear search not attempted -- first point.
 Iteration  1 RMS(Cart)=  0.00067607 RMS(Int)=  0.00000021
 Iteration  2 RMS(Cart)=  0.00000023 RMS(Int)=  0.00000002
 Iteration  1 RMS(Cart)=  0.00000000 RMS(Int)=  0.00000000
 ITry= 1 IFail=0 DXMaxC= 2.48D-03 DCOld= 1.00D+10 DXMaxT= 3.00D-01 DXLimC= 3.00D+00 Rises=F
 Variable       Old X    -DE/DX   Delta X   Delta X   Delta X     New X
                                 (Linear)    (Quad)   (Total)
    R1        2.83558  -0.00004   0.00000  -0.00013  -0.00013   2.83545
    R2        2.06884   0.00002   0.00000   0.00005   0.00005   2.06889
    R3        2.06030   0.00001   0.00000   0.00003   0.00003   2.06034
    R4        2.06953   0.00001   0.00000   0.00004   0.00004   2.06956
    R5        2.89235  -0.00002   0.00000  -0.00005  -0.00005   2.89230
    R6        2.33379  -0.00004   0.00000  -0.00005  -0.00005   2.33374
    R7        2.83248  -0.00002   0.00000  -0.00005  -0.00005   2.83244
    R8        2.07154   0.00000   0.00000   0.00000   0.00000   2.07154
    R9        2.06570   0.00000   0.00000   0.00001   0.00001   2.06571
   R10        2.63479   0.00000   0.00000  -0.00001  -0.00001   2.63478
   R11        2.62697   0.00000   0.00000  -0.00001  -0.00001   2.62696
   R12        2.63350   0.00000   0.00000  -0.00001  -0.00001   2.63349
    A1        1.93759  -0.00004   0.00000  -0.00029  -0.00029   1.93730
    A2        1.89928   0.00002   0.00000   0.00019   0.00019   1.89947
    A3        1.93223  -0.00001   0.00000  -0.00009  -0.00009   1.93214
    A4        1.91128   0.00001   0.00000   0.00010   0.00010   1.91138
    A5        1.86917   0.00002   0.00000   0.00002   0.00002   1.86919
    A6        1.91413   0.00000   0.00000   0.00007   0.00007   1.91420
    A7        2.11194  -0.00006   0.00000  -0.00024  -0.00024   2.11171
    A8        2.13111   0.00003   0.00000   0.00015   0.00015   2.13126
    A9        2.03954   0.00003   0.00000   0.00010   0.00010   2.03964
   A10        2.05679  -0.00007   0.00000  -0.00033  -0.00033   2.05646
   A11        1.88278   0.00002   0.00000   0.00017   0.00017   1.88296
   A12        1.88142   0.00004   0.00000   0.00013   0.00013   1.88155
   A13        1.87692   0.00018   0.00000   0.00016   0.00016   1.87709
   A14        1.88925  -0.00015   0.00000  -0.00010  -0.00010   1.88915
   A15        1.86881  -0.00001   0.00000  -0.00001  -0.00001   1.86880
   A16        1.97362   0.00000   0.00000  -0.00001  -0.00001   1.97361
   A17        1.93757   0.00000   0.00000   0.00006   0.00006   1.93762
   A18        1.96685  -0.00003   0.00000  -0.00013  -0.00013   1.96672
   A19        1.85712   0.00000   0.00000   0.00004   0.00004   1.85716
   A20        1.85959   0.00000   0.00000  -0.00004  -0.00004   1.85955
   A21        1.86164   0.00002   0.00000   0.00011   0.00011   1.86174
    D1       -1.05740  -0.00007   0.00000   0.00077   0.00077  -1.05662
    D2        2.12237   0.00009   0.00000   0.00019   0.00019   2.12256
    D3        3.12110  -0.00007   0.00000   0.00071   0.00071   3.12181
    D4        0.01768   0.00008   0.00000   0.00013   0.00013   0.01781
    D5        1.01622  -0.00009   0.00000   0.00055   0.00055   1.01678
    D6       -2.08720   0.00007   0.00000  -0.00003  -0.00003  -2.08723
    D7        0.34528   0.00038   0.00000   0.00000   0.00000   0.34528
    D8       -1.78234   0.00017   0.00000  -0.00012  -0.00012  -1.78246
    D9        2.48827   0.00016   0.00000  -0.00026  -0.00026   2.48800
   D10       -2.83255   0.00023   0.00000   0.00056   0.00056  -2.83200
   D11        1.32301   0.00002   0.00000   0.00043   0.00043   1.32344
   D12       -0.68957   0.00001   0.00000   0.00029   0.00029  -0.68928
   D13       -1.12339  -0.00008   0.00000  -0.00059  -0.00059  -1.12399
   D14        3.07395  -0.00009   0.00000  -0.00067  -0.00067   3.07328
   D15        0.98694  -0.00009   0.00000  -0.00076  -0.00076   0.98619
   D16        1.00723   0.00004   0.00000  -0.00047  -0.00047   1.00676
   D17       -1.07861   0.00004   0.00000  -0.00054  -0.00054  -1.07915
   D18        3.11756   0.00003   0.00000  -0.00063  -0.00063   3.11693
   D19        3.02078   0.00004   0.00000  -0.00044  -0.00044   3.02034
   D20        0.93494   0.00004   0.00000  -0.00052  -0.00052   0.93442
   D21       -1.15207   0.00003   0.00000  -0.00060  -0.00060  -1.15267
         Item               Value     Threshold  Converged?
 Maximum Force            0.000071     0.000450     YES
 RMS     Force            0.000021     0.000300     YES
 Maximum Displacement     0.002476     0.001800     NO 
 RMS     Displacement     0.000676     0.001200     YES
 Predicted change in Energy=-7.201666D-08
 Lowest energy point so far.  Saving SCF results.
 GradGradGradGradGradGradGradGradGradGradGradGradGradGradGradGradGradGrad

 Leave Link  103 at Wed May 26 09:20:55 2021, MaxMem=  2147483648 cpu:         0.1
 (Enter /opt/cluster/programs/g09_d.01/g09/l202.exe)
                          Input orientation:                          
 ---------------------------------------------------------------------
 Center     Atomic      Atomic             Coordinates (Angstroms)
 Number     Number       Type             X           Y           Z
 ---------------------------------------------------------------------
      1          6           0        1.682790    1.267417    0.023537
      2          6           0        1.549770   -0.226992    0.043901
      3          1           0        1.083397    1.703708   -0.782058
      4          1           0        2.732006    1.525390   -0.122467
      5          1           0        1.323767    1.700919    0.962987
      6          6           0        0.189366   -0.894247    0.259830
      7          8           0        2.525893   -0.974595   -0.071876
      8          6           0       -1.039901   -0.076504    0.001407
      9          1           0        0.144617   -1.238794    1.299524
     10          1           0        0.148606   -1.783256   -0.374936
     11          9           0       -1.168685    1.006297    0.870278
     12          9           0       -2.189718   -0.842441    0.155411
     13          9           0       -1.076865    0.444768   -1.290485
 ---------------------------------------------------------------------
                    Distance matrix (angstroms):
                    1          2          3          4          5
     1  C    0.000000
     2  C    1.500456   0.000000
     3  H    1.094808   2.151119   0.000000
     4  H    1.090285   2.120425   1.784591   0.000000
     5  H    1.095165   2.147705   1.761524   1.786661   0.000000
     6  C    2.637980   1.530540   2.938399   3.530695   2.918250
     7  O    2.397195   1.234962   3.123853   2.508977   3.110373
     8  C    3.036390   2.594388   2.879473   4.099840   3.109790
     9  H    3.205497   2.138875   3.724595   4.044423   3.185211
    10  H    3.437893   2.135566   3.632974   4.205334   3.912866
    11  F    2.985978   3.097402   2.878971   4.058373   2.589095
    12  F    4.411940   3.791435   4.251471   5.468748   4.411966
    13  F    3.165296   3.021763   2.551501   4.127893   3.524072
                    6          7          8          9         10
     6  C    0.000000
     7  O    2.361322   0.000000
     8  C    1.498861   3.677883   0.000000
     9  H    1.096211   2.760618   2.106919   0.000000
    10  H    1.093127   2.529282   2.113572   1.760758   0.000000
    11  F    2.414336   4.296684   1.394267   2.636181   3.326773
    12  F    2.381938   4.722934   1.390128   2.629679   2.575686
    13  F    2.408273   4.059490   1.393584   3.321828   2.702610
                   11         12         13
    11  F    0.000000
    12  F    2.229658   0.000000
    13  F    2.234422   2.232928   0.000000
 Stoichiometry    C4H5F3O
 Framework group  C1[X(C4H5F3O)]
 Deg. of freedom    33
 Full point group                 C1      NOp   1
 RotChk:  IX=0 Diff= 2.30D-04
 Largest Abelian subgroup         C1      NOp   1
 Largest concise Abelian subgroup C1      NOp   1
                         Standard orientation:                         
 ---------------------------------------------------------------------
 Center     Atomic      Atomic             Coordinates (Angstroms)
 Number     Number       Type             X           Y           Z
 ---------------------------------------------------------------------
      1          6           0       -1.682361    1.267583   -0.023585
      2          6           0       -1.549584   -0.226847   -0.043949
      3          1           0       -1.082897    1.703777    0.782010
      4          1           0       -2.731535    1.525727    0.122419
      5          1           0       -1.323267    1.701027   -0.963035
      6          6           0       -0.189289   -0.894323   -0.259878
      7          8           0       -2.525828   -0.974291    0.071828
      8          6           0        1.040112   -0.076780   -0.001455
      9          1           0       -0.144596   -1.238878   -1.299572
     10          1           0       -0.148673   -1.783339    0.374888
     11          9           0        1.169072    1.005999   -0.870326
     12          9           0        2.189804   -0.842905   -0.155459
     13          9           0        1.077160    0.444486    1.290437
 ---------------------------------------------------------------------
 Rotational constants (GHZ):      3.4923325      1.3365376      1.1996659
 Leave Link  202 at Wed May 26 09:20:55 2021, MaxMem=  2147483648 cpu:         0.0
 (Enter /opt/cluster/programs/g09_d.01/g09/l301.exe)
 Standard basis: 6-31+G (6D, 7F)
 Ernie: Thresh=  0.10000D-02 Tol=  0.10000D-05 Strict=F.
 There are   114 symmetry adapted cartesian basis functions of A   symmetry.
 There are   114 symmetry adapted basis functions of A   symmetry.
   114 basis functions,   228 primitive gaussians,   114 cartesian basis functions
    32 alpha electrons       32 beta electrons
       nuclear repulsion energy       404.6690386959 Hartrees.
 IExCor= 4639 DFT=T Ex+Corr=wB97XD ExCW=0 ScaHFX=  1.000000
 ScaDFX=  1.000000  1.000000  1.000000  1.000000 ScalE2=  1.000000  1.000000
 IRadAn=      0 IRanWt=     -1 IRanGd=            0 ICorTp=0 IEmpDi=121
  HFx wShort=  0.000000 wLong=  0.200000 cFull=  0.222036 cShort=  0.000000 cLong=  0.777964
  DFx wShort=  0.000000 wLong=  0.200000 cFull=  0.000000 cShort=  0.000000 cLong=  1.000000
 NAtoms=   13 NActive=   13 NUniq=   13 SFac= 1.00D+00 NAtFMM=   60 NAOKFM=F Big=F
 Integral buffers will be    131072 words long.
 Raffenetti 2 integral format.
 Two-electron integral symmetry is turned on.
 R6Disp:  Grimme-D2 Dispersion energy=       -0.0062336592 Hartrees.
 Nuclear repulsion after empirical dispersion term =      404.6628050367 Hartrees.
 Leave Link  301 at Wed May 26 09:20:55 2021, MaxMem=  2147483648 cpu:         0.3
 (Enter /opt/cluster/programs/g09_d.01/g09/l302.exe)
 NPDir=0 NMtPBC=     1 NCelOv=     1 NCel=       1 NClECP=     1 NCelD=      1
         NCelK=      1 NCelE2=     1 NClLst=     1 CellRange=     0.0.
 One-electron integrals computed using PRISM.
 NBasis=   114 RedAO= T EigKep=  3.74D-05  NBF=   114
 NBsUse=   114 1.00D-06 EigRej= -1.00D+00 NBFU=   114
 Precomputing XC quadrature grid using
 IXCGrd= 4 IRadAn=           0 IRanWt=          -1 IRanGd=           0 AccXCQ= 0.00D+00.
 Generated NRdTot=       0 NPtTot=           0 NUsed=           0 NTot=          32
 NSgBfM=   114   114   114   114   114 MxSgAt=    13 MxSgA2=    13.
 Leave Link  302 at Wed May 26 09:20:55 2021, MaxMem=  2147483648 cpu:         1.0
 (Enter /opt/cluster/programs/g09_d.01/g09/l303.exe)
 DipDrv:  MaxL=1.
 Leave Link  303 at Wed May 26 09:20:55 2021, MaxMem=  2147483648 cpu:         0.3
 (Enter /opt/cluster/programs/g09_d.01/g09/l401.exe)
 Initial guess from the checkpoint file:  "/home/unibas/boittier/RDKit_G2/N.pdb/SCAN_1_2_6_8_S_17_20.0/15_SCAN_1_2_6_8_F/N.pdb.chk"
 B after Tr=     0.000000    0.000000    0.000000
         Rot=    1.000000    0.000094    0.000053    0.000040 Ang=   0.01 deg.
 Guess basis will be translated and rotated to current coordinates.
 JPrj=2 DoOrth=T DoCkMO=T.
 Leave Link  401 at Wed May 26 09:20:55 2021, MaxMem=  2147483648 cpu:         0.7
 (Enter /opt/cluster/programs/g09_d.01/g09/l502.exe)
 Closed shell SCF:
 Using DIIS extrapolation, IDIIS=  1040.
 Integral symmetry usage will be decided dynamically.
 Keep R1 ints in memory in canonical form, NReq=43969700.
 IVT=       59316 IEndB=       59316 NGot=  2147483648 MDV=  2104449753
 LenX=  2104449753 LenY=  2104436316
 Requested convergence on RMS density matrix=1.00D-08 within 128 cycles.
 Requested convergence on MAX density matrix=1.00D-06.
 Requested convergence on             energy=1.00D-06.
 No special actions if energy rises.
 FoFCou: FMM=F IPFlag=           0 FMFlag=           0 FMFlg1=           0
         NFxFlg=           0 DoJE=F BraDBF=F KetDBF=F FulRan=T
         wScrn=  0.000000 ICntrl=     600 IOpCl=  0 I1Cent=           0 NGrid=           0
         NMat0=    1 NMatS0=   6555 NMatT0=    0 NMatD0=    1 NMtDS0=    0 NMtDT0=    0
 Symmetry not used in FoFCou.

 Cycle   1  Pass 1  IDiag  1:
 E= -529.927632590757    
 DIIS: error= 4.03D-05 at cycle   1 NSaved=   1.
 NSaved= 1 IEnMin= 1 EnMin= -529.927632590757     IErMin= 1 ErrMin= 4.03D-05
 ErrMax= 4.03D-05  0.00D+00 EMaxC= 1.00D-01 BMatC= 3.16D-07 BMatP= 3.16D-07
 IDIUse=1 WtCom= 1.00D+00 WtEn= 0.00D+00
 Coeff-Com:  0.100D+01
 Coeff:      0.100D+01
 Gap=     0.639 Goal=   None    Shift=    0.000
 RMSDP=2.18D-05 MaxDP=4.46D-04              OVMax= 2.31D-04

 Cycle   2  Pass 1  IDiag  1:
 E= -529.927633229049     Delta-E=       -0.000000638292 Rises=F Damp=F
 DIIS: error= 9.76D-06 at cycle   2 NSaved=   2.
 NSaved= 2 IEnMin= 2 EnMin= -529.927633229049     IErMin= 2 ErrMin= 9.76D-06
 ErrMax= 9.76D-06  0.00D+00 EMaxC= 1.00D-01 BMatC= 1.49D-08 BMatP= 3.16D-07
 IDIUse=1 WtCom= 1.00D+00 WtEn= 0.00D+00
 Coeff-Com: -0.190D+00 0.119D+01
 Coeff:     -0.190D+00 0.119D+01
 Gap=     0.384 Goal=   None    Shift=    0.000
 RMSDP=4.67D-06 MaxDP=7.63D-05 DE=-6.38D-07 OVMax= 9.00D-05

 Cycle   3  Pass 1  IDiag  1:
 E= -529.927633270929     Delta-E=       -0.000000041879 Rises=F Damp=F
 DIIS: error= 3.78D-06 at cycle   3 NSaved=   3.
 NSaved= 3 IEnMin= 3 EnMin= -529.927633270929     IErMin= 3 ErrMin= 3.78D-06
 ErrMax= 3.78D-06  0.00D+00 EMaxC= 1.00D-01 BMatC= 2.43D-09 BMatP= 1.49D-08
 IDIUse=1 WtCom= 1.00D+00 WtEn= 0.00D+00
 Coeff-Com: -0.751D-01 0.361D+00 0.714D+00
 Coeff:     -0.751D-01 0.361D+00 0.714D+00
 Gap=     0.384 Goal=   None    Shift=    0.000
 RMSDP=1.13D-06 MaxDP=2.81D-05 DE=-4.19D-08 OVMax= 1.90D-05

 Cycle   4  Pass 1  IDiag  1:
 E= -529.927633273042     Delta-E=       -0.000000002114 Rises=F Damp=F
 DIIS: error= 2.12D-06 at cycle   4 NSaved=   4.
 NSaved= 4 IEnMin= 4 EnMin= -529.927633273042     IErMin= 4 ErrMin= 2.12D-06
 ErrMax= 2.12D-06  0.00D+00 EMaxC= 1.00D-01 BMatC= 8.17D-10 BMatP= 2.43D-09
 IDIUse=1 WtCom= 1.00D+00 WtEn= 0.00D+00
 Coeff-Com:  0.415D-02-0.793D-01 0.355D+00 0.720D+00
 Coeff:      0.415D-02-0.793D-01 0.355D+00 0.720D+00
 Gap=     0.384 Goal=   None    Shift=    0.000
 RMSDP=6.51D-07 MaxDP=2.08D-05 DE=-2.11D-09 OVMax= 1.35D-05

 Cycle   5  Pass 1  IDiag  1:
 E= -529.927633273843     Delta-E=       -0.000000000801 Rises=F Damp=F
 DIIS: error= 7.26D-07 at cycle   5 NSaved=   5.
 NSaved= 5 IEnMin= 5 EnMin= -529.927633273843     IErMin= 5 ErrMin= 7.26D-07
 ErrMax= 7.26D-07  0.00D+00 EMaxC= 1.00D-01 BMatC= 5.76D-11 BMatP= 8.17D-10
 IDIUse=1 WtCom= 1.00D+00 WtEn= 0.00D+00
 Coeff-Com:  0.678D-02-0.557D-01 0.840D-01 0.284D+00 0.681D+00
 Coeff:      0.678D-02-0.557D-01 0.840D-01 0.284D+00 0.681D+00
 Gap=     0.384 Goal=   None    Shift=    0.000
 RMSDP=2.90D-07 MaxDP=1.07D-05 DE=-8.01D-10 OVMax= 5.83D-06

 Cycle   6  Pass 1  IDiag  1:
 E= -529.927633273939     Delta-E=       -0.000000000096 Rises=F Damp=F
 DIIS: error= 4.14D-07 at cycle   6 NSaved=   6.
 NSaved= 6 IEnMin= 6 EnMin= -529.927633273939     IErMin= 6 ErrMin= 4.14D-07
 ErrMax= 4.14D-07  0.00D+00 EMaxC= 1.00D-01 BMatC= 1.49D-11 BMatP= 5.76D-11
 IDIUse=1 WtCom= 1.00D+00 WtEn= 0.00D+00
 Coeff-Com:  0.294D-02-0.153D-01-0.216D-01 0.124D-01 0.320D+00 0.702D+00
 Coeff:      0.294D-02-0.153D-01-0.216D-01 0.124D-01 0.320D+00 0.702D+00
 Gap=     0.384 Goal=   None    Shift=    0.000
 RMSDP=1.42D-07 MaxDP=4.57D-06 DE=-9.58D-11 OVMax= 4.26D-06

 Cycle   7  Pass 1  IDiag  1:
 E= -529.927633273971     Delta-E=       -0.000000000031 Rises=F Damp=F
 DIIS: error= 2.82D-07 at cycle   7 NSaved=   7.
 NSaved= 7 IEnMin= 7 EnMin= -529.927633273971     IErMin= 7 ErrMin= 2.82D-07
 ErrMax= 2.82D-07  0.00D+00 EMaxC= 1.00D-01 BMatC= 3.16D-12 BMatP= 1.49D-11
 IDIUse=1 WtCom= 1.00D+00 WtEn= 0.00D+00
 Coeff-Com: -0.106D-02 0.124D-01-0.380D-01-0.900D-01-0.775D-01 0.284D+00
 Coeff-Com:  0.910D+00
 Coeff:     -0.106D-02 0.124D-01-0.380D-01-0.900D-01-0.775D-01 0.284D+00
 Coeff:      0.910D+00
 Gap=     0.384 Goal=   None    Shift=    0.000
 RMSDP=1.05D-07 MaxDP=2.27D-06 DE=-3.13D-11 OVMax= 3.87D-06

 Cycle   8  Pass 1  IDiag  1:
 E= -529.927633273979     Delta-E=       -0.000000000008 Rises=F Damp=F
 DIIS: error= 9.12D-08 at cycle   8 NSaved=   8.
 NSaved= 8 IEnMin= 8 EnMin= -529.927633273979     IErMin= 8 ErrMin= 9.12D-08
 ErrMax= 9.12D-08  0.00D+00 EMaxC= 1.00D-01 BMatC= 2.97D-13 BMatP= 3.16D-12
 IDIUse=1 WtCom= 1.00D+00 WtEn= 0.00D+00
 Coeff-Com: -0.454D-03 0.253D-02 0.331D-02-0.368D-02-0.516D-01-0.117D+00
 Coeff-Com:  0.224D-01 0.114D+01
 Coeff:     -0.454D-03 0.253D-02 0.331D-02-0.368D-02-0.516D-01-0.117D+00
 Coeff:      0.224D-01 0.114D+01
 Gap=     0.384 Goal=   None    Shift=    0.000
 RMSDP=4.53D-08 MaxDP=9.80D-07 DE=-8.41D-12 OVMax= 1.86D-06

 Cycle   9  Pass 1  IDiag  1:
 E= -529.927633273979     Delta-E=        0.000000000000 Rises=F Damp=F
 DIIS: error= 2.76D-08 at cycle   9 NSaved=   9.
 NSaved= 9 IEnMin= 8 EnMin= -529.927633273979     IErMin= 9 ErrMin= 2.76D-08
 ErrMax= 2.76D-08  0.00D+00 EMaxC= 1.00D-01 BMatC= 7.02D-14 BMatP= 2.97D-13
 IDIUse=1 WtCom= 1.00D+00 WtEn= 0.00D+00
 Coeff-Com: -0.203D-04-0.883D-03 0.713D-02 0.124D-01-0.885D-02-0.853D-01
 Coeff-Com: -0.129D+00 0.432D+00 0.773D+00
 Coeff:     -0.203D-04-0.883D-03 0.713D-02 0.124D-01-0.885D-02-0.853D-01
 Coeff:     -0.129D+00 0.432D+00 0.773D+00
 Gap=     0.384 Goal=   None    Shift=    0.000
 RMSDP=1.16D-08 MaxDP=2.69D-07 DE= 0.00D+00 OVMax= 4.98D-07

 Cycle  10  Pass 1  IDiag  1:
 E= -529.927633273981     Delta-E=       -0.000000000002 Rises=F Damp=F
 DIIS: error= 6.41D-09 at cycle  10 NSaved=  10.
 NSaved=10 IEnMin=10 EnMin= -529.927633273981     IErMin=10 ErrMin= 6.41D-09
 ErrMax= 6.41D-09  0.00D+00 EMaxC= 1.00D-01 BMatC= 7.74D-15 BMatP= 7.02D-14
 IDIUse=1 WtCom= 1.00D+00 WtEn= 0.00D+00
 Coeff-Com:  0.629D-04-0.658D-03 0.160D-02 0.445D-02 0.543D-02-0.776D-02
 Coeff-Com: -0.451D-01-0.385D-01 0.230D+00 0.850D+00
 Coeff:      0.629D-04-0.658D-03 0.160D-02 0.445D-02 0.543D-02-0.776D-02
 Coeff:     -0.451D-01-0.385D-01 0.230D+00 0.850D+00
 Gap=     0.384 Goal=   None    Shift=    0.000
 RMSDP=4.76D-09 MaxDP=1.19D-07 DE=-2.27D-12 OVMax= 1.37D-07

 SCF Done:  E(RwB97XD) =  -529.927633274     A.U. after   10 cycles
            NFock= 10  Conv=0.48D-08     -V/T= 2.0052
 KE= 5.271902231287D+02 PE=-2.059609997427D+03 EE= 5.978293359873D+02
 Leave Link  502 at Wed May 26 09:20:58 2021, MaxMem=  2147483648 cpu:        22.3
 (Enter /opt/cluster/programs/g09_d.01/g09/l701.exe)
 Compute integral first derivatives.
 ... and contract with generalized density number  0.
 R6Disp: Adding Grimme-D2 dispersion energy 1st derivatives to the gradient.
 Leave Link  701 at Wed May 26 09:20:58 2021, MaxMem=  2147483648 cpu:         0.6
 (Enter /opt/cluster/programs/g09_d.01/g09/l702.exe)
 L702 exits ... SP integral derivatives will be done elsewhere.
 Leave Link  702 at Wed May 26 09:20:58 2021, MaxMem=  2147483648 cpu:         0.2
 (Enter /opt/cluster/programs/g09_d.01/g09/l703.exe)
 Compute integral first derivatives, UseDBF=F ICtDFT=           0.
 Integral derivatives from FoFJK, PRISM(SPDF).
 Calling FoFJK, ICntrl=      2127 FMM=F ISym2X=0 I1Cent= 0 IOpClX= 0 NMat=1 NMatS=1 NMatT=0.
 FoFJK:  IHMeth= 1 ICntrl=    2127 DoSepK=T KAlg= 0 I1Cent=   0 FoldK=F
 IRaf=         1 NMat=   1 IRICut=       1 DoRegI=T DoRafI=F ISym2E= 0.
 FoFCou: FMM=F IPFlag=           0 FMFlag=      100000 FMFlg1=         800
         NFxFlg=           0 DoJE=F BraDBF=F KetDBF=F FulRan=T
         wScrn=  0.000000 ICntrl=    2527 IOpCl=  0 I1Cent=           0 NGrid=           0
         NMat0=    1 NMatS0=      1 NMatT0=    0 NMatD0=    1 NMtDS0=    0 NMtDT0=    0
 Symmetry not used in FoFCou.
 Leave Link  703 at Wed May 26 09:20:59 2021, MaxMem=  2147483648 cpu:         8.6
 (Enter /opt/cluster/programs/g09_d.01/g09/l716.exe)
 Dipole        =-1.18308333D-02 2.57693935D-01-3.41646804D-01
 ***** Axes restored to original set *****
 -------------------------------------------------------------------
 Center     Atomic                   Forces (Hartrees/Bohr)
 Number     Number              X              Y              Z
 -------------------------------------------------------------------
      1        6           0.000062536   -0.000007358    0.000417416
      2        6          -0.000076415   -0.000066510   -0.000824892
      3        1           0.000055290    0.000016622    0.000022972
      4        1          -0.000000054   -0.000005372    0.000014817
      5        1           0.000005167   -0.000000264    0.000006745
      6        6           0.000028606    0.000166146    0.000756703
      7        8          -0.000006748   -0.000001903    0.000031258
      8        6          -0.000012606   -0.000118769   -0.000368629
      9        1          -0.000012739    0.000001460   -0.000006446
     10        1          -0.000006186   -0.000002460    0.000000465
     11        9          -0.000012354    0.000003154   -0.000001448
     12        9           0.000002854    0.000021066   -0.000022179
     13        9          -0.000027352   -0.000005812   -0.000026781
 -------------------------------------------------------------------
 Cartesian Forces:  Max     0.000824892 RMS     0.000204322
 Leave Link  716 at Wed May 26 09:20:59 2021, MaxMem=  2147483648 cpu:         0.2
 (Enter /opt/cluster/programs/g09_d.01/g09/l103.exe)

 GradGradGradGradGradGradGradGradGradGradGradGradGradGradGradGradGradGrad
 Berny optimization.
 Using GEDIIS/GDIIS optimizer.
 FormGI is forming the generalized inverse of G from B-inverse, IUseBI=4.
 Internal  Forces:  Max     0.000397314 RMS     0.000092212
 Search for a local minimum.
 Step number   2 out of a maximum of   64
 All quantities printed in internal units (Hartrees-Bohrs-Radians)
 RMS Force = .30097D-04 SwitMx=.10000D-02 MixMth= 2
 Mixed Optimization -- En-DIIS/RFO-DIIS
 Swapping is turned off.
 Update second derivatives using D2CorX and points    1    2
 DE=  9.45D-08 DEPred=-7.20D-08 R=-1.31D+00
 Trust test=-1.31D+00 RLast= 2.39D-03 DXMaxT set to 1.50D-01
 ITU= -1  0
     Eigenvalues ---    0.00540   0.00762   0.00919   0.02945   0.05555
     Eigenvalues ---    0.07423   0.07453   0.08536   0.08694   0.10038
     Eigenvalues ---    0.12170   0.15757   0.16000   0.16433   0.23631
     Eigenvalues ---    0.24917   0.24991   0.25000   0.25000   0.28387
     Eigenvalues ---    0.31612   0.32180   0.33990   0.34108   0.34171
     Eigenvalues ---    0.34452   0.34750   0.43912   0.46586   0.46957
     Eigenvalues ---    0.48036   0.880631000.000001000.000001000.00000
     Eigenvalues --- 1000.000001000.000001000.000001000.000001000.00000
     Eigenvalues --- 1000.000001000.000001000.000001000.000001000.00000
     Eigenvalues --- 1000.000001000.000001000.000001000.000001000.00000
     Eigenvalues --- 1000.000001000.000001000.000001000.00000
 En-DIIS/RFO-DIIS IScMMF=        0 using points:     2    1
 RFO step:  Lambda=-9.05154760D-08.
 NNeg= 0 NP= 2 Switch=  2.50D-03 Rises=F DC= -9.45D-08 SmlDif=  1.00D-05
 RMS Error=  0.5402174357D-04 NUsed= 2 EDIIS=F
 DidBck=T Rises=F RFO-DIIS coefs:    0.39213    0.60787
 Iteration  1 RMS(Cart)=  0.00046973 RMS(Int)=  0.00000015
 Iteration  2 RMS(Cart)=  0.00000016 RMS(Int)=  0.00000005
 Iteration  1 RMS(Cart)=  0.00000004 RMS(Int)=  0.00000002
 ITry= 1 IFail=0 DXMaxC= 1.57D-03 DCOld= 1.00D+10 DXMaxT= 1.50D-01 DXLimC= 3.00D+00 Rises=F
 Variable       Old X    -DE/DX   Delta X   Delta X   Delta X     New X
                                 (Linear)    (Quad)   (Total)
    R1        2.83545   0.00003   0.00008  -0.00007   0.00001   2.83546
    R2        2.06889  -0.00003  -0.00003   0.00000  -0.00003   2.06886
    R3        2.06034  -0.00001  -0.00002   0.00002   0.00000   2.06034
    R4        2.06956   0.00000  -0.00002   0.00003   0.00001   2.06957
    R5        2.89230   0.00006   0.00003   0.00004   0.00007   2.89237
    R6        2.33374  -0.00001   0.00003  -0.00004  -0.00001   2.33373
    R7        2.83244   0.00004   0.00003   0.00001   0.00004   2.83247
    R8        2.07154   0.00000   0.00000   0.00000   0.00000   2.07154
    R9        2.06571   0.00000   0.00000   0.00001   0.00000   2.06571
   R10        2.63478   0.00000   0.00000   0.00000   0.00000   2.63478
   R11        2.62696  -0.00001   0.00001  -0.00002  -0.00001   2.62695
   R12        2.63349   0.00001   0.00000   0.00001   0.00001   2.63350
    A1        1.93730   0.00005   0.00018  -0.00009   0.00009   1.93739
    A2        1.89947  -0.00001  -0.00012   0.00011  -0.00001   1.89946
    A3        1.93214   0.00000   0.00005  -0.00005   0.00000   1.93214
    A4        1.91138  -0.00003  -0.00006  -0.00001  -0.00007   1.91131
    A5        1.86919  -0.00001  -0.00001   0.00002   0.00001   1.86920
    A6        1.91420  -0.00001  -0.00004   0.00002  -0.00003   1.91417
    A7        2.11171   0.00008   0.00014  -0.00006   0.00009   2.11179
    A8        2.13126  -0.00005  -0.00009   0.00004  -0.00006   2.13120
    A9        2.03964  -0.00004  -0.00006   0.00000  -0.00006   2.03958
   A10        2.05646   0.00012   0.00020  -0.00002   0.00018   2.05664
   A11        1.88296  -0.00005  -0.00011   0.00000  -0.00011   1.88285
   A12        1.88155  -0.00002  -0.00008   0.00013   0.00005   1.88160
   A13        1.87709   0.00013  -0.00010   0.00000  -0.00010   1.87698
   A14        1.88915  -0.00019   0.00006  -0.00005   0.00001   1.88916
   A15        1.86880   0.00001   0.00001  -0.00006  -0.00005   1.86875
   A16        1.97361   0.00001   0.00001   0.00003   0.00003   1.97364
   A17        1.93762  -0.00001  -0.00003   0.00000  -0.00003   1.93759
   A18        1.96672   0.00004   0.00008  -0.00003   0.00005   1.96677
   A19        1.85716  -0.00001  -0.00002  -0.00001  -0.00003   1.85713
   A20        1.85955   0.00000   0.00003   0.00001   0.00004   1.85959
   A21        1.86174  -0.00003  -0.00006   0.00000  -0.00007   1.86167
    D1       -1.05662  -0.00011  -0.00047  -0.00034  -0.00081  -1.05743
    D2        2.12256   0.00008  -0.00012   0.00035   0.00024   2.12279
    D3        3.12181  -0.00010  -0.00043  -0.00035  -0.00078   3.12104
    D4        0.01781   0.00009  -0.00008   0.00035   0.00027   0.01808
    D5        1.01678  -0.00009  -0.00034  -0.00040  -0.00074   1.01604
    D6       -2.08723   0.00010   0.00002   0.00029   0.00031  -2.08692
    D7        0.34528   0.00040   0.00000   0.00000   0.00000   0.34528
    D8       -1.78246   0.00018   0.00007   0.00003   0.00010  -1.78236
    D9        2.48800   0.00021   0.00016   0.00003   0.00019   2.48819
   D10       -2.83200   0.00022  -0.00034  -0.00066  -0.00100  -2.83299
   D11        1.32344   0.00000  -0.00026  -0.00063  -0.00090   1.32255
   D12       -0.68928   0.00002  -0.00018  -0.00063  -0.00081  -0.69009
   D13       -1.12399  -0.00008   0.00036  -0.00011   0.00026  -1.12373
   D14        3.07328  -0.00007   0.00041  -0.00011   0.00030   3.07358
   D15        0.98619  -0.00005   0.00046  -0.00009   0.00037   0.98655
   D16        1.00676   0.00004   0.00028  -0.00013   0.00015   1.00691
   D17       -1.07915   0.00005   0.00033  -0.00014   0.00019  -1.07896
   D18        3.11693   0.00007   0.00038  -0.00012   0.00027   3.11720
   D19        3.02034   0.00002   0.00027  -0.00022   0.00005   3.02039
   D20        0.93442   0.00003   0.00032  -0.00023   0.00009   0.93451
   D21       -1.15267   0.00005   0.00037  -0.00021   0.00016  -1.15251
         Item               Value     Threshold  Converged?
 Maximum Force            0.000118     0.000450     YES
 RMS     Force            0.000030     0.000300     YES
 Maximum Displacement     0.001565     0.001800     YES
 RMS     Displacement     0.000470     0.001200     YES
 Predicted change in Energy=-7.873214D-08
 Optimization completed.
    -- Stationary point found.
                           ----------------------------
                           !   Optimized Parameters   !
                           ! (Angstroms and Degrees)  !
 --------------------------                            --------------------------
 ! Name  Definition              Value          Derivative Info.                !
 --------------------------------------------------------------------------------
 ! R1    R(1,2)                  1.5005         -DE/DX =    0.0                 !
 ! R2    R(1,3)                  1.0948         -DE/DX =    0.0                 !
 ! R3    R(1,4)                  1.0903         -DE/DX =    0.0                 !
 ! R4    R(1,5)                  1.0952         -DE/DX =    0.0                 !
 ! R5    R(2,6)                  1.5305         -DE/DX =    0.0001              !
 ! R6    R(2,7)                  1.235          -DE/DX =    0.0                 !
 ! R7    R(6,8)                  1.4989         -DE/DX =    0.0                 !
 ! R8    R(6,9)                  1.0962         -DE/DX =    0.0                 !
 ! R9    R(6,10)                 1.0931         -DE/DX =    0.0                 !
 ! R10   R(8,11)                 1.3943         -DE/DX =    0.0                 !
 ! R11   R(8,12)                 1.3901         -DE/DX =    0.0                 !
 ! R12   R(8,13)                 1.3936         -DE/DX =    0.0                 !
 ! A1    A(2,1,3)              110.999          -DE/DX =    0.0001              !
 ! A2    A(2,1,4)              108.8317         -DE/DX =    0.0                 !
 ! A3    A(2,1,5)              110.7036         -DE/DX =    0.0                 !
 ! A4    A(3,1,4)              109.5138         -DE/DX =    0.0                 !
 ! A5    A(3,1,5)              107.0967         -DE/DX =    0.0                 !
 ! A6    A(4,1,5)              109.6755         -DE/DX =    0.0                 !
 ! A7    A(1,2,6)              120.9919         -DE/DX =    0.0001              !
 ! A8    A(1,2,7)              122.1123         -DE/DX =   -0.0001              !
 ! A9    A(6,2,7)              116.8628         -DE/DX =    0.0                 !
 ! A10   A(2,6,8)              117.8264         -DE/DX =    0.0001              !
 ! A11   A(2,6,9)              107.8855         -DE/DX =    0.0                 !
 ! A12   A(2,6,10)             107.8047         -DE/DX =    0.0                 !
 ! A13   A(8,6,9)              107.5491         -DE/DX =    0.0001              !
 ! A14   A(8,6,10)             108.2403         -DE/DX =   -0.0002              !
 ! A15   A(9,6,10)             107.0742         -DE/DX =    0.0                 !
 ! A16   A(6,8,11)             113.0796         -DE/DX =    0.0                 !
 ! A17   A(6,8,12)             111.0175         -DE/DX =    0.0                 !
 ! A18   A(6,8,13)             112.6846         -DE/DX =    0.0                 !
 ! A19   A(11,8,12)            106.4072         -DE/DX =    0.0                 !
 ! A20   A(11,8,13)            106.5444         -DE/DX =    0.0                 !
 ! A21   A(12,8,13)            106.6699         -DE/DX =    0.0                 !
 ! D1    D(3,1,2,6)            -60.54           -DE/DX =   -0.0001              !
 ! D2    D(3,1,2,7)            121.6136         -DE/DX =    0.0001              !
 ! D3    D(4,1,2,6)            178.8667         -DE/DX =   -0.0001              !
 ! D4    D(4,1,2,7)              1.0203         -DE/DX =    0.0001              !
 ! D5    D(5,1,2,6)             58.257          -DE/DX =   -0.0001              !
 ! D6    D(5,1,2,7)           -119.5894         -DE/DX =    0.0001              !
 ! D7    D(1,2,6,8)             19.7833         -DE/DX =    0.0004              !
 ! D8    D(1,2,6,9)           -102.1275         -DE/DX =    0.0002              !
 ! D9    D(1,2,6,10)           142.552          -DE/DX =    0.0002              !
 ! D10   D(7,2,6,8)           -162.2614         -DE/DX =    0.0002              !
 ! D11   D(7,2,6,9)             75.8278         -DE/DX =    0.0                 !
 ! D12   D(7,2,6,10)           -39.4927         -DE/DX =    0.0                 !
 ! D13   D(2,6,8,11)           -64.3997         -DE/DX =   -0.0001              !
 ! D14   D(2,6,8,12)           176.0861         -DE/DX =   -0.0001              !
 ! D15   D(2,6,8,13)            56.5043         -DE/DX =   -0.0001              !
 ! D16   D(9,6,8,11)            57.6832         -DE/DX =    0.0                 !
 ! D17   D(9,6,8,12)           -61.831          -DE/DX =    0.0001              !
 ! D18   D(9,6,8,13)           178.5871         -DE/DX =    0.0001              !
 ! D19   D(10,6,8,11)          173.0528         -DE/DX =    0.0                 !
 ! D20   D(10,6,8,12)           53.5385         -DE/DX =    0.0                 !
 ! D21   D(10,6,8,13)          -66.0433         -DE/DX =    0.0001              !
 --------------------------------------------------------------------------------
 GradGradGradGradGradGradGradGradGradGradGradGradGradGradGradGradGradGrad

 Largest change from initial coordinates is atom    3       0.001 Angstoms.
 Leave Link  103 at Wed May 26 09:20:59 2021, MaxMem=  2147483648 cpu:         0.1
 (Enter /opt/cluster/programs/g09_d.01/g09/l202.exe)
                          Input orientation:                          
 ---------------------------------------------------------------------
 Center     Atomic      Atomic             Coordinates (Angstroms)
 Number     Number       Type             X           Y           Z
 ---------------------------------------------------------------------
      1          6           0        1.682790    1.267417    0.023537
      2          6           0        1.549770   -0.226992    0.043901
      3          1           0        1.083397    1.703708   -0.782058
      4          1           0        2.732006    1.525390   -0.122467
      5          1           0        1.323767    1.700919    0.962987
      6          6           0        0.189366   -0.894247    0.259830
      7          8           0        2.525893   -0.974595   -0.071876
      8          6           0       -1.039901   -0.076504    0.001407
      9          1           0        0.144617   -1.238794    1.299524
     10          1           0        0.148606   -1.783256   -0.374936
     11          9           0       -1.168685    1.006297    0.870278
     12          9           0       -2.189718   -0.842441    0.155411
     13          9           0       -1.076865    0.444768   -1.290485
 ---------------------------------------------------------------------
                    Distance matrix (angstroms):
                    1          2          3          4          5
     1  C    0.000000
     2  C    1.500456   0.000000
     3  H    1.094808   2.151119   0.000000
     4  H    1.090285   2.120425   1.784591   0.000000
     5  H    1.095165   2.147705   1.761524   1.786661   0.000000
     6  C    2.637980   1.530540   2.938399   3.530695   2.918250
     7  O    2.397195   1.234962   3.123853   2.508977   3.110373
     8  C    3.036390   2.594388   2.879473   4.099840   3.109790
     9  H    3.205497   2.138875   3.724595   4.044423   3.185211
    10  H    3.437893   2.135566   3.632974   4.205334   3.912866
    11  F    2.985978   3.097402   2.878971   4.058373   2.589095
    12  F    4.411940   3.791435   4.251471   5.468748   4.411966
    13  F    3.165296   3.021763   2.551501   4.127893   3.524072
                    6          7          8          9         10
     6  C    0.000000
     7  O    2.361322   0.000000
     8  C    1.498861   3.677883   0.000000
     9  H    1.096211   2.760618   2.106919   0.000000
    10  H    1.093127   2.529282   2.113572   1.760758   0.000000
    11  F    2.414336   4.296684   1.394267   2.636181   3.326773
    12  F    2.381938   4.722934   1.390128   2.629679   2.575686
    13  F    2.408273   4.059490   1.393584   3.321828   2.702610
                   11         12         13
    11  F    0.000000
    12  F    2.229658   0.000000
    13  F    2.234422   2.232928   0.000000
 Stoichiometry    C4H5F3O
 Framework group  C1[X(C4H5F3O)]
 Deg. of freedom    33
 Full point group                 C1      NOp   1
 RotChk:  IX=0 Diff= 5.83D-16
 Largest Abelian subgroup         C1      NOp   1
 Largest concise Abelian subgroup C1      NOp   1
                         Standard orientation:                         
 ---------------------------------------------------------------------
 Center     Atomic      Atomic             Coordinates (Angstroms)
 Number     Number       Type             X           Y           Z
 ---------------------------------------------------------------------
      1          6           0       -1.682361    1.267583   -0.023585
      2          6           0       -1.549584   -0.226847   -0.043949
      3          1           0       -1.082897    1.703777    0.782010
      4          1           0       -2.731535    1.525727    0.122419
      5          1           0       -1.323267    1.701027   -0.963035
      6          6           0       -0.189289   -0.894323   -0.259878
      7          8           0       -2.525828   -0.974291    0.071828
      8          6           0        1.040112   -0.076780   -0.001455
      9          1           0       -0.144596   -1.238878   -1.299572
     10          1           0       -0.148673   -1.783339    0.374888
     11          9           0        1.169072    1.005999   -0.870326
     12          9           0        2.189804   -0.842905   -0.155459
     13          9           0        1.077160    0.444486    1.290437
 ---------------------------------------------------------------------
 Rotational constants (GHZ):      3.4923325      1.3365376      1.1996659
 Leave Link  202 at Wed May 26 09:20:59 2021, MaxMem=  2147483648 cpu:         0.0
 (Enter /opt/cluster/programs/g09_d.01/g09/l601.exe)
 Copying SCF densities to generalized density rwf, IOpCl= 0 IROHF=0.

 **********************************************************************

            Population analysis using the SCF density.

 **********************************************************************

 Orbital symmetries:
       Occupied  (A) (A) (A) (A) (A) (A) (A) (A) (A) (A) (A) (A)
                 (A) (A) (A) (A) (A) (A) (A) (A) (A) (A) (A) (A)
                 (A) (A) (A) (A) (A) (A) (A) (A)
       Virtual   (A) (A) (A) (A) (A) (A) (A) (A) (A) (A) (A) (A)
                 (A) (A) (A) (A) (A) (A) (A) (A) (A) (A) (A) (A)
                 (A) (A) (A) (A) (A) (A) (A) (A) (A) (A) (A) (A)
                 (A) (A) (A) (A) (A) (A) (A) (A) (A) (A) (A) (A)
                 (A) (A) (A) (A) (A) (A) (A) (A) (A) (A) (A) (A)
                 (A) (A) (A) (A) (A) (A) (A) (A) (A) (A) (A) (A)
                 (A) (A) (A) (A) (A) (A) (A) (A) (A) (A)
 The electronic state is 1-A.
 Alpha  occ. eigenvalues --  -24.89289 -24.89278 -24.89118 -19.30178 -10.59551
 Alpha  occ. eigenvalues --  -10.43982 -10.36470 -10.31992  -1.44063  -1.35581
 Alpha  occ. eigenvalues --   -1.35520  -1.19433  -0.95262  -0.87230  -0.80273
 Alpha  occ. eigenvalues --   -0.71126  -0.70456  -0.69309  -0.64258  -0.59829
 Alpha  occ. eigenvalues --   -0.58475  -0.57731  -0.57073  -0.55099  -0.54210
 Alpha  occ. eigenvalues --   -0.53766  -0.52931  -0.52296  -0.50446  -0.49558
 Alpha  occ. eigenvalues --   -0.45959  -0.36963
 Alpha virt. eigenvalues --    0.01403   0.06248   0.08162   0.09545   0.10073
 Alpha virt. eigenvalues --    0.10641   0.11217   0.11610   0.12898   0.13401
 Alpha virt. eigenvalues --    0.13759   0.16053   0.16582   0.17548   0.17714
 Alpha virt. eigenvalues --    0.18072   0.18510   0.20735   0.21045   0.22251
 Alpha virt. eigenvalues --    0.25067   0.26681   0.27933   0.29337   0.31338
 Alpha virt. eigenvalues --    0.33239   0.33829   0.34603   0.36093   0.37293
 Alpha virt. eigenvalues --    0.38152   0.38648   0.38965   0.40400   0.41805
 Alpha virt. eigenvalues --    0.42962   0.43424   0.44312   0.45053   0.45243
 Alpha virt. eigenvalues --    0.47155   0.49429   0.50921   0.52373   0.54441
 Alpha virt. eigenvalues --    0.72245   0.73638   0.75218   0.76747   0.80765
 Alpha virt. eigenvalues --    0.82993   0.83788   0.86686   0.91333   0.93641
 Alpha virt. eigenvalues --    0.95257   1.06922   1.10705   1.14766   1.16525
 Alpha virt. eigenvalues --    1.19952   1.22169   1.22840   1.34060   1.38822
 Alpha virt. eigenvalues --    1.43716   1.47573   1.51221   1.56918   1.58996
 Alpha virt. eigenvalues --    1.65315   1.67032   1.68810   1.74145   1.79543
 Alpha virt. eigenvalues --    1.82309   1.83617   1.85458   1.97078   2.28875
 Alpha virt. eigenvalues --    2.33807   2.69739
          Condensed to atoms (all electrons):
               1          2          3          4          5          6
     1  C    8.803956  -1.207131   0.324577   0.344503   0.312901  -1.546956
     2  C   -1.207131   6.548563  -0.003912  -0.028806  -0.006834  -0.549700
     3  H    0.324577  -0.003912   0.449570  -0.019327  -0.021266  -0.010185
     4  H    0.344503  -0.028806  -0.019327   0.445822  -0.019251   0.035870
     5  H    0.312901  -0.006834  -0.021266  -0.019251   0.453890   0.032289
     6  C   -1.546956  -0.549700  -0.010185   0.035870   0.032289   8.848779
     7  O   -0.111294   0.485345   0.004371  -0.004963   0.001597  -0.292609
     8  C   -0.093068   0.166853   0.013973  -0.004787  -0.008897  -0.229804
     9  H    0.004636  -0.017425   0.000085  -0.000063  -0.000057   0.371332
    10  H    0.008610  -0.007380  -0.000071  -0.000074   0.000009   0.350765
    11  F    0.010069   0.015543  -0.004121   0.000304  -0.000284  -0.131110
    12  F   -0.013732   0.008588   0.000247   0.000023  -0.000098  -0.094619
    13  F   -0.036919   0.097430   0.005557   0.000011  -0.001162  -0.224902
               7          8          9         10         11         12
     1  C   -0.111294  -0.093068   0.004636   0.008610   0.010069  -0.013732
     2  C    0.485345   0.166853  -0.017425  -0.007380   0.015543   0.008588
     3  H    0.004371   0.013973   0.000085  -0.000071  -0.004121   0.000247
     4  H   -0.004963  -0.004787  -0.000063  -0.000074   0.000304   0.000023
     5  H    0.001597  -0.008897  -0.000057   0.000009  -0.000284  -0.000098
     6  C   -0.292609  -0.229804   0.371332   0.350765  -0.131110  -0.094619
     7  O    8.325910   0.006970  -0.003570  -0.004657  -0.001737  -0.001053
     8  C    0.006970   5.329536  -0.052521  -0.040522   0.111798   0.119321
     9  H   -0.003570  -0.052521   0.417532  -0.016221  -0.004754  -0.002618
    10  H   -0.004657  -0.040522  -0.016221   0.410457   0.006717  -0.000696
    11  F   -0.001737   0.111798  -0.004754   0.006717   9.297513  -0.051844
    12  F   -0.001053   0.119321  -0.002618  -0.000696  -0.051844   9.296481
    13  F   -0.002052   0.179605   0.007181  -0.004327  -0.053285  -0.053557
              13
     1  C   -0.036919
     2  C    0.097430
     3  H    0.005557
     4  H    0.000011
     5  H   -0.001162
     6  C   -0.224902
     7  O   -0.002052
     8  C    0.179605
     9  H    0.007181
    10  H   -0.004327
    11  F   -0.053285
    12  F   -0.053557
    13  F    9.286274
 Mulliken charges:
               1
     1  C   -0.800152
     2  C    0.498865
     3  H    0.260502
     4  H    0.250739
     5  H    0.257163
     6  C   -0.559150
     7  O   -0.402257
     8  C    0.501544
     9  H    0.296462
    10  H    0.297389
    11  F   -0.194809
    12  F   -0.206444
    13  F   -0.199853
 Sum of Mulliken charges =   0.00000
 Mulliken charges with hydrogens summed into heavy atoms:
               1
     1  C   -0.031748
     2  C    0.498865
     6  C    0.034701
     7  O   -0.402257
     8  C    0.501544
    11  F   -0.194809
    12  F   -0.206444
    13  F   -0.199853
 Electronic spatial extent (au):  <R**2>=            981.1071
 Charge=              0.0000 electrons
 Dipole moment (field-independent basis, Debye):
    X=             -0.0301    Y=              0.6550    Z=             -0.8684  Tot=              1.0881
 Quadrupole moment (field-independent basis, Debye-Ang):
   XX=            -57.9848   YY=            -45.1301   ZZ=            -45.3606
   XY=             -6.3582   XZ=              0.7212   YZ=              0.7737
 Traceless Quadrupole moment (field-independent basis, Debye-Ang):
   XX=             -8.4930   YY=              4.3618   ZZ=              4.1312
   XY=             -6.3582   XZ=              0.7212   YZ=              0.7737
 Octapole moment (field-independent basis, Debye-Ang**2):
  XXX=             40.0644  YYY=              2.6359  ZZZ=             -1.9149  XYY=              7.9494
  XXY=             20.7183  XXZ=              0.0222  XZZ=              3.8644  YZZ=             -2.0696
  YYZ=              1.3668  XYZ=             -0.4141
 Hexadecapole moment (field-independent basis, Debye-Ang**3):
 XXXX=           -816.4783 YYYY=           -256.5626 ZZZZ=           -127.2939 XXXY=            -35.9810
 XXXZ=              4.3316 YYYX=             -6.5443 YYYZ=             -1.7330 ZZZX=             -1.1971
 ZZZY=              0.3920 XXYY=           -178.8702 XXZZ=           -143.7454 YYZZ=            -60.7401
 XXYZ=              1.2871 YYXZ=              1.7601 ZZXY=             -0.7042
 N-N= 4.046628050367D+02 E-N=-2.059609997862D+03  KE= 5.271902231287D+02
 No NMR shielding tensors so no spin-rotation constants.
 Leave Link  601 at Wed May 26 09:21:00 2021, MaxMem=  2147483648 cpu:         0.6
 (Enter /opt/cluster/programs/g09_d.01/g09/l9999.exe)
 1\1\GINC-NODE13\FOpt\RwB97XD\6-31+G\C4H5F3O1\BOITTIER\26-May-2021\0\\#
 p wB97XD/6-31+G Opt=ModRedun\\N.pdb\\0,1\C,1.6827902709,1.267416943,0.
 0235373431\C,1.5497696572,-0.2269918953,0.0439005897\H,1.0833974403,1.
 7037075595,-0.7820578768\H,2.732005805,1.5253900869,-0.122467341\H,1.3
 237672709,1.7009192813,0.9629867421\C,0.1893661137,-0.8942467629,0.259
 8296006\O,2.5258927187,-0.9745948195,-0.0718758504\C,-1.0399012841,-0.
 0765035801,0.0014071506\H,0.1446169079,-1.2387943443,1.2995235683\H,0.
 1486060825,-1.7832560647,-0.3749355148\F,-1.1686851054,1.0062968084,0.
 870278362\F,-2.1897180995,-0.8424414682,0.1554110209\F,-1.076864778,0.
 444768256,-1.2904847943\\Version=ES64L-G09RevD.01\State=1-A\HF=-529.92
 76333\RMSD=4.758e-09\RMSF=2.043e-04\Dipole=0.0118728,0.257692,0.341646
 8\Quadrupole=-6.3128021,3.2413222,3.0714799,4.728749,0.5361079,-0.5752
 803\PG=C01 [X(C4H5F3O1)]\\@


 Some scientists claim that hydrogen, because it is so
 plentiful, is the basic building block of the universe. 
 I dispute that. I say that stupidity is far more
 abundant than hydrogen, and THAT is the basic building 
 block of the universe.
                   --Frank Zappa
 Job cpu time:       0 days  0 hours  1 minutes 25.6 seconds.
 File lengths (MBytes):  RWF=      8 Int=      0 D2E=      0 Chk=      3 Scr=      1
 Normal termination of Gaussian 09 at Wed May 26 09:21:00 2021.
