N.pdb                                                                   
FOpt      RwB97XD                                                     6-31+G              
Number of atoms                            I               13
Info1-9                                    I   N=           9
          24          24           0           0           0         110
           2          18        -802
Charge                                     I                0
Multiplicity                               I                1
Number of electrons                        I               64
Number of alpha electrons                  I               32
Number of beta electrons                   I               32
Number of basis functions                  I              114
Number of independent functions            I              114
Number of point charges in /Mol/           I                0
Number of translation vectors              I                0
Atomic numbers                             I   N=          13
           6           6           1           1           1           6
           8           6           1           1           9           9
           9
Nuclear charges                            R   N=          13
  6.00000000E+00  6.00000000E+00  1.00000000E+00  1.00000000E+00  1.00000000E+00
  6.00000000E+00  8.00000000E+00  6.00000000E+00  1.00000000E+00  1.00000000E+00
  9.00000000E+00  9.00000000E+00  9.00000000E+00
Current cartesian coordinates              R   N=          39
 -3.17920153E+00  2.39538557E+00 -4.45697160E-02 -2.92828862E+00 -4.28678743E-01
 -8.30506751E-02 -2.04637906E+00  3.21967099E+00  1.47778462E+00 -5.16185218E+00
  2.88320685E+00  2.31339151E-01 -2.50061307E+00  3.21447583E+00 -1.81987180E+00
 -3.57703747E-01 -1.69002609E+00 -4.91097370E-01 -4.77312379E+00 -1.84114329E+00
  1.35735089E-01  1.96552645E+00 -1.45093519E-01 -2.74971280E-03 -2.73245973E-01
 -2.34114041E+00 -2.45583423E+00 -2.80951874E-01 -3.37002271E+00  7.08434857E-01
  2.20922562E+00  1.90106304E+00 -1.64467835E+00  4.13812974E+00 -1.59285998E+00
 -2.93774851E-01  2.03553765E+00  8.39956111E-01  2.43857226E+00
Force Field                                I                0
Int Atom Types                             I   N=          13
           0           0           0           0           0           0
           0           0           0           0           0           0
           0
MM charges                                 R   N=          13
  0.00000000E+00  0.00000000E+00  0.00000000E+00  0.00000000E+00  0.00000000E+00
  0.00000000E+00  0.00000000E+00  0.00000000E+00  0.00000000E+00  0.00000000E+00
  0.00000000E+00  0.00000000E+00  0.00000000E+00
Integer atomic weights                     I   N=          13
          12          12           1           1           1          12
          16          12           1           1          19          19
          19
Real atomic weights                        R   N=          13
  1.20000000E+01  1.20000000E+01  1.00782504E+00  1.00782504E+00  1.00782504E+00
  1.20000000E+01  1.59949146E+01  1.20000000E+01  1.00782504E+00  1.00782504E+00
  1.89984032E+01  1.89984032E+01  1.89984032E+01
Atom fragment info                         I   N=          13
           0           0           0           0           0           0
           0           0           0           0           0           0
           0
Atom residue num                           I   N=          13
           0           0           0           0           0           0
           0           0           0           0           0           0
           0
Nuclear spins                              I   N=          13
           0           0           1           1           1           0
           0           0           1           1           1           1
           1
Nuclear ZEff                               R   N=          13
 -3.60000000E+00 -3.60000000E+00 -1.00000000E+00 -1.00000000E+00 -1.00000000E+00
 -3.60000000E+00 -5.60000000E+00 -3.60000000E+00 -1.00000000E+00 -1.00000000E+00
 -6.75000000E+00 -6.75000000E+00 -6.75000000E+00
Nuclear ZNuc                               R   N=          13
  6.00000000E+00  6.00000000E+00  1.00000000E+00  1.00000000E+00  1.00000000E+00
  6.00000000E+00  8.00000000E+00  6.00000000E+00  1.00000000E+00  1.00000000E+00
  9.00000000E+00  9.00000000E+00  9.00000000E+00
Nuclear QMom                               R   N=          13
  0.00000000E+00  0.00000000E+00  0.00000000E+00  0.00000000E+00  0.00000000E+00
  0.00000000E+00  0.00000000E+00  0.00000000E+00  0.00000000E+00  0.00000000E+00
  0.00000000E+00  0.00000000E+00  0.00000000E+00
Nuclear GFac                               R   N=          13
  0.00000000E+00  0.00000000E+00  2.79284600E+00  2.79284600E+00  2.79284600E+00
  0.00000000E+00  0.00000000E+00  0.00000000E+00  2.79284600E+00  2.79284600E+00
  2.62886700E+00  2.62886700E+00  2.62886700E+00
MicOpt                                     I   N=          13
          -1          -1          -1          -1          -1          -1
          -1          -1          -1          -1          -1          -1
          -1
Number of contracted shells                I               42
Number of primitive shells                 I              108
Pure/Cartesian d shells                    I                1
Pure/Cartesian f shells                    I                0
Highest angular momentum                   I                1
Largest degree of contraction              I                6
Shell types                                I   N=          42
           0          -1          -1          -1           0          -1
          -1          -1           0           0           0           0
           0           0           0          -1          -1          -1
           0          -1          -1          -1           0          -1
          -1          -1           0           0           0           0
           0          -1          -1          -1           0          -1
          -1          -1           0          -1          -1          -1
Number of primitives per shell             I   N=          42
           6           3           1           1           6           3
           1           1           3           1           3           1
           3           1           6           3           1           1
           6           3           1           1           6           3
           1           1           3           1           3           1
           6           3           1           1           6           3
           1           1           6           3           1           1
Shell to atom map                          I   N=          42
           1           1           1           1           2           2
           2           2           3           3           4           4
           5           5           6           6           6           6
           7           7           7           7           8           8
           8           8           9           9          10          10
          11          11          11          11          12          12
          12          12          13          13          13          13
Primitive exponents                        R   N=         108
  3.04752488E+03  4.57369518E+02  1.03948685E+02  2.92101553E+01  9.28666296E+00
  3.16392696E+00  7.86827235E+00  1.88128854E+00  5.44249258E-01  1.68714478E-01
  4.38000000E-02  3.04752488E+03  4.57369518E+02  1.03948685E+02  2.92101553E+01
  9.28666296E+00  3.16392696E+00  7.86827235E+00  1.88128854E+00  5.44249258E-01
  1.68714478E-01  4.38000000E-02  1.87311370E+01  2.82539436E+00  6.40121692E-01
  1.61277759E-01  1.87311370E+01  2.82539436E+00  6.40121692E-01  1.61277759E-01
  1.87311370E+01  2.82539436E+00  6.40121692E-01  1.61277759E-01  3.04752488E+03
  4.57369518E+02  1.03948685E+02  2.92101553E+01  9.28666296E+00  3.16392696E+00
  7.86827235E+00  1.88128854E+00  5.44249258E-01  1.68714478E-01  4.38000000E-02
  5.48467166E+03  8.25234946E+02  1.88046958E+02  5.29645000E+01  1.68975704E+01
  5.79963534E+00  1.55396162E+01  3.59993359E+00  1.01376175E+00  2.70005823E-01
  8.45000000E-02  3.04752488E+03  4.57369518E+02  1.03948685E+02  2.92101553E+01
  9.28666296E+00  3.16392696E+00  7.86827235E+00  1.88128854E+00  5.44249258E-01
  1.68714478E-01  4.38000000E-02  1.87311370E+01  2.82539436E+00  6.40121692E-01
  1.61277759E-01  1.87311370E+01  2.82539436E+00  6.40121692E-01  1.61277759E-01
  7.00171309E+03  1.05136609E+03  2.39285690E+02  6.73974453E+01  2.15199573E+01
  7.40310130E+00  2.08479528E+01  4.80830834E+00  1.34406986E+00  3.58151393E-01
  1.07600000E-01  7.00171309E+03  1.05136609E+03  2.39285690E+02  6.73974453E+01
  2.15199573E+01  7.40310130E+00  2.08479528E+01  4.80830834E+00  1.34406986E+00
  3.58151393E-01  1.07600000E-01  7.00171309E+03  1.05136609E+03  2.39285690E+02
  6.73974453E+01  2.15199573E+01  7.40310130E+00  2.08479528E+01  4.80830834E+00
  1.34406986E+00  3.58151393E-01  1.07600000E-01
Contraction coefficients                   R   N=         108
  1.83473713E-03  1.40373228E-02  6.88426223E-02  2.32184443E-01  4.67941348E-01
  3.62311985E-01 -1.19332420E-01 -1.60854152E-01  1.14345644E+00  1.00000000E+00
  1.00000000E+00  1.83473713E-03  1.40373228E-02  6.88426223E-02  2.32184443E-01
  4.67941348E-01  3.62311985E-01 -1.19332420E-01 -1.60854152E-01  1.14345644E+00
  1.00000000E+00  1.00000000E+00  3.34946043E-02  2.34726953E-01  8.13757326E-01
  1.00000000E+00  3.34946043E-02  2.34726953E-01  8.13757326E-01  1.00000000E+00
  3.34946043E-02  2.34726953E-01  8.13757326E-01  1.00000000E+00  1.83473713E-03
  1.40373228E-02  6.88426223E-02  2.32184443E-01  4.67941348E-01  3.62311985E-01
 -1.19332420E-01 -1.60854152E-01  1.14345644E+00  1.00000000E+00  1.00000000E+00
  1.83107443E-03  1.39501722E-02  6.84450781E-02  2.32714336E-01  4.70192898E-01
  3.58520853E-01 -1.10777550E-01 -1.48026263E-01  1.13076702E+00  1.00000000E+00
  1.00000000E+00  1.83473713E-03  1.40373228E-02  6.88426223E-02  2.32184443E-01
  4.67941348E-01  3.62311985E-01 -1.19332420E-01 -1.60854152E-01  1.14345644E+00
  1.00000000E+00  1.00000000E+00  3.34946043E-02  2.34726953E-01  8.13757326E-01
  1.00000000E+00  3.34946043E-02  2.34726953E-01  8.13757326E-01  1.00000000E+00
  1.81961690E-03  1.39160796E-02  6.84053245E-02  2.33185760E-01  4.71267439E-01
  3.56618546E-01 -1.08506975E-01 -1.46451658E-01  1.12868858E+00  1.00000000E+00
  1.00000000E+00  1.81961690E-03  1.39160796E-02  6.84053245E-02  2.33185760E-01
  4.71267439E-01  3.56618546E-01 -1.08506975E-01 -1.46451658E-01  1.12868858E+00
  1.00000000E+00  1.00000000E+00  1.81961690E-03  1.39160796E-02  6.84053245E-02
  2.33185760E-01  4.71267439E-01  3.56618546E-01 -1.08506975E-01 -1.46451658E-01
  1.12868858E+00  1.00000000E+00  1.00000000E+00
P(S=P) Contraction coefficients            R   N=         108
  0.00000000E+00  0.00000000E+00  0.00000000E+00  0.00000000E+00  0.00000000E+00
  0.00000000E+00  6.89990666E-02  3.16423961E-01  7.44308291E-01  1.00000000E+00
  1.00000000E+00  0.00000000E+00  0.00000000E+00  0.00000000E+00  0.00000000E+00
  0.00000000E+00  0.00000000E+00  6.89990666E-02  3.16423961E-01  7.44308291E-01
  1.00000000E+00  1.00000000E+00  0.00000000E+00  0.00000000E+00  0.00000000E+00
  0.00000000E+00  0.00000000E+00  0.00000000E+00  0.00000000E+00  0.00000000E+00
  0.00000000E+00  0.00000000E+00  0.00000000E+00  0.00000000E+00  0.00000000E+00
  0.00000000E+00  0.00000000E+00  0.00000000E+00  0.00000000E+00  0.00000000E+00
  6.89990666E-02  3.16423961E-01  7.44308291E-01  1.00000000E+00  1.00000000E+00
  0.00000000E+00  0.00000000E+00  0.00000000E+00  0.00000000E+00  0.00000000E+00
  0.00000000E+00  7.08742682E-02  3.39752839E-01  7.27158577E-01  1.00000000E+00
  1.00000000E+00  0.00000000E+00  0.00000000E+00  0.00000000E+00  0.00000000E+00
  0.00000000E+00  0.00000000E+00  6.89990666E-02  3.16423961E-01  7.44308291E-01
  1.00000000E+00  1.00000000E+00  0.00000000E+00  0.00000000E+00  0.00000000E+00
  0.00000000E+00  0.00000000E+00  0.00000000E+00  0.00000000E+00  0.00000000E+00
  0.00000000E+00  0.00000000E+00  0.00000000E+00  0.00000000E+00  0.00000000E+00
  0.00000000E+00  7.16287242E-02  3.45912103E-01  7.22469956E-01  1.00000000E+00
  1.00000000E+00  0.00000000E+00  0.00000000E+00  0.00000000E+00  0.00000000E+00
  0.00000000E+00  0.00000000E+00  7.16287242E-02  3.45912103E-01  7.22469956E-01
  1.00000000E+00  1.00000000E+00  0.00000000E+00  0.00000000E+00  0.00000000E+00
  0.00000000E+00  0.00000000E+00  0.00000000E+00  7.16287242E-02  3.45912103E-01
  7.22469956E-01  1.00000000E+00  1.00000000E+00
Coordinates of each shell                  R   N=         126
 -3.17920153E+00  2.39538557E+00 -4.45697160E-02 -3.17920153E+00  2.39538557E+00
 -4.45697160E-02 -3.17920153E+00  2.39538557E+00 -4.45697160E-02 -3.17920153E+00
  2.39538557E+00 -4.45697160E-02 -2.92828862E+00 -4.28678743E-01 -8.30506751E-02
 -2.92828862E+00 -4.28678743E-01 -8.30506751E-02 -2.92828862E+00 -4.28678743E-01
 -8.30506751E-02 -2.92828862E+00 -4.28678743E-01 -8.30506751E-02 -2.04637906E+00
  3.21967099E+00  1.47778462E+00 -2.04637906E+00  3.21967099E+00  1.47778462E+00
 -5.16185218E+00  2.88320685E+00  2.31339151E-01 -5.16185218E+00  2.88320685E+00
  2.31339151E-01 -2.50061307E+00  3.21447583E+00 -1.81987180E+00 -2.50061307E+00
  3.21447583E+00 -1.81987180E+00 -3.57703747E-01 -1.69002609E+00 -4.91097370E-01
 -3.57703747E-01 -1.69002609E+00 -4.91097370E-01 -3.57703747E-01 -1.69002609E+00
 -4.91097370E-01 -3.57703747E-01 -1.69002609E+00 -4.91097370E-01 -4.77312379E+00
 -1.84114329E+00  1.35735089E-01 -4.77312379E+00 -1.84114329E+00  1.35735089E-01
 -4.77312379E+00 -1.84114329E+00  1.35735089E-01 -4.77312379E+00 -1.84114329E+00
  1.35735089E-01  1.96552645E+00 -1.45093519E-01 -2.74971280E-03  1.96552645E+00
 -1.45093519E-01 -2.74971280E-03  1.96552645E+00 -1.45093519E-01 -2.74971280E-03
  1.96552645E+00 -1.45093519E-01 -2.74971280E-03 -2.73245973E-01 -2.34114041E+00
 -2.45583423E+00 -2.73245973E-01 -2.34114041E+00 -2.45583423E+00 -2.80951874E-01
 -3.37002271E+00  7.08434857E-01 -2.80951874E-01 -3.37002271E+00  7.08434857E-01
  2.20922562E+00  1.90106304E+00 -1.64467835E+00  2.20922562E+00  1.90106304E+00
 -1.64467835E+00  2.20922562E+00  1.90106304E+00 -1.64467835E+00  2.20922562E+00
  1.90106304E+00 -1.64467835E+00  4.13812974E+00 -1.59285998E+00 -2.93774851E-01
  4.13812974E+00 -1.59285998E+00 -2.93774851E-01  4.13812974E+00 -1.59285998E+00
 -2.93774851E-01  4.13812974E+00 -1.59285998E+00 -2.93774851E-01  2.03553765E+00
  8.39956111E-01  2.43857226E+00  2.03553765E+00  8.39956111E-01  2.43857226E+00
  2.03553765E+00  8.39956111E-01  2.43857226E+00  2.03553765E+00  8.39956111E-01
  2.43857226E+00
Constraint Structure                       R   N=          39
 -3.18066763E+00  2.39537182E+00 -4.45672716E-02 -2.92854651E+00 -4.28725662E-01
 -8.25810025E-02 -2.04953790E+00  3.22081534E+00  1.47835546E+00 -5.16376694E+00
  2.88201254E+00  2.29938126E-01 -2.50152827E+00  3.21468137E+00 -1.81951522E+00
 -3.57682036E-01 -1.68968743E+00 -4.90429255E-01 -4.77317079E+00 -1.84167736E+00
  1.35366782E-01  1.96584044E+00 -1.44921744E-01 -2.67393295E-03 -2.73375793E-01
 -2.34084739E+00 -2.45515484E+00 -2.81027467E-01 -3.36965020E+00  7.09144327E-01
  2.20888035E+00  1.90170453E+00 -1.64412785E+00  4.13821267E+00 -1.59273012E+00
 -2.95294245E-01  2.03745556E+00  8.39268401E-01  2.43895617E+00
Num ILSW                                   I              100
ILSW                                       I   N=         100
           0           1           0           0           2           0
           0           0           0           0        4639          -1
           0           0           0           0           2           0
           0           0           0           0           1           0
           1           0           0           0           0           0
           0           0      100000           0          -1           0
           0           0           0           0           0           0
           0           0           0           1           0           0
           0           0           1           0           0           0
           0           0         121          41           0           0
           0           0          58           0           0           0
           0           0           0          13           0           0
           0           0           0           0           0           0
           0           0           0           0           0           0
           0           0           0           0           0           0
           0           0           0           0           0           0
           0           0           0           0
Num RLSW                                   I               41
RLSW                                       R   N=          41
  1.00000000E+00  1.00000000E+00  1.00000000E+00  1.00000000E+00  1.00000000E+00
  0.00000000E+00  2.00000000E-01  2.22036000E-01  0.00000000E+00  7.77964000E-01
  0.00000000E+00  2.00000000E-01  0.00000000E+00  0.00000000E+00  1.00000000E+00
  0.00000000E+00  0.00000000E+00  1.00000000E+00  0.00000000E+00  0.00000000E+00
  0.00000000E+00  0.00000000E+00  1.00000000E+00  0.00000000E+00  0.00000000E+00
  0.00000000E+00  0.00000000E+00  1.00000000E+00  0.00000000E+00  0.00000000E+00
  0.00000000E+00  0.00000000E+00  1.00000000E+00  0.00000000E+00  0.00000000E+00
  0.00000000E+00  0.00000000E+00  0.00000000E+00  1.00000000E+00  1.00000000E+00
  0.00000000E+00
MxBond                                     I                4
NBond                                      I   N=          13
           4           3           1           1           1           4
           1           4           1           1           1           1
           1
IBond                                      I   N=          52
           2           3           4           5           1           6
           7           0           1           0           0           0
           1           0           0           0           1           0
           0           0           2           8           9          10
           2           0           0           0           6          11
          12          13           6           0           0           0
           6           0           0           0           8           0
           0           0           8           0           0           0
           8           0           0           0
RBond                                      R   N=          52
  1.00000000E+00  1.00000000E+00  1.00000000E+00  1.00000000E+00  1.00000000E+00
  1.00000000E+00  2.00000000E+00  0.00000000E+00  1.00000000E+00  0.00000000E+00
  0.00000000E+00  0.00000000E+00  1.00000000E+00  0.00000000E+00  0.00000000E+00
  0.00000000E+00  1.00000000E+00  0.00000000E+00  0.00000000E+00  0.00000000E+00
  1.00000000E+00  1.00000000E+00  1.00000000E+00  1.00000000E+00  2.00000000E+00
  0.00000000E+00  0.00000000E+00  0.00000000E+00  1.00000000E+00  1.00000000E+00
  1.00000000E+00  1.00000000E+00  1.00000000E+00  0.00000000E+00  0.00000000E+00
  0.00000000E+00  1.00000000E+00  0.00000000E+00  0.00000000E+00  0.00000000E+00
  1.00000000E+00  0.00000000E+00  0.00000000E+00  0.00000000E+00  1.00000000E+00
  0.00000000E+00  0.00000000E+00  0.00000000E+00  1.00000000E+00  0.00000000E+00
  0.00000000E+00  0.00000000E+00
Virial Ratio                               R      2.005192452411202E+00
SCF Energy                                 R     -5.299276332739812E+02
Total Energy                               R     -5.299276332739812E+02
RMS Force                                  R      2.043219061699878E-04
RMS Density                                R      4.757983643359859E-09
External E-field                           R   N=          35
  0.00000000E+00  0.00000000E+00  0.00000000E+00  0.00000000E+00  0.00000000E+00
  0.00000000E+00  0.00000000E+00  0.00000000E+00  0.00000000E+00  0.00000000E+00
  0.00000000E+00  0.00000000E+00  0.00000000E+00  0.00000000E+00  0.00000000E+00
  0.00000000E+00  0.00000000E+00  0.00000000E+00  0.00000000E+00  0.00000000E+00
  0.00000000E+00  0.00000000E+00  0.00000000E+00  0.00000000E+00  0.00000000E+00
  0.00000000E+00  0.00000000E+00  0.00000000E+00  0.00000000E+00  0.00000000E+00
  0.00000000E+00  0.00000000E+00  0.00000000E+00  0.00000000E+00  0.00000000E+00
IOpCl                                      I                0
IROHF                                      I                0
Alpha Orbital Energies                     R   N=         114
 -2.48928915E+01 -2.48927834E+01 -2.48911825E+01 -1.93017780E+01 -1.05955062E+01
 -1.04398233E+01 -1.03647029E+01 -1.03199168E+01 -1.44063136E+00 -1.35581417E+00
 -1.35519947E+00 -1.19432859E+00 -9.52618000E-01 -8.72297386E-01 -8.02734660E-01
 -7.11261492E-01 -7.04555195E-01 -6.93093381E-01 -6.42575897E-01 -5.98289133E-01
 -5.84750633E-01 -5.77313804E-01 -5.70727992E-01 -5.50988434E-01 -5.42095322E-01
 -5.37661552E-01 -5.29311093E-01 -5.22958128E-01 -5.04463480E-01 -4.95582684E-01
 -4.59589361E-01 -3.69632695E-01  1.40313024E-02  6.24788039E-02  8.16239515E-02
  9.54507542E-02  1.00732813E-01  1.06410297E-01  1.12170813E-01  1.16100554E-01
  1.28984404E-01  1.34010717E-01  1.37585722E-01  1.60527710E-01  1.65823393E-01
  1.75476831E-01  1.77140276E-01  1.80715690E-01  1.85096264E-01  2.07354582E-01
  2.10447224E-01  2.22506986E-01  2.50668285E-01  2.66812686E-01  2.79332034E-01
  2.93371237E-01  3.13375140E-01  3.32387976E-01  3.38292418E-01  3.46026573E-01
  3.60934895E-01  3.72928485E-01  3.81516253E-01  3.86475366E-01  3.89650583E-01
  4.03997611E-01  4.18049912E-01  4.29619260E-01  4.34240018E-01  4.43122286E-01
  4.50534117E-01  4.52425127E-01  4.71551258E-01  4.94293111E-01  5.09207742E-01
  5.23726036E-01  5.44411357E-01  7.22451727E-01  7.36382223E-01  7.52184723E-01
  7.67474708E-01  8.07647083E-01  8.29934519E-01  8.37883692E-01  8.66862645E-01
  9.13328950E-01  9.36407462E-01  9.52566683E-01  1.06921618E+00  1.10705298E+00
  1.14766231E+00  1.16524684E+00  1.19952054E+00  1.22168906E+00  1.22840138E+00
  1.34059636E+00  1.38822030E+00  1.43715527E+00  1.47572506E+00  1.51221499E+00
  1.56918065E+00  1.58996495E+00  1.65315379E+00  1.67031773E+00  1.68810485E+00
  1.74145220E+00  1.79543258E+00  1.82308855E+00  1.83617301E+00  1.85458265E+00
  1.97077837E+00  2.28875161E+00  2.33806611E+00  2.69739232E+00
Alpha MO coefficients                      R   N=       12996
  5.58362852E-05  5.40575143E-04  2.22307362E-04  9.95226262E-06 -1.71677782E-05
 -1.63241457E-03 -1.53820545E-03  5.80281657E-04  1.47470391E-04  5.28391728E-03
  6.43958450E-04 -8.49175810E-04  2.28608459E-05 -2.88981395E-05 -1.28318203E-04
  7.51447711E-05  1.12992015E-05 -3.36822921E-06  2.88857505E-03  8.32647078E-04
  2.62580885E-04 -2.85932651E-04  1.38610765E-03  7.55838944E-04 -3.19133677E-03
  1.28842814E-05  2.13142377E-04  4.67578432E-04 -4.60312548E-05 -7.64383332E-04
  2.24986499E-04 -2.16819763E-05  1.09274949E-04  5.95380396E-04 -1.73948831E-04
 -1.27487213E-04 -1.02493476E-04 -4.21448596E-03 -4.07047907E-04 -2.11350061E-03
  6.78271126E-04  1.26106306E-02  5.68247682E-03  2.58470085E-03  2.24187827E-04
  4.57046847E-06  7.51836746E-05  3.90805420E-05  3.44767179E-05 -1.90335018E-05
 -1.89537634E-04 -3.08783799E-04 -2.17670734E-04  1.23953263E-04 -8.59681106E-04
 -2.85656155E-05  2.87528939E-04 -1.07229165E-04 -2.17940061E-04 -1.02038466E-03
  2.22543456E-04  6.19967222E-04 -3.82325115E-04  8.20495149E-03 -1.41764043E-05
  1.33268150E-03 -2.34806145E-04 -2.28770470E-02  5.79594825E-03  1.71172045E-03
  1.56474341E-03  3.18988313E-04  3.42473467E-04 -2.05800344E-05 -5.66736483E-05
  9.86768843E-01  2.78468866E-02 -1.87202729E-04 -1.09396667E-03  8.98572054E-04
 -1.69666274E-02  4.55802902E-04  2.17253494E-03 -1.95163234E-03  1.10955266E-02
 -1.01517362E-03 -2.16677332E-03  1.80424213E-03  5.11264843E-03  4.82068706E-04
 -3.72094672E-05  3.59694918E-05 -2.10462402E-06 -1.50031851E-03  7.19313395E-04
 -8.19491495E-04  6.40319281E-05 -1.02631018E-03  2.00832425E-04 -8.73775592E-04
  2.98177875E-04  1.28015941E-01  4.01163598E-03 -3.27363586E-05 -6.65380924E-05
 -2.16308647E-04 -3.82412578E-03  1.10633255E-04  1.49751206E-04  1.38526599E-03
  4.69375371E-04 -4.60682486E-04 -5.49617024E-04  1.09681702E-03 -2.82613446E-06
  4.71262852E-05  9.99877789E-05 -5.86169858E-05  2.71119550E-05  1.07910516E-03
 -6.91530229E-05 -1.38526429E-04  3.99653311E-05  1.14776701E-02  1.71709018E-03
 -2.45587381E-03  5.37614615E-04  7.19748067E-06  1.85761860E-04  1.12383381E-04
  6.17147954E-05  2.78433982E-05  9.62824267E-04 -3.33607530E-04 -1.40020761E-03
  1.56432887E-04 -1.28301429E-02 -2.28717165E-03 -3.94693503E-03 -6.99685331E-04
  1.09593132E-04 -9.30590389E-04 -2.38793450E-05 -3.00209734E-04 -2.61468950E-05
  1.42995154E-04  6.19228572E-05  2.93417927E-04 -1.91449551E-04 -1.51134960E-04
  5.58855473E-05 -1.98572697E-03  2.71163350E-04 -5.52269155E-05 -1.92696344E-03
  2.24941627E-02  4.51960162E-03  4.34608470E-03  1.54833640E-03  9.08883328E-06
  1.09587908E-04  2.21018999E-05  1.65918129E-05 -1.25002158E-05 -8.42440598E-04
 -4.15660752E-04 -1.61377751E-04  4.01097672E-05 -4.03847611E-04  2.96533036E-04
  1.57066472E-04  1.97161226E-04 -1.48489663E-04 -6.66930492E-04  1.36482312E-04
  2.12091611E-04  7.51042014E-04  5.21243433E-03  3.16982672E-04  8.97457363E-04
  1.47350654E-03 -2.42249586E-02  5.94812228E-03  2.04256921E-03 -8.37521666E-05
 -1.08858244E-04 -3.54076275E-04  3.18590707E-04  5.13785819E-04 -1.27976098E-01
 -3.19630533E-03  1.02319450E-05  1.26127641E-04 -8.45363438E-05  5.27823402E-04
  4.91729121E-05  1.70181390E-04 -6.01982245E-04 -1.56259339E-03 -5.32318933E-06
  3.66844301E-04 -1.46124392E-03  2.86545702E-03  2.96187937E-04 -1.82948849E-05
  2.17376235E-05  2.35844634E-05 -9.46264660E-04  4.74625069E-04 -4.83747274E-04
 -4.65266582E-04 -8.83000469E-04  3.18259376E-04 -4.64105954E-04 -7.46971088E-04
  9.86766373E-01  2.76986567E-02 -8.33367062E-05 -5.15381922E-04 -1.31826957E-03
 -1.63628689E-02  1.84194227E-04  9.46649620E-04  2.47510928E-03  1.09127288E-02
 -6.10769515E-04 -8.76635938E-04 -2.62082928E-03  9.36625906E-06  2.82196618E-05
 -5.57324303E-05  3.58269871E-05  2.74821027E-05 -1.26498601E-03 -1.90044414E-05
  6.71700184E-04 -2.60167119E-04 -4.10484811E-03 -8.83859462E-04  9.17275912E-04
 -1.35461795E-05 -6.95222106E-06 -1.43333111E-04 -6.26273381E-05 -8.23685797E-05
 -2.71510293E-05 -9.90260078E-04  3.70505817E-04  2.21104850E-03  2.67055355E-04
  4.29090196E-03  1.34634285E-03  9.55394468E-04 -1.84078931E-04  2.64801388E-06
  3.25379916E-04  2.20236529E-05  1.51452728E-04  3.74617821E-05 -2.77484174E-04
  6.32128143E-05  2.36970700E-04 -7.62737403E-05 -6.57010718E-05 -5.50154756E-05
 -2.06115261E-03 -3.25166901E-03 -4.40378821E-04  1.83833966E-04  7.08851711E-03
  1.16891041E-03  7.91576981E-04  6.55772834E-04 -1.12019660E-05 -1.41000440E-04
 -1.38242231E-05 -1.05328961E-05  1.25276380E-05  1.15040791E-03  4.30076127E-04
  1.25319835E-04 -1.33615717E-04 -5.25670204E-05 -5.12182714E-04  9.26071205E-05
  6.14454665E-05 -2.13080964E-04 -1.08082657E-03  6.05195047E-04 -3.48908424E-04
 -5.30263548E-05  9.35571130E-03  1.74914455E-03 -1.10737176E-03 -4.08144624E-04
 -8.91098578E-03  1.04365274E-03  2.46556251E-03  2.76742625E-04  2.52937332E-04
 -2.34990974E-04  1.89523364E-04 -4.86650908E-04 -4.65314615E-03  1.81516777E-04
  2.22885424E-05 -3.35647072E-05  8.67562991E-07 -1.28219781E-03 -3.19692136E-04
  9.06454539E-04 -4.37886835E-04 -1.95707011E-03 -6.36477843E-04  1.12072216E-03
 -3.84720711E-04  9.95024313E-01  2.79528670E-02 -1.22779986E-03  8.06212905E-04
  1.56566304E-04 -1.66831480E-02  2.54709129E-03 -1.73041284E-03 -3.25480595E-04
  8.79395759E-03 -1.96299397E-03  1.14834548E-03  2.58655699E-04 -3.45673574E-03
  1.59990192E-04  3.61881118E-05 -3.14289000E-05 -1.91783628E-05 -1.02848301E-03
 -4.52067447E-04  5.65910673E-04  7.70705846E-04 -2.21618578E-03 -3.29024300E-04
  7.44441330E-04  1.02093200E-03 -2.42690695E-05 -3.80372974E-04  7.64358420E-05
  1.13246836E-04 -1.26931651E-05  3.09683523E-03  2.03258841E-03 -9.74028890E-04
 -1.74290792E-04  1.69909500E-02  4.11256363E-04 -4.26860847E-03 -7.97432584E-05
  2.27444531E-04  4.03885455E-04  8.12865014E-05  1.50160980E-04  1.21758201E-05
  7.59211940E-03 -6.65012498E-03 -7.40530277E-03  8.41603566E-04 -3.23351263E-02
 -1.55417419E-03 -3.17815878E-03  4.84759532E-04 -6.07191593E-05 -7.53716902E-04
  1.01926976E-04  1.45281488E-04 -1.10555580E-04 -4.13081410E-04 -2.19933299E-05
 -4.62119456E-04  6.38598704E-05 -4.36696943E-05  9.48511438E-05  1.19745006E-03
  2.25047360E-03  1.59676936E-03 -1.17929822E-03  2.21275736E-02  2.17703094E-04
  3.92619948E-03 -2.32822162E-05  9.95242367E-01  2.98223199E-02  1.82724215E-03
  1.31392920E-03 -2.29760197E-04 -2.37131329E-02 -4.91186542E-03 -3.27229313E-03
  5.99224385E-04  8.07190632E-03  8.95826418E-04  4.39965458E-04 -1.38076339E-04
 -1.89772901E-05 -2.75005671E-04  2.57687071E-04 -3.60821314E-05 -4.66857600E-05
 -1.12513931E-03 -1.03988339E-03  1.85339092E-03  1.26795734E-03 -1.07785526E-02
  2.19475471E-03  1.12430833E-03  1.31165166E-03  3.78869052E-05 -1.48477202E-03
  1.42044521E-04  9.08230930E-06  2.22072483E-06  7.14380744E-05 -3.50353289E-05
 -2.12997810E-06  3.18922912E-05 -2.16545527E-04  2.26977916E-04 -4.58142291E-06
 -2.09388258E-04 -1.33614143E-04  2.58955421E-04 -1.36884710E-04 -2.56481850E-04
 -6.45195006E-06 -1.24050946E-04  2.91765442E-05 -2.92894259E-05  9.85068646E-06
  6.73158071E-04 -3.34655645E-04  2.11647728E-04 -6.13448356E-05  1.18648102E-03
 -1.43998702E-04  3.01449183E-04  5.03390254E-05  6.90336063E-06  1.21822278E-04
 -1.42589290E-05  1.88106619E-05 -2.43306166E-05 -6.67360931E-04  1.94905398E-04
 -5.31035487E-05  2.75291300E-04 -2.98321980E-04 -4.38030811E-04  2.69835695E-05