L.pdb                                                                   
FOpt      RwB97XD                                                     6-31+G              
Number of atoms                            I                8
Info1-9                                    I   N=           9
          19          19           0           0           0         110
           2          18        -802
Charge                                     I                0
Multiplicity                               I                1
Number of electrons                        I               30
Number of alpha electrons                  I               15
Number of beta electrons                   I               15
Number of basis functions                  I               60
Number of independent functions            I               60
Number of point charges in /Mol/           I                0
Number of translation vectors              I                0
Atomic numbers                             I   N=           8
           6           6           6           8           1           1
           1           1
Nuclear charges                            R   N=           8
  6.00000000E+00  6.00000000E+00  6.00000000E+00  8.00000000E+00  1.00000000E+00
  1.00000000E+00  1.00000000E+00  1.00000000E+00
Current cartesian coordinates              R   N=          24
  3.06049455E+00 -7.12783803E-01  1.30358448E-01  1.19675055E+00  9.20470059E-01
 -3.48348381E-01 -1.44296886E+00  5.89039211E-01  5.59907991E-01 -3.02056952E+00
 -8.00761671E-01 -4.46256195E-01 -1.99789463E+00  1.75401589E+00  2.19640873E+00
  4.97903518E+00 -3.56795594E-01 -4.97482687E-01  2.72638874E+00 -2.46673341E+00
  1.14298777E+00  1.57136948E+00  2.69525369E+00 -1.32337260E+00
Force Field                                I                0
Int Atom Types                             I   N=           8
           0           0           0           0           0           0
           0           0
MM charges                                 R   N=           8
  0.00000000E+00  0.00000000E+00  0.00000000E+00  0.00000000E+00  0.00000000E+00
  0.00000000E+00  0.00000000E+00  0.00000000E+00
Integer atomic weights                     I   N=           8
          12          12          12          16           1           1
           1           1
Real atomic weights                        R   N=           8
  1.20000000E+01  1.20000000E+01  1.20000000E+01  1.59949146E+01  1.00782504E+00
  1.00782504E+00  1.00782504E+00  1.00782504E+00
Atom fragment info                         I   N=           8
           0           0           0           0           0           0
           0           0
Atom residue num                           I   N=           8
           0           0           0           0           0           0
           0           0
Nuclear spins                              I   N=           8
           0           0           0           0           1           1
           1           1
Nuclear ZEff                               R   N=           8
 -3.60000000E+00 -3.60000000E+00 -3.60000000E+00 -5.60000000E+00 -1.00000000E+00
 -1.00000000E+00 -1.00000000E+00 -1.00000000E+00
Nuclear ZNuc                               R   N=           8
  6.00000000E+00  6.00000000E+00  6.00000000E+00  8.00000000E+00  1.00000000E+00
  1.00000000E+00  1.00000000E+00  1.00000000E+00
Nuclear QMom                               R   N=           8
  0.00000000E+00  0.00000000E+00  0.00000000E+00  0.00000000E+00  0.00000000E+00
  0.00000000E+00  0.00000000E+00  0.00000000E+00
Nuclear GFac                               R   N=           8
  0.00000000E+00  0.00000000E+00  0.00000000E+00  0.00000000E+00  2.79284600E+00
  2.79284600E+00  2.79284600E+00  2.79284600E+00
MicOpt                                     I   N=           8
          -1          -1          -1          -1          -1          -1
          -1          -1
Number of contracted shells                I               24
Number of primitive shells                 I               60
Pure/Cartesian d shells                    I                1
Pure/Cartesian f shells                    I                0
Highest angular momentum                   I                1
Largest degree of contraction              I                6
Shell types                                I   N=          24
           0          -1          -1          -1           0          -1
          -1          -1           0          -1          -1          -1
           0          -1          -1          -1           0           0
           0           0           0           0           0           0
Number of primitives per shell             I   N=          24
           6           3           1           1           6           3
           1           1           6           3           1           1
           6           3           1           1           3           1
           3           1           3           1           3           1
Shell to atom map                          I   N=          24
           1           1           1           1           2           2
           2           2           3           3           3           3
           4           4           4           4           5           5
           6           6           7           7           8           8
Primitive exponents                        R   N=          60
  3.04752488E+03  4.57369518E+02  1.03948685E+02  2.92101553E+01  9.28666296E+00
  3.16392696E+00  7.86827235E+00  1.88128854E+00  5.44249258E-01  1.68714478E-01
  4.38000000E-02  3.04752488E+03  4.57369518E+02  1.03948685E+02  2.92101553E+01
  9.28666296E+00  3.16392696E+00  7.86827235E+00  1.88128854E+00  5.44249258E-01
  1.68714478E-01  4.38000000E-02  3.04752488E+03  4.57369518E+02  1.03948685E+02
  2.92101553E+01  9.28666296E+00  3.16392696E+00  7.86827235E+00  1.88128854E+00
  5.44249258E-01  1.68714478E-01  4.38000000E-02  5.48467166E+03  8.25234946E+02
  1.88046958E+02  5.29645000E+01  1.68975704E+01  5.79963534E+00  1.55396162E+01
  3.59993359E+00  1.01376175E+00  2.70005823E-01  8.45000000E-02  1.87311370E+01
  2.82539436E+00  6.40121692E-01  1.61277759E-01  1.87311370E+01  2.82539436E+00
  6.40121692E-01  1.61277759E-01  1.87311370E+01  2.82539436E+00  6.40121692E-01
  1.61277759E-01  1.87311370E+01  2.82539436E+00  6.40121692E-01  1.61277759E-01
Contraction coefficients                   R   N=          60
  1.83473713E-03  1.40373228E-02  6.88426223E-02  2.32184443E-01  4.67941348E-01
  3.62311985E-01 -1.19332420E-01 -1.60854152E-01  1.14345644E+00  1.00000000E+00
  1.00000000E+00  1.83473713E-03  1.40373228E-02  6.88426223E-02  2.32184443E-01
  4.67941348E-01  3.62311985E-01 -1.19332420E-01 -1.60854152E-01  1.14345644E+00
  1.00000000E+00  1.00000000E+00  1.83473713E-03  1.40373228E-02  6.88426223E-02
  2.32184443E-01  4.67941348E-01  3.62311985E-01 -1.19332420E-01 -1.60854152E-01
  1.14345644E+00  1.00000000E+00  1.00000000E+00  1.83107443E-03  1.39501722E-02
  6.84450781E-02  2.32714336E-01  4.70192898E-01  3.58520853E-01 -1.10777550E-01
 -1.48026263E-01  1.13076702E+00  1.00000000E+00  1.00000000E+00  3.34946043E-02
  2.34726953E-01  8.13757326E-01  1.00000000E+00  3.34946043E-02  2.34726953E-01
  8.13757326E-01  1.00000000E+00  3.34946043E-02  2.34726953E-01  8.13757326E-01
  1.00000000E+00  3.34946043E-02  2.34726953E-01  8.13757326E-01  1.00000000E+00
P(S=P) Contraction coefficients            R   N=          60
  0.00000000E+00  0.00000000E+00  0.00000000E+00  0.00000000E+00  0.00000000E+00
  0.00000000E+00  6.89990666E-02  3.16423961E-01  7.44308291E-01  1.00000000E+00
  1.00000000E+00  0.00000000E+00  0.00000000E+00  0.00000000E+00  0.00000000E+00
  0.00000000E+00  0.00000000E+00  6.89990666E-02  3.16423961E-01  7.44308291E-01
  1.00000000E+00  1.00000000E+00  0.00000000E+00  0.00000000E+00  0.00000000E+00
  0.00000000E+00  0.00000000E+00  0.00000000E+00  6.89990666E-02  3.16423961E-01
  7.44308291E-01  1.00000000E+00  1.00000000E+00  0.00000000E+00  0.00000000E+00
  0.00000000E+00  0.00000000E+00  0.00000000E+00  0.00000000E+00  7.08742682E-02
  3.39752839E-01  7.27158577E-01  1.00000000E+00  1.00000000E+00  0.00000000E+00
  0.00000000E+00  0.00000000E+00  0.00000000E+00  0.00000000E+00  0.00000000E+00
  0.00000000E+00  0.00000000E+00  0.00000000E+00  0.00000000E+00  0.00000000E+00
  0.00000000E+00  0.00000000E+00  0.00000000E+00  0.00000000E+00  0.00000000E+00
Coordinates of each shell                  R   N=          72
  3.06049455E+00 -7.12783803E-01  1.30358448E-01  3.06049455E+00 -7.12783803E-01
  1.30358448E-01  3.06049455E+00 -7.12783803E-01  1.30358448E-01  3.06049455E+00
 -7.12783803E-01  1.30358448E-01  1.19675055E+00  9.20470059E-01 -3.48348381E-01
  1.19675055E+00  9.20470059E-01 -3.48348381E-01  1.19675055E+00  9.20470059E-01
 -3.48348381E-01  1.19675055E+00  9.20470059E-01 -3.48348381E-01 -1.44296886E+00
  5.89039211E-01  5.59907991E-01 -1.44296886E+00  5.89039211E-01  5.59907991E-01
 -1.44296886E+00  5.89039211E-01  5.59907991E-01 -1.44296886E+00  5.89039211E-01
  5.59907991E-01 -3.02056952E+00 -8.00761671E-01 -4.46256195E-01 -3.02056952E+00
 -8.00761671E-01 -4.46256195E-01 -3.02056952E+00 -8.00761671E-01 -4.46256195E-01
 -3.02056952E+00 -8.00761671E-01 -4.46256195E-01 -1.99789463E+00  1.75401589E+00
  2.19640873E+00 -1.99789463E+00  1.75401589E+00  2.19640873E+00  4.97903518E+00
 -3.56795594E-01 -4.97482687E-01  4.97903518E+00 -3.56795594E-01 -4.97482687E-01
  2.72638874E+00 -2.46673341E+00  1.14298777E+00  2.72638874E+00 -2.46673341E+00
  1.14298777E+00  1.57136948E+00  2.69525369E+00 -1.32337260E+00  1.57136948E+00
  2.69525369E+00 -1.32337260E+00
Constraint Structure                       R   N=          24
  3.07740960E+00 -7.12709811E-01  1.31060129E-01  1.19922378E+00  9.15519516E-01
 -3.53871942E-01 -1.44540443E+00  5.93360497E-01  5.55978278E-01 -3.03915577E+00
 -8.05904465E-01 -4.39293233E-01 -2.00156802E+00  1.78893534E+00  2.17681339E+00
  4.99862797E+00 -3.50084305E-01 -4.90720240E-01  2.75333695E+00 -2.47044807E+00
  1.14300847E+00  1.57547555E+00  2.70181155E+00 -1.31375455E+00
Num ILSW                                   I              100
ILSW                                       I   N=         100
           0           1           0           0           2           0
           0           0           0           0        4639          -1
           0           0           0           0           2           0
           0           0           0           0           1           0
           1           0           0           0           0           0
           0           0      100000           0          -1           0
           0           0           0           0           0           0
           0           0           0           1           0           0
           0           0           1           0           0           0
           0           0         121          41           0           0
           0           0          58           0           0           0
           0           0           0           8           0           0
           0           0           0           0           0           0
           0           0           0           0           0           0
           0           0           0           0           0           0
           0           0           0           0           0           0
           0           0           0           0
Num RLSW                                   I               41
RLSW                                       R   N=          41
  1.00000000E+00  1.00000000E+00  1.00000000E+00  1.00000000E+00  1.00000000E+00
  0.00000000E+00  2.00000000E-01  2.22036000E-01  0.00000000E+00  7.77964000E-01
  0.00000000E+00  2.00000000E-01  0.00000000E+00  0.00000000E+00  1.00000000E+00
  0.00000000E+00  0.00000000E+00  1.00000000E+00  0.00000000E+00  0.00000000E+00
  0.00000000E+00  0.00000000E+00  1.00000000E+00  0.00000000E+00  0.00000000E+00
  0.00000000E+00  0.00000000E+00  1.00000000E+00  0.00000000E+00  0.00000000E+00
  0.00000000E+00  0.00000000E+00  1.00000000E+00  0.00000000E+00  0.00000000E+00
  0.00000000E+00  0.00000000E+00  0.00000000E+00  1.00000000E+00  1.00000000E+00
  0.00000000E+00
MxBond                                     I                3
NBond                                      I   N=           8
           3           3           3           1           1           1
           1           1
IBond                                      I   N=          24
           2           6           7           1           3           8
           2           4           5           3           0           0
           3           0           0           1           0           0
           1           0           0           2           0           0
RBond                                      R   N=          24
  2.00000000E+00  1.00000000E+00  1.00000000E+00  2.00000000E+00  1.00000000E+00
  1.00000000E+00  1.00000000E+00  2.00000000E+00  1.00000000E+00  2.00000000E+00
  0.00000000E+00  0.00000000E+00  1.00000000E+00  0.00000000E+00  0.00000000E+00
  1.00000000E+00  0.00000000E+00  0.00000000E+00  1.00000000E+00  0.00000000E+00
  0.00000000E+00  1.00000000E+00  0.00000000E+00  0.00000000E+00
Virial Ratio                               R      2.005804972249488E+00
SCF Energy                                 R     -1.917829833904525E+02
Total Energy                               R     -1.917829833904525E+02
RMS Force                                  R      1.900172320773271E-03
RMS Density                                R      5.739746058634838E-09
External E-field                           R   N=          35
  0.00000000E+00  0.00000000E+00  0.00000000E+00  0.00000000E+00  0.00000000E+00
  0.00000000E+00  0.00000000E+00  0.00000000E+00  0.00000000E+00  0.00000000E+00
  0.00000000E+00  0.00000000E+00  0.00000000E+00  0.00000000E+00  0.00000000E+00
  0.00000000E+00  0.00000000E+00  0.00000000E+00  0.00000000E+00  0.00000000E+00
  0.00000000E+00  0.00000000E+00  0.00000000E+00  0.00000000E+00  0.00000000E+00
  0.00000000E+00  0.00000000E+00  0.00000000E+00  0.00000000E+00  0.00000000E+00
  0.00000000E+00  0.00000000E+00  0.00000000E+00  0.00000000E+00  0.00000000E+00
IOpCl                                      I                0
IROHF                                      I                0
Alpha Orbital Energies                     R   N=          60
 -1.92967021E+01 -1.04124558E+01 -1.03316301E+01 -1.03248589E+01 -1.17932749E+00
 -9.10537285E-01 -7.66004482E-01 -6.63136109E-01 -6.05821928E-01 -5.58668401E-01
 -5.40956293E-01 -4.88876966E-01 -4.69504323E-01 -3.77978205E-01 -3.54508420E-01
  1.59014801E-02  4.46888472E-02  7.57803382E-02  8.43549083E-02  9.40236058E-02
  1.10390892E-01  1.24525226E-01  1.34108323E-01  1.46855653E-01  1.66373806E-01
  1.71909159E-01  1.77729055E-01  1.94235657E-01  2.24365782E-01  2.74079780E-01
  2.84780993E-01  2.97911253E-01  3.11118782E-01  3.30540594E-01  3.33884154E-01
  3.71749421E-01  3.90706891E-01  4.53230803E-01  4.56570915E-01  5.04271864E-01
  6.95281477E-01  7.21477173E-01  7.59485261E-01  7.78903882E-01  8.08716518E-01
  8.52749137E-01  8.98553447E-01  9.03915112E-01  1.01756331E+00  1.05300389E+00
  1.10029386E+00  1.11932848E+00  1.13563468E+00  1.23310897E+00  1.27247550E+00
  1.31271392E+00  1.31985533E+00  1.38667921E+00  1.47354758E+00  1.89342547E+00
Alpha MO coefficients                      R   N=        3600
  3.24832511E-05  3.71006101E-04 -1.33770347E-04 -5.03277178E-05  1.84178328E-05
 -1.06863964E-03  8.45536688E-04 -1.53201098E-04 -3.86755992E-04  1.10856550E-02
 -2.07389405E-03  1.61375775E-03 -2.12377859E-04  2.71121578E-06 -2.75705379E-04
  2.07724114E-04  3.26783081E-05 -1.00300160E-04  7.07343743E-04  6.74295893E-04
  5.24461361E-04  1.17204861E-03 -9.81472703E-04 -5.19435252E-03  1.44514827E-03
 -1.02691056E-03  2.12532816E-04  1.02912755E-04 -1.48424615E-04  4.50517328E-05
  5.79564096E-05  6.04638519E-03 -2.79874945E-03 -3.49152152E-03 -2.97052786E-03
 -1.47825018E-02 -8.11729404E-04  1.56318785E-03  3.22112259E-03  9.95214326E-01
  2.93244280E-02  1.49331648E-03  1.25268655E-03  8.88435069E-04 -2.05877966E-02
 -3.21523807E-03 -2.50505926E-03 -1.64998014E-03  9.73348167E-03  6.73491739E-04
  3.14269939E-04 -5.11446811E-05 -1.73768606E-04  7.72334850E-04 -1.11916251E-05
 -4.99321477E-04  1.94567848E-04 -6.08808881E-05  6.98998488E-05 -2.78120606E-04
 -1.45921310E-04 -5.57959162E-04  1.81374710E-04 -2.85279856E-05 -5.30740664E-05
  1.92279757E-03 -1.16579333E-03  5.56108529E-04  9.76220920E-05 -8.92880358E-03
  1.68576353E-03 -1.61686573E-03  1.55352474E-04  1.54897535E-03 -3.40789892E-04
  5.05539221E-04  8.61092924E-06 -2.12453054E-04  3.25751405E-03 -3.59796418E-03
  2.55064237E-04  6.95657810E-04 -5.03829888E-03  5.39335784E-03 -5.74066751E-04
  3.62838763E-04  9.95430172E-01  3.60661894E-02 -8.86973737E-04 -8.61445061E-04
 -7.05608095E-04 -3.13605371E-02  1.69512498E-04  1.43126430E-03  2.06363024E-03
  1.14638031E-02  4.98213449E-03  2.34608229E-05 -2.56514641E-03 -1.33380763E-04
 -1.16839498E-04 -4.70821304E-04 -3.35248157E-04 -2.04940249E-04  1.40501820E-03
  5.48370293E-04 -4.65550895E-05 -3.23633015E-04  1.06028417E-02  3.33745443E-03
  3.73896055E-03  2.94864547E-03 -5.32758486E-04  3.04227746E-03 -2.18570661E-05
  8.51905094E-04 -2.08833304E-04 -3.84600270E-05 -2.06411023E-04  3.88899329E-04
  6.32531037E-02  8.49927354E-04  7.16673805E-04 -6.35810852E-04  1.83071524E-04
  7.67273781E-03 -4.37471858E-03  2.13863133E-03 -5.76596777E-05 -3.90048076E-02
  7.75279807E-03 -5.17327702E-03  1.04154696E-03  9.93361701E-01  3.61328005E-02
 -8.93985680E-05 -2.33999974E-04  3.03806914E-04 -3.41216146E-02  1.23512974E-03
  3.06985646E-03 -2.45619825E-03  6.83379550E-02 -4.75476913E-04 -1.13834575E-02
  7.02084800E-03 -1.46541279E-03 -5.78272113E-04 -5.30398906E-04 -1.15989845E-04
  2.68572932E-04  5.12313991E-03  5.32258878E-03  7.62514973E-04 -1.11928375E-03
 -2.80901006E-02 -7.06113286E-03  6.80607817E-04  1.13196762E-03 -8.76720707E-06
 -3.02957264E-04 -1.54366832E-04 -8.32666377E-05  2.22819433E-06  6.93718747E-04
  3.39260240E-04  5.15658161E-04  2.74005606E-04  2.37552160E-03  4.33691095E-04
  7.57793209E-04  1.05614070E-03 -1.66641408E-04  3.80414170E-04 -1.70204439E-04
  1.21590859E-03 -3.70312584E-04 -3.74583024E-04 -6.79280219E-04  3.26797629E-03
  9.93310179E-01  3.53018648E-02 -4.52616755E-04  3.72246031E-04 -7.39936465E-05
 -3.13600895E-02  3.32960972E-03 -2.82842359E-03  7.69979266E-04  2.94354040E-02
 -5.98742360E-03  6.58260229E-03 -2.10509060E-03 -6.35202027E-02 -3.60257643E-03
 -8.57663439E-04  8.47140025E-04 -2.85093329E-04  1.08606251E-02  4.87990237E-03
 -4.03790342E-03  1.34050532E-03  1.25005730E-03 -1.45632394E-02  1.53430567E-03
  2.37888033E-03  1.39884562E-04 -4.84257559E-04 -1.83125001E-04 -3.00896301E-05
 -2.86882591E-05  2.00455498E-03  1.29973430E-05 -8.78007633E-05 -8.22157375E-04
 -2.99776211E-02 -7.21384996E-03  1.15481407E-04  2.43345252E-03  1.57109770E-05
  2.88760086E-04  8.08017313E-05  2.47863910E-05  1.01216397E-05 -1.19723109E-03
 -6.67954191E-04 -2.94176160E-04 -1.51326242E-04  8.76594000E-04 -1.70984960E-05
 -2.09994325E-05  3.92866714E-04 -5.18318115E-05  2.81634501E-04 -7.04596942E-04
  4.07323308E-03 -6.22888510E-04  3.81843002E-03 -6.60864121E-05  1.37479476E-04
 -4.70922490E-03  7.73698183E-03 -5.73723396E-03  2.43323639E-03 -4.04452904E-04
  3.98056812E-03  5.34126340E-04  1.27325864E-03  1.13739602E-03  1.60286745E-02
 -4.79965063E-03  1.27329091E-03 -2.11766437E-04 -1.83149870E-02  3.57315868E-02
 -2.52790591E-02 -8.09395060E-03  4.81042208E-03  7.68397288E-03  2.84736628E-04
 -9.10917819E-03 -9.44960279E-03 -4.57062701E-02  1.26715913E-02  9.28799260E-03
 -2.03934905E-03 -1.16081445E-01  2.37446354E-01 -1.23321113E-01 -1.12538457E-01
 -8.41791873E-02  4.90744513E-02  3.63791300E-02  3.79502303E-02  2.93052459E-02
  4.02496346E-02 -9.05425525E-03 -8.02096344E-03 -7.52222618E-03 -1.92667812E-01
  4.26614563E-01  1.23964495E-01  1.08277358E-01  7.78865628E-02  4.14788192E-01
  4.83857365E-02  4.19703870E-02  3.01823210E-02 -3.85190902E-03  8.30200829E-03
  4.02669221E-03  2.04586597E-03  2.85033160E-02 -1.63548651E-02  9.16322719E-04
 -1.19585583E-03  1.61342413E-03  2.03476444E-03  5.02454375E-03  2.01320773E-03
 -1.38040531E-01  2.67090944E-01 -8.22058645E-02  6.78600279E-02 -1.61519216E-02
  2.01250346E-01 -9.25297174E-03  7.90631772E-04  1.98071649E-03 -9.65673424E-04
 -6.66644228E-03 -4.46776322E-03  4.91628387E-03 -1.64932837E-01  3.21336153E-01
  3.87472987E-02 -5.77438686E-02  3.51525544E-02  2.26573351E-01  7.48798245E-04
  1.23037048E-02  1.99831275E-03 -1.00486804E-01  4.20087511E-02  7.41388482E-03
 -1.79630497E-02 -5.36605871E-02  1.04878906E-01  1.29571033E-01  4.12232829E-02
  5.69925681E-04  1.13577799E-01  1.66764076E-02 -8.49802412E-03 -7.44351179E-03
  1.08608889E-01  2.43872369E-02  6.09187085E-03 -6.53626494E-03  4.13224680E-02
 -9.37124155E-02  6.86221471E-03 -1.10445495E-02 -1.35312759E-02 -1.12828818E-01
 -5.36144156E-03 -6.32191321E-03 -6.16310104E-03 -2.06255980E-02 -5.35985904E-03
 -6.63067541E-03 -4.86427102E-03  3.08724564E-02  7.81709313E-03  6.73336873E-02
  1.13759527E-02  6.88372541E-02  7.03471481E-03  8.48780343E-02  8.23587142E-03
  1.29427795E-01 -2.55779412E-01 -3.59767114E-02  7.22030326E-03  1.04904226E-02
 -2.31159569E-01 -1.79570551E-02  9.14744764E-03 -8.06602489E-04  1.44137518E-01
 -2.49633556E-02  2.53760588E-02 -7.50679070E-03 -4.42482840E-02  8.91067700E-02
 -2.10798473E-01  9.32859977E-02  2.34113484E-02  8.93603546E-02 -4.65870670E-02
  2.48971109E-02  4.60685084E-03 -5.78079782E-02 -6.61387025E-02  2.51013744E-02
 -4.13252639E-03 -1.21071479E-01  2.54805496E-01  1.25948552E-01  1.15219672E-01
  4.25327303E-02  2.60110565E-01  1.66128464E-02  3.06682166E-02  1.51126091E-02
 -8.94953374E-02 -1.78450111E-02  1.62342695E-03  1.86165860E-02  6.38235144E-02
 -1.48301198E-01  3.18572074E-02  3.42637872E-02  1.08259492E-02 -1.87160084E-01
  9.58089441E-03  9.53570292E-03  9.34491238E-04 -2.27110859E-02 -7.20395328E-03
 -8.84234279E-03 -7.50909632E-03  1.21941142E-01  3.87164013E-02 -1.15130683E-01
 -3.81169033E-02 -9.93249160E-02 -2.95661920E-02  4.81594987E-02  1.41595577E-02
 -6.60033578E-02  1.33273873E-01  8.47583519E-02 -1.40493073E-01  7.10794533E-02
  1.36838038E-01  3.21425232E-02 -4.09043059E-02  2.36023868E-02 -6.01462218E-02
  1.86480750E-02 -1.26111853E-02  3.21076771E-03  9.37887823E-02 -1.92176645E-01
 -4.12192451E-02 -9.65399202E-02  9.82063683E-02 -1.90875988E-01 -6.46414301E-03
 -5.68856783E-02  3.87712462E-02  9.05561007E-02 -1.36934901E-03 -1.63996214E-02
  7.58663206E-03 -8.44347627E-02  1.83205625E-01 -9.98012062E-02  7.18670650E-02
  1.94040818E-01  2.10753888E-01 -3.47858831E-02  3.64899298E-02  7.81152458E-02
 -2.28542580E-02 -9.38647654E-03  2.77558297E-03  1.24971314E-02  4.86153038E-02
 -1.13272816E-01  2.44510521E-03  6.91266273E-02  1.19633794E-01 -1.57353170E-01
 -2.69025300E-03  2.33748980E-02  4.95922206E-02 -2.45534844E-02 -3.87813054E-04
 -2.40827465E-03 -4.23227459E-03  1.81456997E-01  7.40699647E-02  7.95032738E-02
  3.46732790E-02  1.30331003E-01  6.59564149E-02 -1.55534931E-01 -6.27560406E-02
  1.51647159E-03 -4.22413724E-03 -1.62545481E-01 -1.46179922E-01  9.72656616E-02
 -1.04523112E-02 -6.89086005E-02 -6.57039019E-02  4.36204868E-02 -3.61183569E-02
  4.43010067E-03 -8.46980803E-03  3.83227432E-03  7.53813264E-03 -8.76133461E-03
 -1.84125369E-01 -2.12336393E-01  1.11126427E-01 -5.07859516E-02 -3.94799017E-02
 -7.98425733E-02  3.42638402E-02  1.27826887E-02 -1.20490830E-04 -1.29441431E-02
  2.68888313E-03 -6.83396077E-03  1.86471612E-02  2.19348015E-01 -1.51983601E-01
 -1.65338933E-01  2.25466697E-02  9.00453556E-02 -7.11153601E-02 -7.54019650E-02
  1.79232923E-02  1.85600453E-02 -5.81248590E-03 -1.04024668E-02  9.08742417E-03
 -2.03823688E-02  1.57017185E-01 -7.64553064E-02 -7.79577205E-02 -3.81406459E-02
  7.35195267E-02 -4.31689213E-02 -3.94445677E-02 -1.66154886E-02 -5.69652012E-03
  1.69623179E-03  3.23678101E-03 -1.29913001E-01 -6.12649717E-02 -1.10620897E-01
 -5.30092517E-02  1.03122026E-01  4.82393742E-02 -1.53731690E-01 -8.71012721E-02
 -9.80169881E-03  1.61514872E-02  3.15542586E-01 -1.86592106E-01  5.54758659E-03
  7.77768788E-02  1.01456256E-01 -5.52028139E-02 -4.59250975E-03 -1.39604578E-02
  2.34908335E-02 -1.26815715E-02  4.05477534E-03  2.88711484E-02 -5.88757280E-02
 -2.23520525E-01  2.02619404E-01 -1.15206172E-01 -6.84916644E-02 -5.74195493E-02
  7.36116380E-02 -5.32598136E-02 -2.06992958E-02 -6.48230401E-04  5.36676126E-03
 -9.76757494E-03 -2.21169496E-02  5.67142321E-02  4.64592360E-02  1.88055462E-02
 -2.39059376E-01  6.19357021E-02  3.40180669E-02  1.77935778E-02 -1.09615170E-01
  4.52824694E-02  2.05989503E-02  1.70282402E-03 -1.21280774E-02  2.49691277E-02
 -5.58417993E-02  1.41860713E-01  1.22489292E-01 -1.17980823E-01 -9.70838620E-02
  6.32556647E-02  5.87997922E-02 -7.07067316E-02 -2.45177330E-02  1.58618686E-03
  1.23687070E-03  2.04737913E-03 -7.75007777E-02 -4.24249516E-02  1.68524018E-01
  1.06050696E-01  7.82002173E-02  4.91114321E-02  8.03734956E-02  5.14530307E-02
  6.08618262E-04 -3.54835256E-03  3.69311529E-02 -1.49651676E-01  1.07348446E-01
  2.15255485E-02  2.38792126E-03 -5.47190666E-02  4.63126218E-02 -2.13754060E-02
  9.57875056E-03 -1.19477683E-02  3.51960635E-03 -1.02589824E-04 -3.27687769E-03
 -1.29957566E-01  1.03080432E-01  4.93949418E-02  1.92896883E-02 -4.73586548E-02
  3.97441022E-02  2.19747016E-02  3.69940628E-02 -5.29802749E-03  3.21062297E-03
  8.11065758E-03  3.37563871E-02 -1.04183819E-01  2.08969607E-01  2.31437783E-01
  1.27194636E-01 -9.55008968E-02  5.43822638E-02  8.24401563E-02  4.77652766E-02
 -1.12067318E-02  3.67295442E-03  2.26149901E-03  9.29218589E-04 -8.42369619E-02
  1.84163738E-01 -3.33920797E-01 -2.48023000E-01 -2.10200298E-01  3.49119731E-01
 -1.32316973E-01 -9.22808694E-02 -8.46575796E-02  9.89125717E-02 -9.46311766E-03
 -8.74927637E-03 -7.08994634E-03  5.86357619E-02  3.46267102E-02 -1.46083073E-02
 -5.75540126E-03  1.06609821E-01  6.62552980E-02  2.74613541E-02  1.62287605E-02
 -3.57452055E-03  8.83327009E-03 -2.35224684E-01 -1.96821434E-01  1.43195855E-01
  1.89589282E-02 -1.13089920E-01 -9.51918723E-02  6.94463026E-02 -3.07193703E-02
 -1.34587076E-02 -1.79608246E-02  1.80943072E-02 -1.41868993E-02  2.47096795E-02
  8.41317178E-02  8.22096845E-02 -9.49808726E-02  6.94483291E-02  1.44089596E-02
  4.79490693E-02 -4.12017821E-02 -2.53644008E-02  4.14990900E-02 -3.44434209E-03
 -1.72666173E-02  2.23935918E-02 -4.40294085E-02 -2.32337096E-01  8.37316300E-02
 -8.85659240E-02 -6.95194286E-02 -1.17970913E-01  5.36241570E-02 -3.23729893E-02
  6.50977090E-02  1.58457567E-03  2.02602961E-02 -1.09189354E-02  1.45337116E-02
 -2.97173291E-02 -7.72746516E-02  2.90093623E-01  1.79457919E-02 -7.13585856E-02
 -6.04084284E-02  1.59190308E-01 -5.90734215E-03 -3.17021607E-02 -1.93973150E-03
  7.75506658E-03  2.98522088E-03 -1.15397138E-02 -2.18913821E-02 -2.03608800E-01
 -1.43709783E-01  1.94838784E-01  1.35022978E-01  1.16280175E-01  8.33261379E-02
  1.72280382E-02 -4.55350908E-02  4.28871665E-02 -1.53677677E-01  9.59608277E-02
  1.03610109E-02 -2.91138053E-02 -6.16991044E-02  4.87677191E-02  2.33932130E-01
 -4.36851972E-02  1.45173875E-02 -6.99941918E-03 -5.38130081E-03  7.96725466E-03
 -1.30313714E-02  2.09431843E-01 -7.48343918E-02  2.48915399E-02 -7.62310496E-03
  1.34558329E-01 -4.95760342E-02 -1.78232392E-01 -5.75449017E-02  8.90689430E-02
 -2.01759998E-02  9.92959000E-03 -1.80319256E-02  7.97950319E-03 -2.40999944E-01
  1.55665824E-01 -3.47179657E-02  2.32306913E-02 -1.36479565E-01  1.01262557E-01
 -5.60912973E-02 -8.62058208E-03 -3.64559046E-02  3.01959782E-02  6.29570384E-03
 -1.23159255E-02  1.30350729E-01 -2.64085491E-01  3.29195595E-01 -3.03944954E-02
  7.40525834E-02 -1.71008810E-01  2.00789781E-01  9.75300445E-03  1.36973458E-02
 -4.12787180E-03  7.94843217E-03 -2.73076270E-02 -1.86159382E-02 -3.73019734E-02
 -1.22721549E-02  1.07104389E-01  7.88315610E-02  1.69086898E-01  1.13999566E-01
  3.40628513E-04 -1.17417328E-03  8.26066604E-02  1.84936682E-01  3.40779455E-01
 -1.73743648E-02  6.32303466E-02  1.13410247E-01  2.20238497E-01 -8.38726200E-02
  2.59095499E-02  9.76635507E-03  3.31773185E-02  5.48136906E-05 -3.93295991E-03
  6.14934970E-02  1.79119355E-01  3.51446802E-01  1.51859704E-02  5.16481327E-02
  1.02628386E-01  2.35250230E-01  1.14040246E-01  1.63549520E-02 -2.30623098E-03
  5.51573529E-02  4.81526750E-03 -4.27363561E-04  9.08706967E-03 -4.39819295E-02
 -6.83448023E-02 -6.26452457E-02  3.04431274E-02  8.18874030E-03 -1.54852198E-02
 -3.18945948E-02 -3.96852340E-03 -1.28655075E-02 -1.96626620E-02 -3.30652986E-03
  1.06109286E-02  4.79966160E-02  1.13479948E-01  1.39474917E-03  3.63784999E-02
  2.41804031E-02  7.76292331E-02  4.92711109E-03 -6.15991513E-04  4.45935125E-03
  1.80013909E-02  9.52728272E-04 -8.59156241E-02 -9.31095715E-02  4.45542901E-03
 -4.44484830E-05 -4.77147637E-03 -6.93228695E-03 -3.61388983E-03 -4.60280055E-03
 -6.11927450E-03  1.57422879E-02 -6.02651019E-02  1.92868981E-02  4.54317891E-02
 -2.66378755E-03 -4.54005804E-02 -1.68787659E-02  4.84641291E-02 -4.61895687E-02
 -7.80506475E-03 -1.41857870E-02  8.14370614E-03  3.45016771E-02 -7.10152612E-02
  2.20386009E-01  6.66226566E-02 -4.10671310E-02 -2.33618334E-01  2.02005286E-01
  5.85855616E-02 -5.90565541E-02  7.61922346E-02  1.16110291E-02 -1.71754502E-03
  9.92484020E-03  1.46692481E-03 -1.95341827E-02 -1.15234075E-01  3.95697666E-02
  1.01255171E-01  6.36458509E-02  7.56898750E-02  1.19963385E-02 -2.17945957E-02
 -6.47336989E-03  1.12115553E-02  5.89559484E-03 -4.25950317E-03  3.03143508E-04
 -1.15100446E-03  4.02277495E-01 -1.63506687E-01 -3.93334967E-01  5.39564095E-03
  2.71530656E-01 -1.08851117E-01 -2.63130423E-01  1.44237472E-02  4.36454333E-02