 Entering Gaussian System, Link 0=/opt/cluster/programs/g09_d.01/g09//g09
 Input=/home/unibas/boittier/RDKit_G2/N.pdb/SCAN_1_2_6_8_S_17_20.0/8_SCAN_1_2_6_8_F/8_SCAN_N.pdb.com
 Output=/scratch/boittier/8_SCAN_N.pdb/8_SCAN_N.pdb.out
 Initial command:
 /opt/cluster/programs/g09_d.01/g09/l1.exe "/scratch/boittier/8_SCAN_N.pdb/Gau-148115.inp" -scrdir="/scratch/boittier/8_SCAN_N.pdb/"
 Entering Link 1 = /opt/cluster/programs/g09_d.01/g09/l1.exe PID=    148116.
  
 Copyright (c) 1988,1990,1992,1993,1995,1998,2003,2009,2013,
            Gaussian, Inc.  All Rights Reserved.
  
 This is part of the Gaussian(R) 09 program.  It is based on
 the Gaussian(R) 03 system (copyright 2003, Gaussian, Inc.),
 the Gaussian(R) 98 system (copyright 1998, Gaussian, Inc.),
 the Gaussian(R) 94 system (copyright 1995, Gaussian, Inc.),
 the Gaussian 92(TM) system (copyright 1992, Gaussian, Inc.),
 the Gaussian 90(TM) system (copyright 1990, Gaussian, Inc.),
 the Gaussian 88(TM) system (copyright 1988, Gaussian, Inc.),
 the Gaussian 86(TM) system (copyright 1986, Carnegie Mellon
 University), and the Gaussian 82(TM) system (copyright 1983,
 Carnegie Mellon University). Gaussian is a federally registered
 trademark of Gaussian, Inc.
  
 This software contains proprietary and confidential information,
 including trade secrets, belonging to Gaussian, Inc.
  
 This software is provided under written license and may be
 used, copied, transmitted, or stored only in accord with that
 written license.
  
 The following legend is applicable only to US Government
 contracts under FAR:
  
                    RESTRICTED RIGHTS LEGEND
  
 Use, reproduction and disclosure by the US Government is
 subject to restrictions as set forth in subparagraphs (a)
 and (c) of the Commercial Computer Software - Restricted
 Rights clause in FAR 52.227-19.
  
 Gaussian, Inc.
 340 Quinnipiac St., Bldg. 40, Wallingford CT 06492
  
  
 ---------------------------------------------------------------
 Warning -- This program may not be used in any manner that
 competes with the business of Gaussian, Inc. or will provide
 assistance to any competitor of Gaussian, Inc.  The licensee
 of this program is prohibited from giving any competitor of
 Gaussian, Inc. access to this program.  By using this program,
 the user acknowledges that Gaussian, Inc. is engaged in the
 business of creating and licensing software in the field of
 computational chemistry and represents and warrants to the
 licensee that it is not a competitor of Gaussian, Inc. and that
 it will not use this program in any manner prohibited above.
 ---------------------------------------------------------------
  

 Cite this work as:
 Gaussian 09, Revision D.01,
 M. J. Frisch, G. W. Trucks, H. B. Schlegel, G. E. Scuseria, 
 M. A. Robb, J. R. Cheeseman, G. Scalmani, V. Barone, B. Mennucci, 
 G. A. Petersson, H. Nakatsuji, M. Caricato, X. Li, H. P. Hratchian, 
 A. F. Izmaylov, J. Bloino, G. Zheng, J. L. Sonnenberg, M. Hada, 
 M. Ehara, K. Toyota, R. Fukuda, J. Hasegawa, M. Ishida, T. Nakajima, 
 Y. Honda, O. Kitao, H. Nakai, T. Vreven, J. A. Montgomery, Jr., 
 J. E. Peralta, F. Ogliaro, M. Bearpark, J. J. Heyd, E. Brothers, 
 K. N. Kudin, V. N. Staroverov, T. Keith, R. Kobayashi, J. Normand, 
 K. Raghavachari, A. Rendell, J. C. Burant, S. S. Iyengar, J. Tomasi, 
 M. Cossi, N. Rega, J. M. Millam, M. Klene, J. E. Knox, J. B. Cross, 
 V. Bakken, C. Adamo, J. Jaramillo, R. Gomperts, R. E. Stratmann, 
 O. Yazyev, A. J. Austin, R. Cammi, C. Pomelli, J. W. Ochterski, 
 R. L. Martin, K. Morokuma, V. G. Zakrzewski, G. A. Voth, 
 P. Salvador, J. J. Dannenberg, S. Dapprich, A. D. Daniels, 
 O. Farkas, J. B. Foresman, J. V. Ortiz, J. Cioslowski, 
 and D. J. Fox, Gaussian, Inc., Wallingford CT, 2013.
 
 ******************************************
 Gaussian 09:  ES64L-G09RevD.01 24-Apr-2013
                26-May-2021 
 ******************************************
 %chk=/home/unibas/boittier/RDKit_G2/N.pdb/SCAN_1_2_6_8_S_17_20.0/8_SCAN_1_2_6_8_
 F/N.pdb.chk
 %nproc=8
 Will use up to    8 processors via shared memory.
 %mem=16GB
 -----------------------------
 #p wB97XD/6-31+G Opt=ModRedun
 -----------------------------
 1/14=-1,18=120,19=15,26=3,38=1/1,3;
 2/9=110,12=2,17=6,18=5,40=1/2;
 3/5=1,6=6,7=10,11=2,16=1,25=1,30=1,71=1,74=-58/1,2,3;
 4//1;
 5/5=2,38=5/2;
 6/7=2,8=2,9=2,10=2,28=1/1;
 7//1,2,3,16;
 1/14=-1,18=20,19=15,26=3/3(2);
 2/9=110/2;
 99//99;
 2/9=110/2;
 3/5=1,6=6,7=10,11=2,16=1,25=1,30=1,71=1,74=-58/1,2,3;
 4/5=5,16=3,69=1/1;
 5/5=2,38=5/2;
 7//1,2,3,16;
 1/14=-1,18=20,19=15,26=3/3(-5);
 2/9=110/2;
 6/7=2,8=2,9=2,10=2,19=2,28=1/1;
 99/9=1/99;
 Leave Link    1 at Wed May 26 09:20:48 2021, MaxMem=  2147483648 cpu:         0.2
 (Enter /opt/cluster/programs/g09_d.01/g09/l101.exe)
 -----
 N.pdb
 -----
 Symbolic Z-matrix:
 Charge =  0 Multiplicity = 1
 C                     2.51847   0.85562   0.12512 
 C                     1.46664  -0.16922  -0.18646 
 H                     2.79045   1.41133  -0.78047 
 H                     3.40409   0.37001   0.53574 
 H                     2.12905   1.58139   0.84953 
 C                     0.17467   0.35066  -0.82568 
 O                     1.62072  -1.37304   0.02312 
 C                    -1.05604   0.06333  -0.00911 
 H                     0.04672  -0.12825  -1.80125 
 H                     0.22028   1.43138  -0.97422 
 F                    -1.35136  -1.27977   0.1092 
 F                    -2.17516   0.67413  -0.57587 
 F                    -0.93779   0.5741    1.28471 
 
 The following ModRedundant input section has been read:
 D       1       2       6       8 F                                           
 
 NAtoms=     13 NQM=       13 NQMF=       0 NMMI=      0 NMMIF=      0
                NMic=       0 NMicF=      0.
                    Isotopes and Nuclear Properties:
 (Nuclear quadrupole moments (NQMom) in fm**2, nuclear magnetic moments (NMagM)
  in nuclear magnetons)

  Atom         1           2           3           4           5           6           7           8           9          10
 IAtWgt=          12          12           1           1           1          12          16          12           1           1
 AtmWgt=  12.0000000  12.0000000   1.0078250   1.0078250   1.0078250  12.0000000  15.9949146  12.0000000   1.0078250   1.0078250
 NucSpn=           0           0           1           1           1           0           0           0           1           1
 AtZEff=   0.0000000   0.0000000   0.0000000   0.0000000   0.0000000   0.0000000   0.0000000   0.0000000   0.0000000   0.0000000
 NQMom=    0.0000000   0.0000000   0.0000000   0.0000000   0.0000000   0.0000000   0.0000000   0.0000000   0.0000000   0.0000000
 NMagM=    0.0000000   0.0000000   2.7928460   2.7928460   2.7928460   0.0000000   0.0000000   0.0000000   2.7928460   2.7928460
 AtZNuc=   6.0000000   6.0000000   1.0000000   1.0000000   1.0000000   6.0000000   8.0000000   6.0000000   1.0000000   1.0000000

  Atom        11          12          13
 IAtWgt=          19          19          19
 AtmWgt=  18.9984033  18.9984033  18.9984033
 NucSpn=           1           1           1
 AtZEff=   0.0000000   0.0000000   0.0000000
 NQMom=    0.0000000   0.0000000   0.0000000
 NMagM=    2.6288670   2.6288670   2.6288670
 AtZNuc=   9.0000000   9.0000000   9.0000000
 Leave Link  101 at Wed May 26 09:20:49 2021, MaxMem=  2147483648 cpu:         4.1
 (Enter /opt/cluster/programs/g09_d.01/g09/l103.exe)

 GradGradGradGradGradGradGradGradGradGradGradGradGradGradGradGradGradGrad
 Berny optimization.
 Initialization pass.
                           ----------------------------
                           !    Initial Parameters    !
                           ! (Angstroms and Degrees)  !
 --------------------------                            --------------------------
 ! Name  Definition              Value          Derivative Info.                !
 --------------------------------------------------------------------------------
 ! R1    R(1,2)                  1.5012         estimate D2E/DX2                !
 ! R2    R(1,3)                  1.0968         estimate D2E/DX2                !
 ! R3    R(1,4)                  1.0903         estimate D2E/DX2                !
 ! R4    R(1,5)                  1.0969         estimate D2E/DX2                !
 ! R5    R(2,6)                  1.5323         estimate D2E/DX2                !
 ! R6    R(2,7)                  1.2316         estimate D2E/DX2                !
 ! R7    R(6,8)                  1.5047         estimate D2E/DX2                !
 ! R8    R(6,9)                  1.0943         estimate D2E/DX2                !
 ! R9    R(6,10)                 1.0918         estimate D2E/DX2                !
 ! R10   R(8,11)                 1.3803         estimate D2E/DX2                !
 ! R11   R(8,12)                 1.3952         estimate D2E/DX2                !
 ! R12   R(8,13)                 1.396          estimate D2E/DX2                !
 ! A1    A(2,1,3)              110.3815         estimate D2E/DX2                !
 ! A2    A(2,1,4)              110.0732         estimate D2E/DX2                !
 ! A3    A(2,1,5)              109.878          estimate D2E/DX2                !
 ! A4    A(3,1,4)              109.5856         estimate D2E/DX2                !
 ! A5    A(3,1,5)              107.3431         estimate D2E/DX2                !
 ! A6    A(4,1,5)              109.5333         estimate D2E/DX2                !
 ! A7    A(1,2,6)              116.4687         estimate D2E/DX2                !
 ! A8    A(1,2,7)              122.9763         estimate D2E/DX2                !
 ! A9    A(6,2,7)              120.5361         estimate D2E/DX2                !
 ! A10   A(2,6,8)              113.4815         estimate D2E/DX2                !
 ! A11   A(2,6,9)              108.7836         estimate D2E/DX2                !
 ! A12   A(2,6,10)             110.937          estimate D2E/DX2                !
 ! A13   A(8,6,9)              107.7351         estimate D2E/DX2                !
 ! A14   A(8,6,10)             107.2786         estimate D2E/DX2                !
 ! A15   A(9,6,10)             108.4693         estimate D2E/DX2                !
 ! A16   A(6,8,11)             114.0378         estimate D2E/DX2                !
 ! A17   A(6,8,12)             110.6105         estimate D2E/DX2                !
 ! A18   A(6,8,13)             111.3349         estimate D2E/DX2                !
 ! A19   A(11,8,12)            106.8091         estimate D2E/DX2                !
 ! A20   A(11,8,13)            107.1401         estimate D2E/DX2                !
 ! A21   A(12,8,13)            106.5139         estimate D2E/DX2                !
 ! D1    D(3,1,2,6)            -56.5539         estimate D2E/DX2                !
 ! D2    D(3,1,2,7)            121.8678         estimate D2E/DX2                !
 ! D3    D(4,1,2,6)           -177.6513         estimate D2E/DX2                !
 ! D4    D(4,1,2,7)              0.7704         estimate D2E/DX2                !
 ! D5    D(5,1,2,6)             61.6414         estimate D2E/DX2                !
 ! D6    D(5,1,2,7)           -119.9368         estimate D2E/DX2                !
 ! D7    D(1,2,6,8)           -120.2166         Frozen                          !
 ! D8    D(1,2,6,9)            119.8788         estimate D2E/DX2                !
 ! D9    D(1,2,6,10)             0.6434         estimate D2E/DX2                !
 ! D10   D(7,2,6,8)             61.3205         estimate D2E/DX2                !
 ! D11   D(7,2,6,9)            -58.584          estimate D2E/DX2                !
 ! D12   D(7,2,6,10)          -177.8194         estimate D2E/DX2                !
 ! D13   D(2,6,8,11)           -65.4674         estimate D2E/DX2                !
 ! D14   D(2,6,8,12)           174.1323         estimate D2E/DX2                !
 ! D15   D(2,6,8,13)            55.9081         estimate D2E/DX2                !
 ! D16   D(9,6,8,11)            55.0315         estimate D2E/DX2                !
 ! D17   D(9,6,8,12)           -65.3688         estimate D2E/DX2                !
 ! D18   D(9,6,8,13)           176.407          estimate D2E/DX2                !
 ! D19   D(10,6,8,11)          171.6343         estimate D2E/DX2                !
 ! D20   D(10,6,8,12)           51.234          estimate D2E/DX2                !
 ! D21   D(10,6,8,13)          -66.9902         estimate D2E/DX2                !
 --------------------------------------------------------------------------------
 Trust Radius=3.00D-01 FncErr=1.00D-07 GrdErr=1.00D-06
 Number of steps in this run=     64 maximum allowed number of steps=    100.
 GradGradGradGradGradGradGradGradGradGradGradGradGradGradGradGradGradGrad

 Leave Link  103 at Wed May 26 09:20:49 2021, MaxMem=  2147483648 cpu:         0.1
 (Enter /opt/cluster/programs/g09_d.01/g09/l202.exe)
                          Input orientation:                          
 ---------------------------------------------------------------------
 Center     Atomic      Atomic             Coordinates (Angstroms)
 Number     Number       Type             X           Y           Z
 ---------------------------------------------------------------------
      1          6           0        2.518473    0.855620    0.125120
      2          6           0        1.466643   -0.169217   -0.186456
      3          1           0        2.790448    1.411331   -0.780470
      4          1           0        3.404087    0.370007    0.535737
      5          1           0        2.129054    1.581392    0.849531
      6          6           0        0.174667    0.350661   -0.825680
      7          8           0        1.620722   -1.373044    0.023121
      8          6           0       -1.056042    0.063332   -0.009105
      9          1           0        0.046724   -0.128254   -1.801252
     10          1           0        0.220283    1.431379   -0.974215
     11          9           0       -1.351361   -1.279766    0.109204
     12          9           0       -2.175162    0.674127   -0.575867
     13          9           0       -0.937790    0.574098    1.284710
 ---------------------------------------------------------------------
                    Distance matrix (angstroms):
                    1          2          3          4          5
     1  C    0.000000
     2  C    1.501238   0.000000
     3  H    1.096758   2.145564   0.000000
     4  H    1.090293   2.136823   1.786983   0.000000
     5  H    1.096888   2.139320   1.767276   1.786513   0.000000
     6  C    2.579231   1.532345   2.823008   3.504709   2.853184
     7  O    2.404850   1.231610   3.125182   2.545858   3.109670
     8  C    3.663727   2.539581   4.148203   4.503738   3.631336
     9  H    3.284579   2.150678   3.307618   4.120882   3.779635
    10  H    2.611841   2.176209   2.577535   3.680092   2.644231
    11  F    4.419926   3.043334   5.018775   5.051531   4.565917
    12  F    4.749161   3.758406   5.024203   5.697032   4.623977
    13  F    3.656454   2.915158   4.343465   4.410727   3.257231
                    6          7          8          9         10
     6  C    0.000000
     7  O    2.404724   0.000000
     8  C    1.504659   3.037973   0.000000
     9  H    1.094290   2.712067   2.112957   0.000000
    10  H    1.091831   3.289483   2.105230   1.773857   0.000000
    11  F    2.420963   2.974792   1.380262   2.632577   3.315746
    12  F    2.385107   4.354128   1.395249   2.661233   2.543672
    13  F    2.396087   3.453832   1.396002   3.314472   2.679329
                   11         12         13
    11  F    0.000000
    12  F    2.228378   0.000000
    13  F    2.233756   2.236703   0.000000
 Stoichiometry    C4H5F3O
 Framework group  C1[X(C4H5F3O)]
 Deg. of freedom    33
 Full point group                 C1      NOp   1
 Largest Abelian subgroup         C1      NOp   1
 Largest concise Abelian subgroup C1      NOp   1
                         Standard orientation:                         
 ---------------------------------------------------------------------
 Center     Atomic      Atomic             Coordinates (Angstroms)
 Number     Number       Type             X           Y           Z
 ---------------------------------------------------------------------
      1          6           0       -2.518473   -0.855620    0.125120
      2          6           0       -1.466643    0.169217   -0.186456
      3          1           0       -2.790448   -1.411331   -0.780470
      4          1           0       -3.404087   -0.370007    0.535737
      5          1           0       -2.129054   -1.581392    0.849531
      6          6           0       -0.174667   -0.350661   -0.825680
      7          8           0       -1.620722    1.373044    0.023121
      8          6           0        1.056042   -0.063332   -0.009105
      9          1           0       -0.046724    0.128254   -1.801252
     10          1           0       -0.220283   -1.431379   -0.974215
     11          9           0        1.351361    1.279766    0.109204
     12          9           0        2.175162   -0.674127   -0.575867
     13          9           0        0.937790   -0.574098    1.284710
 ---------------------------------------------------------------------
 Rotational constants (GHZ):      3.4744224      1.3490259      1.2171748
 Leave Link  202 at Wed May 26 09:20:49 2021, MaxMem=  2147483648 cpu:         0.0
 (Enter /opt/cluster/programs/g09_d.01/g09/l301.exe)
 Standard basis: 6-31+G (6D, 7F)
 Ernie: Thresh=  0.10000D-02 Tol=  0.10000D-05 Strict=F.
 There are   114 symmetry adapted cartesian basis functions of A   symmetry.
 There are   114 symmetry adapted basis functions of A   symmetry.
   114 basis functions,   228 primitive gaussians,   114 cartesian basis functions
    32 alpha electrons       32 beta electrons
       nuclear repulsion energy       404.0942794584 Hartrees.
 IExCor= 4639 DFT=T Ex+Corr=wB97XD ExCW=0 ScaHFX=  1.000000
 ScaDFX=  1.000000  1.000000  1.000000  1.000000 ScalE2=  1.000000  1.000000
 IRadAn=      0 IRanWt=     -1 IRanGd=            0 ICorTp=0 IEmpDi=121
  HFx wShort=  0.000000 wLong=  0.200000 cFull=  0.222036 cShort=  0.000000 cLong=  0.777964
  DFx wShort=  0.000000 wLong=  0.200000 cFull=  0.000000 cShort=  0.000000 cLong=  1.000000
 NAtoms=   13 NActive=   13 NUniq=   13 SFac= 1.00D+00 NAtFMM=   60 NAOKFM=F Big=F
 Integral buffers will be    131072 words long.
 Raffenetti 2 integral format.
 Two-electron integral symmetry is turned on.
 R6Disp:  Grimme-D2 Dispersion energy=       -0.0057814706 Hartrees.
 Nuclear repulsion after empirical dispersion term =      404.0884979878 Hartrees.
 Leave Link  301 at Wed May 26 09:20:49 2021, MaxMem=  2147483648 cpu:         0.3
 (Enter /opt/cluster/programs/g09_d.01/g09/l302.exe)
 NPDir=0 NMtPBC=     1 NCelOv=     1 NCel=       1 NClECP=     1 NCelD=      1
         NCelK=      1 NCelE2=     1 NClLst=     1 CellRange=     0.0.
 One-electron integrals computed using PRISM.
 NBasis=   114 RedAO= T EigKep=  9.98D-05  NBF=   114
 NBsUse=   114 1.00D-06 EigRej= -1.00D+00 NBFU=   114
 Precomputing XC quadrature grid using
 IXCGrd= 4 IRadAn=           0 IRanWt=          -1 IRanGd=           0 AccXCQ= 0.00D+00.
 Generated NRdTot=       0 NPtTot=           0 NUsed=           0 NTot=          32
 NSgBfM=   114   114   114   114   114 MxSgAt=    13 MxSgA2=    13.
 Leave Link  302 at Wed May 26 09:20:49 2021, MaxMem=  2147483648 cpu:         0.9
 (Enter /opt/cluster/programs/g09_d.01/g09/l303.exe)
 DipDrv:  MaxL=1.
 Leave Link  303 at Wed May 26 09:20:50 2021, MaxMem=  2147483648 cpu:         0.2
 (Enter /opt/cluster/programs/g09_d.01/g09/l401.exe)
 ExpMin= 4.38D-02 ExpMax= 7.00D+03 ExpMxC= 1.05D+03 IAcc=2 IRadAn=         4 AccDes= 0.00D+00
 Harris functional with IExCor= 4639 and IRadAn=       4 diagonalized for initial guess.
 HarFok:  IExCor= 4639 AccDes= 0.00D+00 IRadAn=         4 IDoV= 1 UseB2=F ITyADJ=14
 ICtDFT=  3500011 ScaDFX=  1.000000  1.000000  1.000000  1.000000
 FoFCou: FMM=F IPFlag=           0 FMFlag=      100000 FMFlg1=           0
         NFxFlg=           0 DoJE=T BraDBF=F KetDBF=T FulRan=T
         wScrn=  0.000000 ICntrl=     500 IOpCl=  0 I1Cent=   200000004 NGrid=           0
         NMat0=    1 NMatS0=      1 NMatT0=    0 NMatD0=    1 NMtDS0=    0 NMtDT0=    0
 Petite list used in FoFCou.
 Harris En= -511.188350689703    
 JPrj=0 DoOrth=F DoCkMO=F.
 Leave Link  401 at Wed May 26 09:20:50 2021, MaxMem=  2147483648 cpu:         2.0
 (Enter /opt/cluster/programs/g09_d.01/g09/l502.exe)
 Closed shell SCF:
 Using DIIS extrapolation, IDIIS=  1040.
 Integral symmetry usage will be decided dynamically.
 Keep R1 ints in memory in canonical form, NReq=43969700.
 IVT=       59316 IEndB=       59316 NGot=  2147483648 MDV=  2104449753
 LenX=  2104449753 LenY=  2104436316
 Requested convergence on RMS density matrix=1.00D-08 within 128 cycles.
 Requested convergence on MAX density matrix=1.00D-06.
 Requested convergence on             energy=1.00D-06.
 No special actions if energy rises.
 FoFCou: FMM=F IPFlag=           0 FMFlag=           0 FMFlg1=           0
         NFxFlg=           0 DoJE=F BraDBF=F KetDBF=F FulRan=T
         wScrn=  0.000000 ICntrl=     600 IOpCl=  0 I1Cent=           0 NGrid=           0
         NMat0=    1 NMatS0=   6555 NMatT0=    0 NMatD0=    1 NMtDS0=    0 NMtDT0=    0
 Symmetry not used in FoFCou.

 Cycle   1  Pass 1  IDiag  1:
 E= -529.583536386870    
 DIIS: error= 6.53D-02 at cycle   1 NSaved=   1.
 NSaved= 1 IEnMin= 1 EnMin= -529.583536386870     IErMin= 1 ErrMin= 6.53D-02
 ErrMax= 6.53D-02  0.00D+00 EMaxC= 1.00D-01 BMatC= 5.26D-01 BMatP= 5.26D-01
 IDIUse=3 WtCom= 3.47D-01 WtEn= 6.53D-01
 Coeff-Com:  0.100D+01
 Coeff-En:   0.100D+01
 Coeff:      0.100D+01
 Gap=     0.423 Goal=   None    Shift=    0.000
 GapD=    0.423 DampG=2.000 DampE=0.500 DampFc=1.0000 IDamp=-1.
 RMSDP=1.77D-02 MaxDP=7.09D-01              OVMax= 1.32D-01

 Cycle   2  Pass 1  IDiag  1:
 E= -529.731987287580     Delta-E=       -0.148450900710 Rises=F Damp=F
 DIIS: error= 5.37D-02 at cycle   2 NSaved=   2.
 NSaved= 2 IEnMin= 2 EnMin= -529.731987287580     IErMin= 2 ErrMin= 5.37D-02
 ErrMax= 5.37D-02  0.00D+00 EMaxC= 1.00D-01 BMatC= 3.13D-01 BMatP= 5.26D-01
 IDIUse=3 WtCom= 4.63D-01 WtEn= 5.37D-01
 Coeff-Com:  0.430D+00 0.570D+00
 Coeff-En:   0.324D+00 0.676D+00
 Coeff:      0.373D+00 0.627D+00
 Gap=     0.519 Goal=   None    Shift=    0.000
 RMSDP=4.23D-03 MaxDP=7.36D-02 DE=-1.48D-01 OVMax= 7.12D-02

 Cycle   3  Pass 1  IDiag  1:
 E= -529.907672248910     Delta-E=       -0.175684961330 Rises=F Damp=F
 DIIS: error= 1.13D-02 at cycle   3 NSaved=   3.
 NSaved= 3 IEnMin= 3 EnMin= -529.907672248910     IErMin= 3 ErrMin= 1.13D-02
 ErrMax= 1.13D-02  0.00D+00 EMaxC= 1.00D-01 BMatC= 2.35D-02 BMatP= 3.13D-01
 IDIUse=3 WtCom= 8.87D-01 WtEn= 1.13D-01
 Coeff-Com:  0.989D-01 0.259D+00 0.642D+00
 Coeff-En:   0.000D+00 0.000D+00 0.100D+01
 Coeff:      0.877D-01 0.230D+00 0.682D+00
 Gap=     0.387 Goal=   None    Shift=    0.000
 RMSDP=3.45D-03 MaxDP=1.03D-01 DE=-1.76D-01 OVMax= 3.24D-02

 Cycle   4  Pass 1  IDiag  1:
 E= -529.921403734952     Delta-E=       -0.013731486042 Rises=F Damp=F
 DIIS: error= 3.75D-03 at cycle   4 NSaved=   4.
 NSaved= 4 IEnMin= 4 EnMin= -529.921403734952     IErMin= 4 ErrMin= 3.75D-03
 ErrMax= 3.75D-03  0.00D+00 EMaxC= 1.00D-01 BMatC= 3.69D-03 BMatP= 2.35D-02
 IDIUse=3 WtCom= 9.62D-01 WtEn= 3.75D-02
 Coeff-Com: -0.304D-02 0.298D-01 0.331D+00 0.642D+00
 Coeff-En:   0.000D+00 0.000D+00 0.102D+00 0.898D+00
 Coeff:     -0.292D-02 0.286D-01 0.323D+00 0.652D+00
 Gap=     0.376 Goal=   None    Shift=    0.000
 RMSDP=7.59D-04 MaxDP=1.23D-02 DE=-1.37D-02 OVMax= 1.88D-02

 Cycle   5  Pass 1  IDiag  1:
 E= -529.923996130212     Delta-E=       -0.002592395260 Rises=F Damp=F
 DIIS: error= 1.15D-03 at cycle   5 NSaved=   5.
 NSaved= 5 IEnMin= 5 EnMin= -529.923996130212     IErMin= 5 ErrMin= 1.15D-03
 ErrMax= 1.15D-03  0.00D+00 EMaxC= 1.00D-01 BMatC= 3.09D-04 BMatP= 3.69D-03
 IDIUse=3 WtCom= 9.89D-01 WtEn= 1.15D-02
 Coeff-Com: -0.868D-02-0.252D-02 0.146D+00 0.371D+00 0.494D+00
 Coeff-En:   0.000D+00 0.000D+00 0.000D+00 0.000D+00 0.100D+01
 Coeff:     -0.858D-02-0.249D-02 0.144D+00 0.367D+00 0.499D+00
 Gap=     0.379 Goal=   None    Shift=    0.000
 RMSDP=5.53D-04 MaxDP=1.93D-02 DE=-2.59D-03 OVMax= 4.81D-03

 Cycle   6  Pass 1  IDiag  1:
 E= -529.924219924675     Delta-E=       -0.000223794464 Rises=F Damp=F
 DIIS: error= 2.36D-04 at cycle   6 NSaved=   6.
 NSaved= 6 IEnMin= 6 EnMin= -529.924219924675     IErMin= 6 ErrMin= 2.36D-04
 ErrMax= 2.36D-04  0.00D+00 EMaxC= 1.00D-01 BMatC= 7.26D-06 BMatP= 3.09D-04
 IDIUse=3 WtCom= 9.98D-01 WtEn= 2.36D-03
 Coeff-Com: -0.122D-02-0.466D-02-0.700D-02 0.291D-02 0.120D+00 0.890D+00
 Coeff-En:   0.000D+00 0.000D+00 0.000D+00 0.000D+00 0.000D+00 0.100D+01
 Coeff:     -0.122D-02-0.465D-02-0.698D-02 0.290D-02 0.119D+00 0.891D+00
 Gap=     0.379 Goal=   None    Shift=    0.000
 RMSDP=1.48D-04 MaxDP=4.87D-03 DE=-2.24D-04 OVMax= 1.48D-03

 Cycle   7  Pass 1  IDiag  1:
 E= -529.924228842562     Delta-E=       -0.000008917887 Rises=F Damp=F
 DIIS: error= 5.18D-05 at cycle   7 NSaved=   7.
 NSaved= 7 IEnMin= 7 EnMin= -529.924228842562     IErMin= 7 ErrMin= 5.18D-05
 ErrMax= 5.18D-05  0.00D+00 EMaxC= 1.00D-01 BMatC= 6.90D-07 BMatP= 7.26D-06
 IDIUse=1 WtCom= 1.00D+00 WtEn= 0.00D+00
 Coeff-Com:  0.356D-03-0.162D-02-0.163D-01-0.319D-01-0.115D-01 0.298D+00
 Coeff-Com:  0.763D+00
 Coeff:      0.356D-03-0.162D-02-0.163D-01-0.319D-01-0.115D-01 0.298D+00
 Coeff:      0.763D+00
 Gap=     0.379 Goal=   None    Shift=    0.000
 RMSDP=5.16D-05 MaxDP=1.63D-03 DE=-8.92D-06 OVMax= 3.73D-04

 Cycle   8  Pass 1  IDiag  1:
 E= -529.924229785448     Delta-E=       -0.000000942886 Rises=F Damp=F
 DIIS: error= 1.79D-05 at cycle   8 NSaved=   8.
 NSaved= 8 IEnMin= 8 EnMin= -529.924229785448     IErMin= 8 ErrMin= 1.79D-05
 ErrMax= 1.79D-05  0.00D+00 EMaxC= 1.00D-01 BMatC= 3.03D-08 BMatP= 6.90D-07
 IDIUse=1 WtCom= 1.00D+00 WtEn= 0.00D+00
 Coeff-Com:  0.109D-03 0.138D-03-0.115D-02-0.258D-02-0.131D-01-0.291D-01
 Coeff-Com:  0.701D-01 0.976D+00
 Coeff:      0.109D-03 0.138D-03-0.115D-02-0.258D-02-0.131D-01-0.291D-01
 Coeff:      0.701D-01 0.976D+00
 Gap=     0.379 Goal=   None    Shift=    0.000
 RMSDP=1.38D-05 MaxDP=4.12D-04 DE=-9.43D-07 OVMax= 1.82D-04

 Cycle   9  Pass 1  IDiag  1:
 E= -529.924229852211     Delta-E=       -0.000000066763 Rises=F Damp=F
 DIIS: error= 7.26D-06 at cycle   9 NSaved=   9.
 NSaved= 9 IEnMin= 9 EnMin= -529.924229852211     IErMin= 9 ErrMin= 7.26D-06
 ErrMax= 7.26D-06  0.00D+00 EMaxC= 1.00D-01 BMatC= 5.53D-09 BMatP= 3.03D-08
 IDIUse=1 WtCom= 1.00D+00 WtEn= 0.00D+00
 Coeff-Com:  0.130D-04 0.183D-03 0.875D-03 0.172D-02-0.424D-02-0.334D-01
 Coeff-Com: -0.301D-01 0.353D+00 0.712D+00
 Coeff:      0.130D-04 0.183D-03 0.875D-03 0.172D-02-0.424D-02-0.334D-01
 Coeff:     -0.301D-01 0.353D+00 0.712D+00
 Gap=     0.379 Goal=   None    Shift=    0.000
 RMSDP=2.37D-06 MaxDP=4.34D-05 DE=-6.68D-08 OVMax= 6.90D-05

 Cycle  10  Pass 1  IDiag  1:
 E= -529.924229862374     Delta-E=       -0.000000010163 Rises=F Damp=F
 DIIS: error= 5.08D-06 at cycle  10 NSaved=  10.
 NSaved=10 IEnMin=10 EnMin= -529.924229862374     IErMin=10 ErrMin= 5.08D-06
 ErrMax= 5.08D-06  0.00D+00 EMaxC= 1.00D-01 BMatC= 1.34D-09 BMatP= 5.53D-09
 IDIUse=1 WtCom= 1.00D+00 WtEn= 0.00D+00
 Coeff-Com: -0.229D-04 0.356D-04 0.648D-03 0.142D-02 0.186D-02-0.444D-02
 Coeff-Com: -0.294D-01-0.135D+00 0.289D+00 0.876D+00
 Coeff:     -0.229D-04 0.356D-04 0.648D-03 0.142D-02 0.186D-02-0.444D-02
 Coeff:     -0.294D-01-0.135D+00 0.289D+00 0.876D+00
 Gap=     0.379 Goal=   None    Shift=    0.000
 RMSDP=1.58D-06 MaxDP=2.37D-05 DE=-1.02D-08 OVMax= 6.18D-05

 Cycle  11  Pass 1  IDiag  1:
 E= -529.924229866629     Delta-E=       -0.000000004255 Rises=F Damp=F
 DIIS: error= 2.17D-06 at cycle  11 NSaved=  11.
 NSaved=11 IEnMin=11 EnMin= -529.924229866629     IErMin=11 ErrMin= 2.17D-06
 ErrMax= 2.17D-06  0.00D+00 EMaxC= 1.00D-01 BMatC= 1.09D-10 BMatP= 1.34D-09
 IDIUse=1 WtCom= 1.00D+00 WtEn= 0.00D+00
 Coeff-Com:  0.202D-05-0.293D-04-0.211D-03-0.435D-03 0.344D-03 0.539D-02
 Coeff-Com:  0.695D-02-0.335D-01-0.134D+00-0.114D+00 0.127D+01
 Coeff:      0.202D-05-0.293D-04-0.211D-03-0.435D-03 0.344D-03 0.539D-02
 Coeff:      0.695D-02-0.335D-01-0.134D+00-0.114D+00 0.127D+01
 Gap=     0.379 Goal=   None    Shift=    0.000
 RMSDP=8.28D-07 MaxDP=1.52D-05 DE=-4.26D-09 OVMax= 3.85D-05

 Cycle  12  Pass 1  IDiag  1:
 E= -529.924229867554     Delta-E=       -0.000000000925 Rises=F Damp=F
 DIIS: error= 6.35D-07 at cycle  12 NSaved=  12.
 NSaved=12 IEnMin=12 EnMin= -529.924229867554     IErMin=12 ErrMin= 6.35D-07
 ErrMax= 6.35D-07  0.00D+00 EMaxC= 1.00D-01 BMatC= 2.29D-11 BMatP= 1.09D-10
 IDIUse=1 WtCom= 1.00D+00 WtEn= 0.00D+00
 Coeff-Com:  0.322D-05-0.141D-04-0.148D-03-0.323D-03-0.158D-03 0.193D-02
 Coeff-Com:  0.606D-02 0.148D-01-0.829D-01-0.176D+00 0.352D+00 0.886D+00
 Coeff:      0.322D-05-0.141D-04-0.148D-03-0.323D-03-0.158D-03 0.193D-02
 Coeff:      0.606D-02 0.148D-01-0.829D-01-0.176D+00 0.352D+00 0.886D+00
 Gap=     0.379 Goal=   None    Shift=    0.000
 RMSDP=2.78D-07 MaxDP=5.05D-06 DE=-9.25D-10 OVMax= 1.24D-05

 Cycle  13  Pass 1  IDiag  1:
 E= -529.924229867658     Delta-E=       -0.000000000104 Rises=F Damp=F
 DIIS: error= 1.61D-07 at cycle  13 NSaved=  13.
 NSaved=13 IEnMin=13 EnMin= -529.924229867658     IErMin=13 ErrMin= 1.61D-07
 ErrMax= 1.61D-07  0.00D+00 EMaxC= 1.00D-01 BMatC= 2.00D-12 BMatP= 2.29D-11
 IDIUse=1 WtCom= 1.00D+00 WtEn= 0.00D+00
 Coeff-Com: -0.397D-06 0.352D-05 0.299D-04 0.550D-04-0.163D-04-0.796D-03
 Coeff-Com: -0.975D-03 0.481D-02 0.185D-01 0.177D-01-0.178D+00-0.391D-01
 Coeff-Com:  0.118D+01
 Coeff:     -0.397D-06 0.352D-05 0.299D-04 0.550D-04-0.163D-04-0.796D-03
 Coeff:     -0.975D-03 0.481D-02 0.185D-01 0.177D-01-0.178D+00-0.391D-01
 Coeff:      0.118D+01
 Gap=     0.379 Goal=   None    Shift=    0.000
 RMSDP=1.07D-07 MaxDP=1.83D-06 DE=-1.04D-10 OVMax= 4.09D-06

 Cycle  14  Pass 1  IDiag  1:
 E= -529.924229867666     Delta-E=       -0.000000000008 Rises=F Damp=F
 DIIS: error= 1.70D-08 at cycle  14 NSaved=  14.
 NSaved=14 IEnMin=14 EnMin= -529.924229867666     IErMin=14 ErrMin= 1.70D-08
 ErrMax= 1.70D-08  0.00D+00 EMaxC= 1.00D-01 BMatC= 7.59D-14 BMatP= 2.00D-12
 IDIUse=1 WtCom= 1.00D+00 WtEn= 0.00D+00
 Coeff-Com: -0.115D-06 0.832D-06 0.717D-05 0.136D-04 0.891D-05-0.140D-03
 Coeff-Com: -0.230D-03 0.284D-04 0.362D-02 0.645D-02-0.244D-01-0.322D-01
 Coeff-Com:  0.102D+00 0.944D+00
 Coeff:     -0.115D-06 0.832D-06 0.717D-05 0.136D-04 0.891D-05-0.140D-03
 Coeff:     -0.230D-03 0.284D-04 0.362D-02 0.645D-02-0.244D-01-0.322D-01
 Coeff:      0.102D+00 0.944D+00
 Gap=     0.379 Goal=   None    Shift=    0.000
 RMSDP=1.30D-08 MaxDP=3.21D-07 DE=-7.96D-12 OVMax= 2.95D-07

 Cycle  15  Pass 1  IDiag  1:
 E= -529.924229867667     Delta-E=       -0.000000000001 Rises=F Damp=F
 DIIS: error= 6.89D-09 at cycle  15 NSaved=  15.
 NSaved=15 IEnMin=15 EnMin= -529.924229867667     IErMin=15 ErrMin= 6.89D-09
 ErrMax= 6.89D-09  0.00D+00 EMaxC= 1.00D-01 BMatC= 1.64D-14 BMatP= 7.59D-14
 IDIUse=1 WtCom= 1.00D+00 WtEn= 0.00D+00
 Coeff-Com: -0.365D-08-0.634D-07-0.596D-06-0.985D-06 0.694D-05 0.354D-04
 Coeff-Com:  0.296D-04-0.569D-03-0.672D-03 0.703D-03 0.110D-01-0.101D-01
 Coeff-Com: -0.942D-01 0.377D+00 0.717D+00
 Coeff:     -0.365D-08-0.634D-07-0.596D-06-0.985D-06 0.694D-05 0.354D-04
 Coeff:      0.296D-04-0.569D-03-0.672D-03 0.703D-03 0.110D-01-0.101D-01
 Coeff:     -0.942D-01 0.377D+00 0.717D+00
 Gap=     0.379 Goal=   None    Shift=    0.000
 RMSDP=4.27D-09 MaxDP=1.23D-07 DE=-7.96D-13 OVMax= 5.45D-08

 SCF Done:  E(RwB97XD) =  -529.924229868     A.U. after   15 cycles
            NFock= 15  Conv=0.43D-08     -V/T= 2.0052
 KE= 5.271853349189D+02 PE=-2.058694539884D+03 EE= 5.974964771092D+02
 Leave Link  502 at Wed May 26 09:20:54 2021, MaxMem=  2147483648 cpu:        31.1
 (Enter /opt/cluster/programs/g09_d.01/g09/l601.exe)
 Copying SCF densities to generalized density rwf, IOpCl= 0 IROHF=0.

 **********************************************************************

            Population analysis using the SCF density.

 **********************************************************************

 Orbital symmetries:
       Occupied  (A) (A) (A) (A) (A) (A) (A) (A) (A) (A) (A) (A)
                 (A) (A) (A) (A) (A) (A) (A) (A) (A) (A) (A) (A)
                 (A) (A) (A) (A) (A) (A) (A) (A)
       Virtual   (A) (A) (A) (A) (A) (A) (A) (A) (A) (A) (A) (A)
                 (A) (A) (A) (A) (A) (A) (A) (A) (A) (A) (A) (A)
                 (A) (A) (A) (A) (A) (A) (A) (A) (A) (A) (A) (A)
                 (A) (A) (A) (A) (A) (A) (A) (A) (A) (A) (A) (A)
                 (A) (A) (A) (A) (A) (A) (A) (A) (A) (A) (A) (A)
                 (A) (A) (A) (A) (A) (A) (A) (A) (A) (A) (A) (A)
                 (A) (A) (A) (A) (A) (A) (A) (A) (A) (A)
 The electronic state is 1-A.
 Alpha  occ. eigenvalues --  -24.88410 -24.88344 -24.88222 -19.30368 -10.58987
 Alpha  occ. eigenvalues --  -10.43867 -10.36322 -10.32591  -1.43237  -1.34746
 Alpha  occ. eigenvalues --   -1.34639  -1.19584  -0.94959  -0.87787  -0.79378
 Alpha  occ. eigenvalues --   -0.70619  -0.69585  -0.68693  -0.63800  -0.59319
 Alpha  occ. eigenvalues --   -0.58575  -0.56555  -0.56471  -0.55682  -0.53665
 Alpha  occ. eigenvalues --   -0.53283  -0.51783  -0.51679  -0.50704  -0.49444
 Alpha  occ. eigenvalues --   -0.46399  -0.36841
 Alpha virt. eigenvalues --    0.01057   0.05283   0.07848   0.09332   0.09766
 Alpha virt. eigenvalues --    0.10245   0.11448   0.12290   0.12397   0.12870
 Alpha virt. eigenvalues --    0.14914   0.15621   0.16283   0.16914   0.17736
 Alpha virt. eigenvalues --    0.18127   0.18985   0.19998   0.22623   0.22844
 Alpha virt. eigenvalues --    0.25919   0.26676   0.27680   0.29883   0.31473
 Alpha virt. eigenvalues --    0.32668   0.33797   0.35064   0.36351   0.37940
 Alpha virt. eigenvalues --    0.38231   0.39266   0.39886   0.41252   0.42658
 Alpha virt. eigenvalues --    0.42937   0.44346   0.44572   0.44841   0.45657
 Alpha virt. eigenvalues --    0.46796   0.50403   0.52242   0.52725   0.58426
 Alpha virt. eigenvalues --    0.69468   0.72628   0.73797   0.75071   0.79746
 Alpha virt. eigenvalues --    0.83069   0.85511   0.87408   0.87954   0.90626
 Alpha virt. eigenvalues --    0.95125   1.03201   1.09847   1.15729   1.17684
 Alpha virt. eigenvalues --    1.20360   1.21655   1.28091   1.34383   1.38803
 Alpha virt. eigenvalues --    1.43296   1.46379   1.51131   1.56430   1.59480
 Alpha virt. eigenvalues --    1.66166   1.68659   1.69453   1.73600   1.79701
 Alpha virt. eigenvalues --    1.82187   1.84260   1.85226   2.02358   2.30901
 Alpha virt. eigenvalues --    2.36103   2.66158
          Condensed to atoms (all electrons):
               1          2          3          4          5          6
     1  C    7.596041  -0.265950   0.337039   0.349950   0.333259  -1.528201
     2  C   -0.265950   6.146128  -0.030949  -0.024714  -0.029303  -0.610819
     3  H    0.337039  -0.030949   0.479514  -0.019902  -0.025281   0.017668
     4  H    0.349950  -0.024714  -0.019902   0.440606  -0.018005   0.025410
     5  H    0.333259  -0.029303  -0.025281  -0.018005   0.464429   0.029553
     6  C   -1.528201  -0.610819   0.017668   0.025410   0.029553   8.402592
     7  O   -0.117984   0.410308   0.002609  -0.004370   0.003785  -0.212581
     8  C   -0.022314  -0.081230   0.005265  -0.001476  -0.007706   0.225642
     9  H   -0.000779  -0.001333  -0.000124  -0.000094   0.000144   0.336736
    10  H    0.048979  -0.015943  -0.001249   0.000085  -0.001075   0.276171
    11  F    0.029722   0.001103  -0.000022   0.000006  -0.000170  -0.192265
    12  F   -0.000974   0.004338   0.000057   0.000014  -0.000046  -0.124133
    13  F   -0.008046   0.046330  -0.000166  -0.000012   0.001317  -0.146113
               7          8          9         10         11         12
     1  C   -0.117984  -0.022314  -0.000779   0.048979   0.029722  -0.000974
     2  C    0.410308  -0.081230  -0.001333  -0.015943   0.001103   0.004338
     3  H    0.002609   0.005265  -0.000124  -0.001249  -0.000022   0.000057
     4  H   -0.004370  -0.001476  -0.000094   0.000085   0.000006   0.000014
     5  H    0.003785  -0.007706   0.000144  -0.001075  -0.000170  -0.000046
     6  C   -0.212581   0.225642   0.336736   0.276171  -0.192265  -0.124133
     7  O    8.288599  -0.000408  -0.004302   0.006518   0.017920  -0.001156
     8  C   -0.000408   5.061702  -0.021670  -0.023864   0.154991   0.144365
     9  H   -0.004302  -0.021670   0.419780  -0.022124  -0.004655  -0.002054
    10  H    0.006518  -0.023864  -0.022124   0.468235   0.008450  -0.003014
    11  F    0.017920   0.154991  -0.004655   0.008450   9.270723  -0.060308
    12  F   -0.001156   0.144365  -0.002054  -0.003014  -0.060308   9.306671
    13  F   -0.007049   0.104687   0.007236  -0.004544  -0.051025  -0.054589
              13
     1  C   -0.008046
     2  C    0.046330
     3  H   -0.000166
     4  H   -0.000012
     5  H    0.001317
     6  C   -0.146113
     7  O   -0.007049
     8  C    0.104687
     9  H    0.007236
    10  H   -0.004544
    11  F   -0.051025
    12  F   -0.054589
    13  F    9.303845
 Mulliken charges:
               1
     1  C   -0.750741
     2  C    0.452035
     3  H    0.235541
     4  H    0.252503
     5  H    0.249100
     6  C   -0.499661
     7  O   -0.381891
     8  C    0.462014
     9  H    0.293238
    10  H    0.263376
    11  F   -0.174469
    12  F   -0.209173
    13  F   -0.191869
 Sum of Mulliken charges =   0.00000
 Mulliken charges with hydrogens summed into heavy atoms:
               1
     1  C   -0.013598
     2  C    0.452035
     6  C    0.056952
     7  O   -0.381891
     8  C    0.462014
    11  F   -0.174469
    12  F   -0.209173
    13  F   -0.191869
 Electronic spatial extent (au):  <R**2>=            986.4991
 Charge=              0.0000 electrons
 Dipole moment (field-independent basis, Debye):
    X=             -2.3778    Y=             -3.5111    Z=             -2.0366  Tot=              4.7042
 Quadrupole moment (field-independent basis, Debye-Ang):
   XX=            -47.3913   YY=            -49.9452   ZZ=            -44.1249
   XY=              6.2024   XZ=              0.4932   YZ=              0.1413
 Traceless Quadrupole moment (field-independent basis, Debye-Ang):
   XX=             -0.2375   YY=             -2.7914   ZZ=              3.0289
   XY=              6.2024   XZ=              0.4932   YZ=              0.1413
 Octapole moment (field-independent basis, Debye-Ang**2):
  XXX=              6.0643  YYY=             -7.8196  ZZZ=             -0.7162  XYY=             10.2480
  XXY=             -7.4067  XXZ=              3.8138  XZZ=              4.3646  YZZ=              2.2745
  YYZ=              0.5711  XYZ=             -0.1690
 Hexadecapole moment (field-independent basis, Debye-Ang**3):
 XXXX=           -742.1962 YYYY=           -239.8495 ZZZZ=           -140.3193 XXXY=             17.9339
 XXXZ=              4.1353 YYYX=              4.8123 YYYZ=             -0.3126 ZZZX=             -0.5058
 ZZZY=             -1.8494 XXYY=           -179.2790 XXZZ=           -149.0244 YYZZ=            -61.0490
 XXYZ=             -1.7174 YYXZ=              1.3997 ZZXY=              1.4557
 N-N= 4.040884979878D+02 E-N=-2.058694539921D+03  KE= 5.271853349189D+02
 No NMR shielding tensors so no spin-rotation constants.
 Leave Link  601 at Wed May 26 09:20:54 2021, MaxMem=  2147483648 cpu:         0.6
 (Enter /opt/cluster/programs/g09_d.01/g09/l701.exe)
 Compute integral first derivatives.
 ... and contract with generalized density number  0.
 R6Disp: Adding Grimme-D2 dispersion energy 1st derivatives to the gradient.
 Leave Link  701 at Wed May 26 09:20:54 2021, MaxMem=  2147483648 cpu:         0.6
 (Enter /opt/cluster/programs/g09_d.01/g09/l702.exe)
 L702 exits ... SP integral derivatives will be done elsewhere.
 Leave Link  702 at Wed May 26 09:20:54 2021, MaxMem=  2147483648 cpu:         0.2
 (Enter /opt/cluster/programs/g09_d.01/g09/l703.exe)
 Compute integral first derivatives, UseDBF=F ICtDFT=           0.
 Integral derivatives from FoFJK, PRISM(SPDF).
 Calling FoFJK, ICntrl=      2127 FMM=F ISym2X=0 I1Cent= 0 IOpClX= 0 NMat=1 NMatS=1 NMatT=0.
 FoFJK:  IHMeth= 1 ICntrl=    2127 DoSepK=T KAlg= 0 I1Cent=   0 FoldK=F
 IRaf=         1 NMat=   1 IRICut=       1 DoRegI=T DoRafI=F ISym2E= 0.
 FoFCou: FMM=F IPFlag=           0 FMFlag=      100000 FMFlg1=         800
         NFxFlg=           0 DoJE=F BraDBF=F KetDBF=F FulRan=T
         wScrn=  0.000000 ICntrl=    2527 IOpCl=  0 I1Cent=           0 NGrid=           0
         NMat0=    1 NMatS0=      1 NMatT0=    0 NMatD0=    1 NMtDS0=    0 NMtDT0=    0
 Symmetry not used in FoFCou.
 Leave Link  703 at Wed May 26 09:20:55 2021, MaxMem=  2147483648 cpu:         8.4
 (Enter /opt/cluster/programs/g09_d.01/g09/l716.exe)
 Dipole        =-9.35488563D-01-1.38136792D+00-8.01261502D-01
 ***** Axes restored to original set *****
 -------------------------------------------------------------------
 Center     Atomic                   Forces (Hartrees/Bohr)
 Number     Number              X              Y              Z
 -------------------------------------------------------------------
      1        6          -0.000330089    0.000118210    0.000738540
      2        6           0.000496509    0.000121181   -0.000910186
      3        1          -0.000003553   -0.000000756   -0.000019424
      4        1           0.000001911    0.000020569   -0.000009416
      5        1          -0.000001446    0.000016799   -0.000019600
      6        6          -0.000264935   -0.000923744   -0.000206779
      7        8           0.000008992    0.000004826    0.000019598
      8        6           0.000099132    0.000686015    0.000382427
      9        1          -0.000005225   -0.000026895    0.000011238
     10        1          -0.000003133   -0.000012384   -0.000017079
     11        9           0.000001825    0.000005409    0.000026610
     12        9          -0.000003045   -0.000020878   -0.000000627
     13        9           0.000003056    0.000011647    0.000004698
 -------------------------------------------------------------------
 Cartesian Forces:  Max     0.000923744 RMS     0.000293332
 Leave Link  716 at Wed May 26 09:20:55 2021, MaxMem=  2147483648 cpu:         0.2
 (Enter /opt/cluster/programs/g09_d.01/g09/l103.exe)

 GradGradGradGradGradGradGradGradGradGradGradGradGradGradGradGradGradGrad
 Berny optimization.
 FormGI is forming the generalized inverse of G from B-inverse, IUseBI=4.
 Internal  Forces:  Max     0.000807320 RMS     0.000176229
 Search for a local minimum.
 Step number   1 out of a maximum of   64
 All quantities printed in internal units (Hartrees-Bohrs-Radians)
 RMS Force = .27185D-05 SwitMx=.10000D-02 MixMth= 2
 Mixed Optimization -- En-DIIS/RFO-DIIS
 Second derivative matrix not updated -- first step.
 ITU=  0
     Eigenvalues ---    0.00480   0.00704   0.00750   0.03046   0.05618
     Eigenvalues ---    0.07341   0.07461   0.08128   0.08730   0.09316
     Eigenvalues ---    0.11736   0.16000   0.16000   0.16000   0.22038
     Eigenvalues ---    0.24988   0.25000   0.25000   0.25000   0.25000
     Eigenvalues ---    0.29208   0.31893   0.32248   0.34029   0.34043
     Eigenvalues ---    0.34322   0.34602   0.34779   0.46290   0.46417
     Eigenvalues ---    0.49054   0.904191000.000001000.000001000.00000
     Eigenvalues --- 1000.000001000.000001000.000001000.000001000.00000
     Eigenvalues --- 1000.000001000.000001000.000001000.000001000.00000
     Eigenvalues --- 1000.000001000.000001000.000001000.000001000.00000
     Eigenvalues --- 1000.000001000.000001000.000001000.00000
 RFO step:  Lambda= 0.00000000D+00 EMin= 4.79948455D-03
 Linear search not attempted -- first point.
 Iteration  1 RMS(Cart)=  0.00018281 RMS(Int)=  0.00000003
 Iteration  2 RMS(Cart)=  0.00000003 RMS(Int)=  0.00000001
 Iteration  1 RMS(Cart)=  0.00000000 RMS(Int)=  0.00000000
 ITry= 1 IFail=0 DXMaxC= 5.37D-04 DCOld= 1.00D+10 DXMaxT= 3.00D-01 DXLimC= 3.00D+00 Rises=F
 Variable       Old X    -DE/DX   Delta X   Delta X   Delta X     New X
                                 (Linear)    (Quad)   (Total)
    R1        2.83693   0.00000   0.00000   0.00000   0.00000   2.83693
    R2        2.07257   0.00000   0.00000   0.00000   0.00000   2.07258
    R3        2.06035   0.00000   0.00000   0.00000   0.00000   2.06035
    R4        2.07282   0.00000   0.00000  -0.00001  -0.00001   2.07281
    R5        2.89571   0.00000   0.00000  -0.00001  -0.00001   2.89570
    R6        2.32740   0.00000   0.00000   0.00000   0.00000   2.32741
    R7        2.84339   0.00000   0.00000  -0.00001  -0.00001   2.84339
    R8        2.06791   0.00000   0.00000  -0.00001  -0.00001   2.06790
    R9        2.06326   0.00000   0.00000   0.00000   0.00000   2.06326
   R10        2.60832  -0.00001   0.00000  -0.00002  -0.00002   2.60830
   R11        2.63664   0.00000   0.00000   0.00000   0.00000   2.63664
   R12        2.63806   0.00000   0.00000   0.00001   0.00001   2.63807
    A1        1.92652   0.00000   0.00000   0.00000   0.00000   1.92652
    A2        1.92114   0.00000   0.00000   0.00001   0.00001   1.92115
    A3        1.91773   0.00000   0.00000   0.00001   0.00001   1.91774
    A4        1.91263   0.00000   0.00000  -0.00003  -0.00003   1.91260
    A5        1.87349   0.00000   0.00000   0.00001   0.00001   1.87350
    A6        1.91172   0.00000   0.00000   0.00001   0.00001   1.91172
    A7        2.03276   0.00000   0.00000  -0.00001  -0.00001   2.03275
    A8        2.14634   0.00001   0.00000  -0.00001  -0.00001   2.14633
    A9        2.10375   0.00000   0.00000   0.00001   0.00001   2.10376
   A10        1.98063  -0.00001   0.00000  -0.00001  -0.00001   1.98061
   A11        1.89863   0.00000   0.00000   0.00000   0.00000   1.89863
   A12        1.93622   0.00001   0.00000   0.00001   0.00001   1.93623
   A13        1.88033   0.00035   0.00000  -0.00005  -0.00005   1.88028
   A14        1.87236  -0.00034   0.00000   0.00005   0.00005   1.87241
   A15        1.89315   0.00000   0.00000   0.00001   0.00001   1.89315
   A16        1.99033   0.00001   0.00000   0.00003   0.00003   1.99036
   A17        1.93052   0.00000   0.00000   0.00000   0.00000   1.93052
   A18        1.94316   0.00000   0.00000   0.00001   0.00001   1.94317
   A19        1.86417  -0.00001   0.00000  -0.00004  -0.00004   1.86413
   A20        1.86995  -0.00001   0.00000  -0.00002  -0.00002   1.86993
   A21        1.85902   0.00000   0.00000   0.00002   0.00002   1.85904
    D1       -0.98705  -0.00017   0.00000   0.00039   0.00039  -0.98667
    D2        2.12699   0.00017   0.00000  -0.00005  -0.00005   2.12694
    D3       -3.10060  -0.00017   0.00000   0.00042   0.00042  -3.10018
    D4        0.01345   0.00017   0.00000  -0.00002  -0.00002   0.01342
    D5        1.07585  -0.00017   0.00000   0.00040   0.00040   1.07625
    D6       -2.09329   0.00017   0.00000  -0.00004  -0.00004  -2.09333
    D7       -2.09818   0.00081   0.00000   0.00000   0.00000  -2.09818
    D8        2.09228   0.00037   0.00000   0.00008   0.00008   2.09236
    D9        0.01123   0.00037   0.00000   0.00006   0.00006   0.01129
   D10        1.07025   0.00047   0.00000   0.00043   0.00043   1.07067
   D11       -1.02248   0.00004   0.00000   0.00051   0.00051  -1.02198
   D12       -3.10353   0.00003   0.00000   0.00049   0.00049  -3.10305
   D13       -1.14262  -0.00016   0.00000  -0.00001  -0.00001  -1.14264
   D14        3.03918  -0.00015   0.00000   0.00002   0.00002   3.03920
   D15        0.97578  -0.00016   0.00000  -0.00002  -0.00002   0.97576
   D16        0.96048   0.00007   0.00000  -0.00006  -0.00006   0.96042
   D17       -1.14090   0.00008   0.00000  -0.00003  -0.00003  -1.14093
   D18        3.07888   0.00007   0.00000  -0.00007  -0.00007   3.07882
   D19        2.99558   0.00008   0.00000  -0.00006  -0.00006   2.99553
   D20        0.89420   0.00008   0.00000  -0.00002  -0.00002   0.89418
   D21       -1.16920   0.00008   0.00000  -0.00006  -0.00006  -1.16926
         Item               Value     Threshold  Converged?
 Maximum Force            0.000009     0.000450     YES
 RMS     Force            0.000003     0.000300     YES
 Maximum Displacement     0.000537     0.001800     YES
 RMS     Displacement     0.000183     0.001200     YES
 Predicted change in Energy=-4.200412D-09
 Optimization completed.
    -- Stationary point found.
                           ----------------------------
                           !   Optimized Parameters   !
                           ! (Angstroms and Degrees)  !
 --------------------------                            --------------------------
 ! Name  Definition              Value          Derivative Info.                !
 --------------------------------------------------------------------------------
 ! R1    R(1,2)                  1.5012         -DE/DX =    0.0                 !
 ! R2    R(1,3)                  1.0968         -DE/DX =    0.0                 !
 ! R3    R(1,4)                  1.0903         -DE/DX =    0.0                 !
 ! R4    R(1,5)                  1.0969         -DE/DX =    0.0                 !
 ! R5    R(2,6)                  1.5323         -DE/DX =    0.0                 !
 ! R6    R(2,7)                  1.2316         -DE/DX =    0.0                 !
 ! R7    R(6,8)                  1.5047         -DE/DX =    0.0                 !
 ! R8    R(6,9)                  1.0943         -DE/DX =    0.0                 !
 ! R9    R(6,10)                 1.0918         -DE/DX =    0.0                 !
 ! R10   R(8,11)                 1.3803         -DE/DX =    0.0                 !
 ! R11   R(8,12)                 1.3952         -DE/DX =    0.0                 !
 ! R12   R(8,13)                 1.396          -DE/DX =    0.0                 !
 ! A1    A(2,1,3)              110.3815         -DE/DX =    0.0                 !
 ! A2    A(2,1,4)              110.0732         -DE/DX =    0.0                 !
 ! A3    A(2,1,5)              109.878          -DE/DX =    0.0                 !
 ! A4    A(3,1,4)              109.5856         -DE/DX =    0.0                 !
 ! A5    A(3,1,5)              107.3431         -DE/DX =    0.0                 !
 ! A6    A(4,1,5)              109.5333         -DE/DX =    0.0                 !
 ! A7    A(1,2,6)              116.4687         -DE/DX =    0.0                 !
 ! A8    A(1,2,7)              122.9763         -DE/DX =    0.0                 !
 ! A9    A(6,2,7)              120.5361         -DE/DX =    0.0                 !
 ! A10   A(2,6,8)              113.4815         -DE/DX =    0.0                 !
 ! A11   A(2,6,9)              108.7836         -DE/DX =    0.0                 !
 ! A12   A(2,6,10)             110.937          -DE/DX =    0.0                 !
 ! A13   A(8,6,9)              107.7351         -DE/DX =    0.0003              !
 ! A14   A(8,6,10)             107.2786         -DE/DX =   -0.0003              !
 ! A15   A(9,6,10)             108.4693         -DE/DX =    0.0                 !
 ! A16   A(6,8,11)             114.0378         -DE/DX =    0.0                 !
 ! A17   A(6,8,12)             110.6105         -DE/DX =    0.0                 !
 ! A18   A(6,8,13)             111.3349         -DE/DX =    0.0                 !
 ! A19   A(11,8,12)            106.8091         -DE/DX =    0.0                 !
 ! A20   A(11,8,13)            107.1401         -DE/DX =    0.0                 !
 ! A21   A(12,8,13)            106.5139         -DE/DX =    0.0                 !
 ! D1    D(3,1,2,6)            -56.5539         -DE/DX =   -0.0002              !
 ! D2    D(3,1,2,7)            121.8678         -DE/DX =    0.0002              !
 ! D3    D(4,1,2,6)           -177.6513         -DE/DX =   -0.0002              !
 ! D4    D(4,1,2,7)              0.7704         -DE/DX =    0.0002              !
 ! D5    D(5,1,2,6)             61.6414         -DE/DX =   -0.0002              !
 ! D6    D(5,1,2,7)           -119.9368         -DE/DX =    0.0002              !
 ! D7    D(1,2,6,8)           -120.2166         -DE/DX =    0.0008              !
 ! D8    D(1,2,6,9)            119.8788         -DE/DX =    0.0004              !
 ! D9    D(1,2,6,10)             0.6434         -DE/DX =    0.0004              !
 ! D10   D(7,2,6,8)             61.3205         -DE/DX =    0.0005              !
 ! D11   D(7,2,6,9)            -58.584          -DE/DX =    0.0                 !
 ! D12   D(7,2,6,10)          -177.8194         -DE/DX =    0.0                 !
 ! D13   D(2,6,8,11)           -65.4674         -DE/DX =   -0.0002              !
 ! D14   D(2,6,8,12)           174.1323         -DE/DX =   -0.0002              !
 ! D15   D(2,6,8,13)            55.9081         -DE/DX =   -0.0002              !
 ! D16   D(9,6,8,11)            55.0315         -DE/DX =    0.0001              !
 ! D17   D(9,6,8,12)           -65.3688         -DE/DX =    0.0001              !
 ! D18   D(9,6,8,13)           176.407          -DE/DX =    0.0001              !
 ! D19   D(10,6,8,11)          171.6343         -DE/DX =    0.0001              !
 ! D20   D(10,6,8,12)           51.234          -DE/DX =    0.0001              !
 ! D21   D(10,6,8,13)          -66.9902         -DE/DX =    0.0001              !
 --------------------------------------------------------------------------------
 Lowest energy point so far.  Saving SCF results.
 GradGradGradGradGradGradGradGradGradGradGradGradGradGradGradGradGradGrad

 Largest change from initial coordinates is atom    5       0.000 Angstoms.
 Leave Link  103 at Wed May 26 09:20:56 2021, MaxMem=  2147483648 cpu:         0.1
 (Enter /opt/cluster/programs/g09_d.01/g09/l202.exe)
                          Input orientation:                          
 ---------------------------------------------------------------------
 Center     Atomic      Atomic             Coordinates (Angstroms)
 Number     Number       Type             X           Y           Z
 ---------------------------------------------------------------------
      1          6           0        2.518473    0.855620    0.125120
      2          6           0        1.466643   -0.169217   -0.186456
      3          1           0        2.790448    1.411331   -0.780470
      4          1           0        3.404087    0.370007    0.535737
      5          1           0        2.129054    1.581392    0.849531
      6          6           0        0.174667    0.350661   -0.825680
      7          8           0        1.620722   -1.373044    0.023121
      8          6           0       -1.056042    0.063332   -0.009105
      9          1           0        0.046724   -0.128254   -1.801252
     10          1           0        0.220283    1.431379   -0.974215
     11          9           0       -1.351361   -1.279766    0.109204
     12          9           0       -2.175162    0.674127   -0.575867
     13          9           0       -0.937790    0.574098    1.284710
 ---------------------------------------------------------------------
                    Distance matrix (angstroms):
                    1          2          3          4          5
     1  C    0.000000
     2  C    1.501238   0.000000
     3  H    1.096758   2.145564   0.000000
     4  H    1.090293   2.136823   1.786983   0.000000
     5  H    1.096888   2.139320   1.767276   1.786513   0.000000
     6  C    2.579231   1.532345   2.823008   3.504709   2.853184
     7  O    2.404850   1.231610   3.125182   2.545858   3.109670
     8  C    3.663727   2.539581   4.148203   4.503738   3.631336
     9  H    3.284579   2.150678   3.307618   4.120882   3.779635
    10  H    2.611841   2.176209   2.577535   3.680092   2.644231
    11  F    4.419926   3.043334   5.018775   5.051531   4.565917
    12  F    4.749161   3.758406   5.024203   5.697032   4.623977
    13  F    3.656454   2.915158   4.343465   4.410727   3.257231
                    6          7          8          9         10
     6  C    0.000000
     7  O    2.404724   0.000000
     8  C    1.504659   3.037973   0.000000
     9  H    1.094290   2.712067   2.112957   0.000000
    10  H    1.091831   3.289483   2.105230   1.773857   0.000000
    11  F    2.420963   2.974792   1.380262   2.632577   3.315746
    12  F    2.385107   4.354128   1.395249   2.661233   2.543672
    13  F    2.396087   3.453832   1.396002   3.314472   2.679329
                   11         12         13
    11  F    0.000000
    12  F    2.228378   0.000000
    13  F    2.233756   2.236703   0.000000
 Stoichiometry    C4H5F3O
 Framework group  C1[X(C4H5F3O)]
 Deg. of freedom    33
 Full point group                 C1      NOp   1
 RotChk:  IX=0 Diff= 1.59D-15
 Largest Abelian subgroup         C1      NOp   1
 Largest concise Abelian subgroup C1      NOp   1
                         Standard orientation:                         
 ---------------------------------------------------------------------
 Center     Atomic      Atomic             Coordinates (Angstroms)
 Number     Number       Type             X           Y           Z
 ---------------------------------------------------------------------
      1          6           0       -2.518473   -0.855620    0.125120
      2          6           0       -1.466643    0.169217   -0.186456
      3          1           0       -2.790448   -1.411331   -0.780470
      4          1           0       -3.404087   -0.370007    0.535737
      5          1           0       -2.129054   -1.581392    0.849531
      6          6           0       -0.174667   -0.350661   -0.825680
      7          8           0       -1.620722    1.373044    0.023121
      8          6           0        1.056042   -0.063332   -0.009105
      9          1           0       -0.046724    0.128254   -1.801252
     10          1           0       -0.220283   -1.431379   -0.974215
     11          9           0        1.351361    1.279766    0.109204
     12          9           0        2.175162   -0.674127   -0.575867
     13          9           0        0.937790   -0.574098    1.284710
 ---------------------------------------------------------------------
 Rotational constants (GHZ):      3.4744224      1.3490259      1.2171748
 Leave Link  202 at Wed May 26 09:20:56 2021, MaxMem=  2147483648 cpu:         0.0
 (Enter /opt/cluster/programs/g09_d.01/g09/l9999.exe)
 1\1\GINC-NODE10\FOpt\RwB97XD\6-31+G\C4H5F3O1\BOITTIER\26-May-2021\0\\#
 p wB97XD/6-31+G Opt=ModRedun\\N.pdb\\0,1\C,2.518473,0.85562,0.12512\C,
 1.466643,-0.169217,-0.186456\H,2.790448,1.411331,-0.78047\H,3.404087,0
 .370007,0.535737\H,2.129054,1.581392,0.849531\C,0.174667,0.350661,-0.8
 2568\O,1.620722,-1.373044,0.023121\C,-1.056042,0.063332,-0.009105\H,0.
 046724,-0.128254,-1.801252\H,0.220283,1.431379,-0.974215\F,-1.351361,-
 1.279766,0.109204\F,-2.175162,0.674127,-0.575867\F,-0.93779,0.574098,1
 .28471\\Version=ES64L-G09RevD.01\State=1-A\HF=-529.9242299\RMSD=4.267e
 -09\RMSF=2.933e-04\Dipole=0.9354885,1.381368,-0.8012615\Quadrupole=-0.
 1765613,-2.0753213,2.2518826,4.6113659,-0.3666766,-0.105074\PG=C01 [X(
 C4H5F3O1)]\\@


 THE MEEK SHALL INHERIT THE EARTH.
 (THE REST OF US WILL ESCAPE TO THE STARS)
 Job cpu time:       0 days  0 hours  0 minutes 49.7 seconds.
 File lengths (MBytes):  RWF=      7 Int=      0 D2E=      0 Chk=      3 Scr=      1
 Normal termination of Gaussian 09 at Wed May 26 09:20:56 2021.
