N.pdb                                                                   
FOpt      RwB97XD                                                     6-31+G              
Number of atoms                            I               13
Info1-9                                    I   N=           9
          24          24           0           0           0         100
           2          18        -802
Charge                                     I                0
Multiplicity                               I                1
Number of electrons                        I               64
Number of alpha electrons                  I               32
Number of beta electrons                   I               32
Number of basis functions                  I              114
Number of independent functions            I              114
Number of point charges in /Mol/           I                0
Number of translation vectors              I                0
Atomic numbers                             I   N=          13
           6           6           1           1           1           6
           8           6           1           1           9           9
           9
Nuclear charges                            R   N=          13
  6.00000000E+00  6.00000000E+00  1.00000000E+00  1.00000000E+00  1.00000000E+00
  6.00000000E+00  8.00000000E+00  6.00000000E+00  1.00000000E+00  1.00000000E+00
  9.00000000E+00  9.00000000E+00  9.00000000E+00
Current cartesian coordinates              R   N=          39
 -4.75922428E+00 -1.61688699E+00  2.36442652E-01 -2.77155356E+00  3.19774194E-01
 -3.52350658E-01 -5.27318259E+00 -2.66702857E+00 -1.47487444E+00 -6.43279216E+00
 -6.99211343E-01  1.01239633E+00 -4.02332907E+00 -2.98839733E+00  1.60538105E+00
 -3.30072792E-01 -6.62652947E-01 -1.56030896E+00 -3.06272058E+00  2.59467755E+00
  4.36924760E-02  1.99563019E+00 -1.19679920E-01 -1.72058383E-02 -8.82955246E-02
  2.42365234E-01 -3.40387286E+00 -4.16274621E-01 -2.70491399E+00 -1.84099943E+00
  2.55370232E+00  2.41840745E+00  2.06365771E-01  4.11046045E+00 -1.27391528E+00
 -1.08823080E+00  1.77216626E+00 -1.08488777E+00  2.42775018E+00
Force Field                                I                0
Int Atom Types                             I   N=          13
           0           0           0           0           0           0
           0           0           0           0           0           0
           0
MM charges                                 R   N=          13
  0.00000000E+00  0.00000000E+00  0.00000000E+00  0.00000000E+00  0.00000000E+00
  0.00000000E+00  0.00000000E+00  0.00000000E+00  0.00000000E+00  0.00000000E+00
  0.00000000E+00  0.00000000E+00  0.00000000E+00
Integer atomic weights                     I   N=          13
          12          12           1           1           1          12
          16          12           1           1          19          19
          19
Real atomic weights                        R   N=          13
  1.20000000E+01  1.20000000E+01  1.00782504E+00  1.00782504E+00  1.00782504E+00
  1.20000000E+01  1.59949146E+01  1.20000000E+01  1.00782504E+00  1.00782504E+00
  1.89984032E+01  1.89984032E+01  1.89984032E+01
Atom fragment info                         I   N=          13
           0           0           0           0           0           0
           0           0           0           0           0           0
           0
Atom residue num                           I   N=          13
           0           0           0           0           0           0
           0           0           0           0           0           0
           0
Nuclear spins                              I   N=          13
           0           0           1           1           1           0
           0           0           1           1           1           1
           1
Nuclear ZEff                               R   N=          13
 -3.60000000E+00 -3.60000000E+00 -1.00000000E+00 -1.00000000E+00 -1.00000000E+00
 -3.60000000E+00 -5.60000000E+00 -3.60000000E+00 -1.00000000E+00 -1.00000000E+00
 -6.75000000E+00 -6.75000000E+00 -6.75000000E+00
Nuclear ZNuc                               R   N=          13
  6.00000000E+00  6.00000000E+00  1.00000000E+00  1.00000000E+00  1.00000000E+00
  6.00000000E+00  8.00000000E+00  6.00000000E+00  1.00000000E+00  1.00000000E+00
  9.00000000E+00  9.00000000E+00  9.00000000E+00
Nuclear QMom                               R   N=          13
  0.00000000E+00  0.00000000E+00  0.00000000E+00  0.00000000E+00  0.00000000E+00
  0.00000000E+00  0.00000000E+00  0.00000000E+00  0.00000000E+00  0.00000000E+00
  0.00000000E+00  0.00000000E+00  0.00000000E+00
Nuclear GFac                               R   N=          13
  0.00000000E+00  0.00000000E+00  2.79284600E+00  2.79284600E+00  2.79284600E+00
  0.00000000E+00  0.00000000E+00  0.00000000E+00  2.79284600E+00  2.79284600E+00
  2.62886700E+00  2.62886700E+00  2.62886700E+00
MicOpt                                     I   N=          13
          -1          -1          -1          -1          -1          -1
          -1          -1          -1          -1          -1          -1
          -1
Number of contracted shells                I               42
Number of primitive shells                 I              108
Pure/Cartesian d shells                    I                1
Pure/Cartesian f shells                    I                0
Highest angular momentum                   I                1
Largest degree of contraction              I                6
Shell types                                I   N=          42
           0          -1          -1          -1           0          -1
          -1          -1           0           0           0           0
           0           0           0          -1          -1          -1
           0          -1          -1          -1           0          -1
          -1          -1           0           0           0           0
           0          -1          -1          -1           0          -1
          -1          -1           0          -1          -1          -1
Number of primitives per shell             I   N=          42
           6           3           1           1           6           3
           1           1           3           1           3           1
           3           1           6           3           1           1
           6           3           1           1           6           3
           1           1           3           1           3           1
           6           3           1           1           6           3
           1           1           6           3           1           1
Shell to atom map                          I   N=          42
           1           1           1           1           2           2
           2           2           3           3           4           4
           5           5           6           6           6           6
           7           7           7           7           8           8
           8           8           9           9          10          10
          11          11          11          11          12          12
          12          12          13          13          13          13
Primitive exponents                        R   N=         108
  3.04752488E+03  4.57369518E+02  1.03948685E+02  2.92101553E+01  9.28666296E+00
  3.16392696E+00  7.86827235E+00  1.88128854E+00  5.44249258E-01  1.68714478E-01
  4.38000000E-02  3.04752488E+03  4.57369518E+02  1.03948685E+02  2.92101553E+01
  9.28666296E+00  3.16392696E+00  7.86827235E+00  1.88128854E+00  5.44249258E-01
  1.68714478E-01  4.38000000E-02  1.87311370E+01  2.82539436E+00  6.40121692E-01
  1.61277759E-01  1.87311370E+01  2.82539436E+00  6.40121692E-01  1.61277759E-01
  1.87311370E+01  2.82539436E+00  6.40121692E-01  1.61277759E-01  3.04752488E+03
  4.57369518E+02  1.03948685E+02  2.92101553E+01  9.28666296E+00  3.16392696E+00
  7.86827235E+00  1.88128854E+00  5.44249258E-01  1.68714478E-01  4.38000000E-02
  5.48467166E+03  8.25234946E+02  1.88046958E+02  5.29645000E+01  1.68975704E+01
  5.79963534E+00  1.55396162E+01  3.59993359E+00  1.01376175E+00  2.70005823E-01
  8.45000000E-02  3.04752488E+03  4.57369518E+02  1.03948685E+02  2.92101553E+01
  9.28666296E+00  3.16392696E+00  7.86827235E+00  1.88128854E+00  5.44249258E-01
  1.68714478E-01  4.38000000E-02  1.87311370E+01  2.82539436E+00  6.40121692E-01
  1.61277759E-01  1.87311370E+01  2.82539436E+00  6.40121692E-01  1.61277759E-01
  7.00171309E+03  1.05136609E+03  2.39285690E+02  6.73974453E+01  2.15199573E+01
  7.40310130E+00  2.08479528E+01  4.80830834E+00  1.34406986E+00  3.58151393E-01
  1.07600000E-01  7.00171309E+03  1.05136609E+03  2.39285690E+02  6.73974453E+01
  2.15199573E+01  7.40310130E+00  2.08479528E+01  4.80830834E+00  1.34406986E+00
  3.58151393E-01  1.07600000E-01  7.00171309E+03  1.05136609E+03  2.39285690E+02
  6.73974453E+01  2.15199573E+01  7.40310130E+00  2.08479528E+01  4.80830834E+00
  1.34406986E+00  3.58151393E-01  1.07600000E-01
Contraction coefficients                   R   N=         108
  1.83473713E-03  1.40373228E-02  6.88426223E-02  2.32184443E-01  4.67941348E-01
  3.62311985E-01 -1.19332420E-01 -1.60854152E-01  1.14345644E+00  1.00000000E+00
  1.00000000E+00  1.83473713E-03  1.40373228E-02  6.88426223E-02  2.32184443E-01
  4.67941348E-01  3.62311985E-01 -1.19332420E-01 -1.60854152E-01  1.14345644E+00
  1.00000000E+00  1.00000000E+00  3.34946043E-02  2.34726953E-01  8.13757326E-01
  1.00000000E+00  3.34946043E-02  2.34726953E-01  8.13757326E-01  1.00000000E+00
  3.34946043E-02  2.34726953E-01  8.13757326E-01  1.00000000E+00  1.83473713E-03
  1.40373228E-02  6.88426223E-02  2.32184443E-01  4.67941348E-01  3.62311985E-01
 -1.19332420E-01 -1.60854152E-01  1.14345644E+00  1.00000000E+00  1.00000000E+00
  1.83107443E-03  1.39501722E-02  6.84450781E-02  2.32714336E-01  4.70192898E-01
  3.58520853E-01 -1.10777550E-01 -1.48026263E-01  1.13076702E+00  1.00000000E+00
  1.00000000E+00  1.83473713E-03  1.40373228E-02  6.88426223E-02  2.32184443E-01
  4.67941348E-01  3.62311985E-01 -1.19332420E-01 -1.60854152E-01  1.14345644E+00
  1.00000000E+00  1.00000000E+00  3.34946043E-02  2.34726953E-01  8.13757326E-01
  1.00000000E+00  3.34946043E-02  2.34726953E-01  8.13757326E-01  1.00000000E+00
  1.81961690E-03  1.39160796E-02  6.84053245E-02  2.33185760E-01  4.71267439E-01
  3.56618546E-01 -1.08506975E-01 -1.46451658E-01  1.12868858E+00  1.00000000E+00
  1.00000000E+00  1.81961690E-03  1.39160796E-02  6.84053245E-02  2.33185760E-01
  4.71267439E-01  3.56618546E-01 -1.08506975E-01 -1.46451658E-01  1.12868858E+00
  1.00000000E+00  1.00000000E+00  1.81961690E-03  1.39160796E-02  6.84053245E-02
  2.33185760E-01  4.71267439E-01  3.56618546E-01 -1.08506975E-01 -1.46451658E-01
  1.12868858E+00  1.00000000E+00  1.00000000E+00
P(S=P) Contraction coefficients            R   N=         108
  0.00000000E+00  0.00000000E+00  0.00000000E+00  0.00000000E+00  0.00000000E+00
  0.00000000E+00  6.89990666E-02  3.16423961E-01  7.44308291E-01  1.00000000E+00
  1.00000000E+00  0.00000000E+00  0.00000000E+00  0.00000000E+00  0.00000000E+00
  0.00000000E+00  0.00000000E+00  6.89990666E-02  3.16423961E-01  7.44308291E-01
  1.00000000E+00  1.00000000E+00  0.00000000E+00  0.00000000E+00  0.00000000E+00
  0.00000000E+00  0.00000000E+00  0.00000000E+00  0.00000000E+00  0.00000000E+00
  0.00000000E+00  0.00000000E+00  0.00000000E+00  0.00000000E+00  0.00000000E+00
  0.00000000E+00  0.00000000E+00  0.00000000E+00  0.00000000E+00  0.00000000E+00
  6.89990666E-02  3.16423961E-01  7.44308291E-01  1.00000000E+00  1.00000000E+00
  0.00000000E+00  0.00000000E+00  0.00000000E+00  0.00000000E+00  0.00000000E+00
  0.00000000E+00  7.08742682E-02  3.39752839E-01  7.27158577E-01  1.00000000E+00
  1.00000000E+00  0.00000000E+00  0.00000000E+00  0.00000000E+00  0.00000000E+00
  0.00000000E+00  0.00000000E+00  6.89990666E-02  3.16423961E-01  7.44308291E-01
  1.00000000E+00  1.00000000E+00  0.00000000E+00  0.00000000E+00  0.00000000E+00
  0.00000000E+00  0.00000000E+00  0.00000000E+00  0.00000000E+00  0.00000000E+00
  0.00000000E+00  0.00000000E+00  0.00000000E+00  0.00000000E+00  0.00000000E+00
  0.00000000E+00  7.16287242E-02  3.45912103E-01  7.22469956E-01  1.00000000E+00
  1.00000000E+00  0.00000000E+00  0.00000000E+00  0.00000000E+00  0.00000000E+00
  0.00000000E+00  0.00000000E+00  7.16287242E-02  3.45912103E-01  7.22469956E-01
  1.00000000E+00  1.00000000E+00  0.00000000E+00  0.00000000E+00  0.00000000E+00
  0.00000000E+00  0.00000000E+00  0.00000000E+00  7.16287242E-02  3.45912103E-01
  7.22469956E-01  1.00000000E+00  1.00000000E+00
Coordinates of each shell                  R   N=         126
 -4.75922428E+00 -1.61688699E+00  2.36442652E-01 -4.75922428E+00 -1.61688699E+00
  2.36442652E-01 -4.75922428E+00 -1.61688699E+00  2.36442652E-01 -4.75922428E+00
 -1.61688699E+00  2.36442652E-01 -2.77155356E+00  3.19774194E-01 -3.52350658E-01
 -2.77155356E+00  3.19774194E-01 -3.52350658E-01 -2.77155356E+00  3.19774194E-01
 -3.52350658E-01 -2.77155356E+00  3.19774194E-01 -3.52350658E-01 -5.27318259E+00
 -2.66702857E+00 -1.47487444E+00 -5.27318259E+00 -2.66702857E+00 -1.47487444E+00
 -6.43279216E+00 -6.99211343E-01  1.01239633E+00 -6.43279216E+00 -6.99211343E-01
  1.01239633E+00 -4.02332907E+00 -2.98839733E+00  1.60538105E+00 -4.02332907E+00
 -2.98839733E+00  1.60538105E+00 -3.30072792E-01 -6.62652947E-01 -1.56030896E+00
 -3.30072792E-01 -6.62652947E-01 -1.56030896E+00 -3.30072792E-01 -6.62652947E-01
 -1.56030896E+00 -3.30072792E-01 -6.62652947E-01 -1.56030896E+00 -3.06272058E+00
  2.59467755E+00  4.36924760E-02 -3.06272058E+00  2.59467755E+00  4.36924760E-02
 -3.06272058E+00  2.59467755E+00  4.36924760E-02 -3.06272058E+00  2.59467755E+00
  4.36924760E-02  1.99563019E+00 -1.19679920E-01 -1.72058383E-02  1.99563019E+00
 -1.19679920E-01 -1.72058383E-02  1.99563019E+00 -1.19679920E-01 -1.72058383E-02
  1.99563019E+00 -1.19679920E-01 -1.72058383E-02 -8.82955246E-02  2.42365234E-01
 -3.40387286E+00 -8.82955246E-02  2.42365234E-01 -3.40387286E+00 -4.16274621E-01
 -2.70491399E+00 -1.84099943E+00 -4.16274621E-01 -2.70491399E+00 -1.84099943E+00
  2.55370232E+00  2.41840745E+00  2.06365771E-01  2.55370232E+00  2.41840745E+00
  2.06365771E-01  2.55370232E+00  2.41840745E+00  2.06365771E-01  2.55370232E+00
  2.41840745E+00  2.06365771E-01  4.11046045E+00 -1.27391528E+00 -1.08823080E+00
  4.11046045E+00 -1.27391528E+00 -1.08823080E+00  4.11046045E+00 -1.27391528E+00
 -1.08823080E+00  4.11046045E+00 -1.27391528E+00 -1.08823080E+00  1.77216626E+00
 -1.08488777E+00  2.42775018E+00  1.77216626E+00 -1.08488777E+00  2.42775018E+00
  1.77216626E+00 -1.08488777E+00  2.42775018E+00  1.77216626E+00 -1.08488777E+00
  2.42775018E+00
Constraint Structure                       R   N=          39
 -4.75922428E+00 -1.61688699E+00  2.36442652E-01 -2.77155356E+00  3.19774194E-01
 -3.52350658E-01 -5.27318259E+00 -2.66702857E+00 -1.47487444E+00 -6.43279216E+00
 -6.99211343E-01  1.01239633E+00 -4.02332907E+00 -2.98839733E+00  1.60538105E+00
 -3.30072792E-01 -6.62652947E-01 -1.56030896E+00 -3.06272058E+00  2.59467755E+00
  4.36924760E-02  1.99563019E+00 -1.19679920E-01 -1.72058383E-02 -8.82955246E-02
  2.42365234E-01 -3.40387286E+00 -4.16274621E-01 -2.70491399E+00 -1.84099943E+00
  2.55370232E+00  2.41840745E+00  2.06365771E-01  4.11046045E+00 -1.27391528E+00
 -1.08823080E+00  1.77216626E+00 -1.08488777E+00  2.42775018E+00
Num ILSW                                   I              100
ILSW                                       I   N=         100
           0           1           0           0           2           0
           0           0           0           0        4639          -1
           0           0           0           0           2           0
           0           0           0           0           1           0
           1           0           0           0           0           0
           0           0      100000           0          -1           0
           0           0           0           0           0           0
           0           0           0           1           0           0
           0           0           1           0           0           0
           0           0         121          41           0           0
           0           0          58           0           0           0
           0           0           0          13           0           0
           0           0           0           0           0           0
           0           0           0           0           0           0
           0           0           0           0           0           0
           0           0           0           0           0           0
           0           0           0           0
Num RLSW                                   I               41
RLSW                                       R   N=          41
  1.00000000E+00  1.00000000E+00  1.00000000E+00  1.00000000E+00  1.00000000E+00
  0.00000000E+00  2.00000000E-01  2.22036000E-01  0.00000000E+00  7.77964000E-01
  0.00000000E+00  2.00000000E-01  0.00000000E+00  0.00000000E+00  1.00000000E+00
  0.00000000E+00  0.00000000E+00  1.00000000E+00  0.00000000E+00  0.00000000E+00
  0.00000000E+00  0.00000000E+00  1.00000000E+00  0.00000000E+00  0.00000000E+00
  0.00000000E+00  0.00000000E+00  1.00000000E+00  0.00000000E+00  0.00000000E+00
  0.00000000E+00  0.00000000E+00  1.00000000E+00  0.00000000E+00  0.00000000E+00
  0.00000000E+00  0.00000000E+00  0.00000000E+00  1.00000000E+00  1.00000000E+00
  0.00000000E+00
MxBond                                     I                4
NBond                                      I   N=          13
           4           3           1           1           1           4
           1           4           1           1           1           1
           1
IBond                                      I   N=          52
           2           3           4           5           1           6
           7           0           1           0           0           0
           1           0           0           0           1           0
           0           0           2           8           9          10
           2           0           0           0           6          11
          12          13           6           0           0           0
           6           0           0           0           8           0
           0           0           8           0           0           0
           8           0           0           0
RBond                                      R   N=          52
  1.00000000E+00  1.00000000E+00  1.00000000E+00  1.00000000E+00  1.00000000E+00
  1.00000000E+00  2.00000000E+00  0.00000000E+00  1.00000000E+00  0.00000000E+00
  0.00000000E+00  0.00000000E+00  1.00000000E+00  0.00000000E+00  0.00000000E+00
  0.00000000E+00  1.00000000E+00  0.00000000E+00  0.00000000E+00  0.00000000E+00
  1.00000000E+00  1.00000000E+00  1.00000000E+00  1.00000000E+00  2.00000000E+00
  0.00000000E+00  0.00000000E+00  0.00000000E+00  1.00000000E+00  1.00000000E+00
  1.00000000E+00  1.00000000E+00  1.00000000E+00  0.00000000E+00  0.00000000E+00
  0.00000000E+00  1.00000000E+00  0.00000000E+00  0.00000000E+00  0.00000000E+00
  1.00000000E+00  0.00000000E+00  0.00000000E+00  0.00000000E+00  1.00000000E+00
  0.00000000E+00  0.00000000E+00  0.00000000E+00  1.00000000E+00  0.00000000E+00
  0.00000000E+00  0.00000000E+00
Virial Ratio                               R      2.005195317030546E+00
SCF Energy                                 R     -5.299242298676669E+02
Total Energy                               R     -5.299242298676669E+02
RMS Force                                  R      2.933323434978439E-04
RMS Density                                R      4.266854154834027E-09
External E-field                           R   N=          35
  0.00000000E+00  0.00000000E+00  0.00000000E+00  0.00000000E+00  0.00000000E+00
  0.00000000E+00  0.00000000E+00  0.00000000E+00  0.00000000E+00  0.00000000E+00
  0.00000000E+00  0.00000000E+00  0.00000000E+00  0.00000000E+00  0.00000000E+00
  0.00000000E+00  0.00000000E+00  0.00000000E+00  0.00000000E+00  0.00000000E+00
  0.00000000E+00  0.00000000E+00  0.00000000E+00  0.00000000E+00  0.00000000E+00
  0.00000000E+00  0.00000000E+00  0.00000000E+00  0.00000000E+00  0.00000000E+00
  0.00000000E+00  0.00000000E+00  0.00000000E+00  0.00000000E+00  0.00000000E+00
IOpCl                                      I                0
IROHF                                      I                0
Alpha Orbital Energies                     R   N=         114
 -2.48840958E+01 -2.48834396E+01 -2.48822178E+01 -1.93036838E+01 -1.05898694E+01
 -1.04386651E+01 -1.03632227E+01 -1.03259057E+01 -1.43237394E+00 -1.34746123E+00
 -1.34638837E+00 -1.19583935E+00 -9.49588183E-01 -8.77873854E-01 -7.93784926E-01
 -7.06186829E-01 -6.95848295E-01 -6.86933649E-01 -6.37999847E-01 -5.93190529E-01
 -5.85749747E-01 -5.65547766E-01 -5.64707606E-01 -5.56819257E-01 -5.36649884E-01
 -5.32827241E-01 -5.17832076E-01 -5.16789481E-01 -5.07037419E-01 -4.94440079E-01
 -4.63988611E-01 -3.68414818E-01  1.05716643E-02  5.28304450E-02  7.84798102E-02
  9.33200493E-02  9.76633214E-02  1.02448353E-01  1.14478611E-01  1.22903966E-01
  1.23974723E-01  1.28696803E-01  1.49138863E-01  1.56210646E-01  1.62828279E-01
  1.69136395E-01  1.77360014E-01  1.81266447E-01  1.89851047E-01  1.99979282E-01
  2.26232863E-01  2.28436390E-01  2.59192438E-01  2.66761321E-01  2.76796532E-01
  2.98825362E-01  3.14728754E-01  3.26684443E-01  3.37966397E-01  3.50639790E-01
  3.63511903E-01  3.79404203E-01  3.82309151E-01  3.92661293E-01  3.98858395E-01
  4.12518216E-01  4.26582120E-01  4.29373412E-01  4.43461969E-01  4.45719591E-01
  4.48410694E-01  4.56571287E-01  4.67961105E-01  5.04029686E-01  5.22418097E-01
  5.27251634E-01  5.84257930E-01  6.94684308E-01  7.26283042E-01  7.37967509E-01
  7.50713783E-01  7.97463763E-01  8.30694646E-01  8.55107108E-01  8.74077087E-01
  8.79543659E-01  9.06256950E-01  9.51248417E-01  1.03200859E+00  1.09847456E+00
  1.15728504E+00  1.17683909E+00  1.20359788E+00  1.21654639E+00  1.28091034E+00
  1.34382733E+00  1.38803495E+00  1.43295791E+00  1.46378938E+00  1.51130640E+00
  1.56430037E+00  1.59479980E+00  1.66165516E+00  1.68659086E+00  1.69452919E+00
  1.73599622E+00  1.79701352E+00  1.82186907E+00  1.84260365E+00  1.85225850E+00
  2.02357697E+00  2.30901149E+00  2.36103461E+00  2.66158319E+00
Alpha MO coefficients                      R   N=       12996
 -1.56781688E-05 -1.77219748E-04 -8.59523322E-05 -2.68797022E-06  2.74290174E-05
 -1.35958360E-04  1.07197883E-04 -1.58649212E-04  2.66634892E-04  1.38469183E-02
  2.91862119E-03  2.02297558E-03 -6.47621184E-04  3.79308595E-05  4.11634125E-04
  2.64131825E-04 -4.69724563E-06  6.26689488E-05 -1.81913771E-03 -8.50413678E-04
 -2.26289023E-03 -5.18779795E-04 -1.11866776E-02  3.21578399E-03  3.99028601E-03
 -1.31418039E-03  1.75130592E-05 -7.33930290E-05  2.74684161E-05 -2.06251754E-04
  1.72280601E-05 -3.12076602E-04  5.53374389E-05  2.36549840E-04 -2.69542695E-04
 -1.12786193E-04 -7.98130938E-05 -1.76245018E-03 -2.21265883E-04  1.65784461E-03
 -1.47444576E-03  2.59995687E-03  2.23022705E-03 -6.25978941E-04 -5.28403579E-04
 -2.29622913E-05 -3.23648900E-04 -2.37933615E-05  4.25500428E-05  2.75070873E-05
  1.89551826E-03  4.10238048E-04 -8.14855881E-04 -1.80556221E-04  2.20041385E-03
  3.79270009E-04 -7.33875237E-04  1.78251366E-04 -1.91025218E-04 -9.24264031E-04
  1.11792264E-04 -2.63994153E-04  7.17913358E-04  6.85868024E-03  6.64974333E-06
 -4.09448056E-04  1.83094501E-03 -1.02220875E-02  2.83077002E-03  4.43734611E-04
  1.13164795E-03 -2.32733692E-04  2.55428964E-04  2.53615459E-04  1.43621460E-03
  4.82645826E-03  4.53952198E-04 -1.33907045E-05 -4.66529461E-05  1.27309245E-05
 -1.37379670E-03  2.04740354E-04  9.30689805E-04 -3.17612814E-04 -1.20861693E-03
  2.36509367E-04  1.14097337E-03 -8.70792497E-04  1.12220712E-02  6.08106133E-04
 -3.04944961E-05  3.44469280E-06  3.79962274E-05 -1.41759520E-03  6.13767761E-04
 -1.71958282E-04 -7.06747418E-04 -6.21213446E-04  2.06537521E-04  1.04519442E-04
 -1.02892532E-03  9.94968564E-01  2.79899801E-02  6.95530808E-05  5.22771698E-04
 -1.34310282E-03 -1.67920322E-02 -9.32465493E-05 -1.11404270E-03  2.69314510E-03
  1.06013889E-02 -6.49626137E-04  1.10411267E-03 -2.72095565E-03 -1.09416462E-05
 -9.19224523E-05  3.64673480E-05  7.54320231E-06  1.04468881E-05  1.06152900E-03
  5.74642083E-05  4.04926686E-04 -3.71290842E-04  3.51593387E-03  7.59116743E-04
  4.99391306E-04 -2.08544474E-04  1.90982914E-07 -1.77303588E-05 -1.47710177E-04
  3.06954346E-06 -2.50232863E-05 -6.86315297E-04  9.78902093E-04  8.77059971E-04
  4.54146335E-04 -9.09902436E-03 -8.60795243E-04  1.24926739E-03 -4.24263916E-07
 -1.14532041E-05 -3.25965983E-04 -2.93615177E-05 -2.28606411E-04 -1.64128417E-05
  1.73086632E-04  7.31332941E-05  3.05625374E-04 -9.35054534E-05 -3.76179725E-06
 -1.10467718E-04 -2.58916821E-03 -2.29365072E-03 -1.88552526E-04 -1.01398294E-04
  1.57802015E-02  1.24137595E-03  1.01264309E-03  2.21116272E-03  7.59953441E-06
  1.02762789E-04  1.27538809E-05 -8.56800230E-06  2.04843602E-05 -6.38727767E-04
 -2.36694734E-04  1.67133867E-04 -8.24601393E-05  7.02807026E-04  9.05172686E-05
 -3.38218187E-04  8.31416533E-05 -2.02660355E-04 -9.84040585E-04  5.93007965E-04
 -2.71118259E-04 -2.46578496E-04  8.53829241E-03  1.76363947E-03 -6.63665188E-04
 -7.52653195E-04 -1.26681797E-02  1.83508945E-03  1.31968270E-03  2.53014114E-03
  2.99371906E-04 -9.68574661E-05  2.09253868E-04 -3.91481038E-04  6.33043140E-03
  4.80129975E-04  1.98759270E-05 -4.37020628E-05 -2.14857284E-05 -1.41970826E-03
 -2.38052557E-04  9.93718157E-04  2.83369109E-04 -1.60472006E-03 -3.92423212E-04
  1.03199821E-03  3.17610435E-04  9.94955253E-01  2.78992509E-02 -1.17542396E-03
  6.31577518E-04  5.76054618E-04 -1.64375805E-02  2.38261588E-03 -1.34366130E-03
 -1.21985036E-03  8.72347647E-03 -1.78005035E-03  8.75190798E-04  8.35244852E-04
 -1.12066435E-02 -2.17134618E-05  2.49984660E-05 -1.75056114E-05 -1.48045252E-05
 -1.04257188E-03 -4.59415787E-04 -4.91816698E-05  8.43386897E-04 -1.60898958E-03
 -6.69855101E-04 -1.03481456E-04  1.10764767E-03  4.90337165E-06  5.51497864E-05
  1.16795078E-05  1.48732393E-06 -4.65877989E-05  1.66407421E-04  1.69388412E-04
 -7.43524713E-07  1.84258812E-04 -1.43631135E-03 -6.99038082E-04 -2.66719861E-04
 -5.26011403E-04  6.82597126E-07  1.22218580E-04  1.02339337E-04 -9.30866659E-06
  2.59906735E-05  1.50383906E-03  2.43783300E-04  1.21660123E-03 -2.21954099E-04
  1.47589852E-02  3.86472450E-03 -6.85502606E-04  3.17277708E-04  5.99041105E-05
 -8.64021662E-05 -3.63271094E-06  3.13249894E-05 -2.29410761E-05 -1.75752272E-04
  7.09902025E-05  3.50497060E-04 -1.72108334E-04  1.11640900E-05 -1.47253460E-04
 -2.21673601E-03 -6.02547970E-04 -1.85395009E-03 -1.02291167E-04  3.80165810E-03
  5.10594412E-03 -1.33461795E-05  4.47268315E-04  5.39612749E-06  8.80759554E-05
  6.36329169E-05 -4.48450634E-05 -1.28949036E-06 -3.98282772E-04 -2.39526266E-04
  5.29774703E-04  1.52701012E-04 -3.54021336E-03 -7.06180317E-04  5.96355733E-04
 -1.10570238E-04 -1.58532344E-04 -6.95734625E-04  2.28400272E-04  7.64395171E-04
  8.83282810E-05  6.52036167E-03  7.86758732E-04  1.21192226E-03  4.71776295E-04
 -1.86150243E-02  4.62195672E-03 -6.74790386E-04  2.14917720E-03  2.78344160E-04
  5.00002673E-04 -1.18828846E-04 -2.16211847E-04  9.95007411E-01  2.79424678E-02
 -3.13410453E-04 -1.44259922E-03 -1.30566967E-04 -1.65373326E-02  6.18045593E-04
  2.73433853E-03  2.07033313E-04  1.06254360E-02 -1.02632977E-03 -2.58112139E-03
 -2.52296063E-04 -6.33692563E-03  1.24641481E-04 -1.64952936E-05  2.71236948E-05
  1.24655228E-05 -1.18807048E-03  5.39175992E-04 -7.15293278E-04 -3.79769999E-04
 -1.17792393E-03  1.35083387E-04 -9.37260655E-04 -3.95994768E-04 -4.70791073E-03
  1.84826611E-04  1.29667258E-05  1.32521252E-05 -2.13583388E-05 -1.22360328E-03
 -2.13748651E-04 -5.88851564E-04  6.70399495E-04 -1.18080508E-03 -1.53046258E-04
 -1.23280219E-03  6.15327574E-04 -1.70428270E-05 -3.03726338E-04  1.17834571E-07
 -1.17369162E-04 -6.84487774E-06  3.04336492E-03  2.16957264E-03 -5.17237420E-04
 -1.04392051E-03  4.71485695E-03  1.01094517E-03  1.20560558E-03  3.96477032E-04
  2.33833023E-04  3.03284858E-04 -2.19463881E-04 -9.87910029E-05 -4.14947226E-06
  6.50665829E-03 -1.23164280E-05  1.08009418E-02  1.47136347E-03 -2.23014559E-02
 -3.61646028E-03 -5.98458086E-04  1.15289294E-04 -1.67990475E-04 -9.87776793E-05
  1.35923912E-04  3.26294570E-04 -1.19527704E-04 -4.98821747E-05 -4.09926667E-05
 -6.14751310E-04  2.39578303E-04 -5.48249116E-08 -1.37751571E-04  2.86769459E-03
 -1.69339684E-03 -3.21421320E-03  1.66314663E-03  5.71220052E-04 -4.32162307E-03
  5.34319576E-04 -1.16922877E-03  9.95252633E-01  2.99990622E-02  3.64061417E-04
 -2.21609721E-03 -4.01916010E-04 -2.45672802E-02 -1.28167305E-03  5.84359095E-03
  1.11728879E-03  9.14214618E-03  1.05479351E-03 -7.97578210E-04 -2.18617075E-04
  5.24576200E-05  4.62956809E-04 -2.10316505E-04 -1.02090248E-06  1.01748512E-04
 -6.74457123E-04  2.15497375E-03  1.04610434E-03 -2.34859458E-03  1.27295553E-02
 -3.26745556E-03  2.40238454E-04 -8.49563489E-04  2.76635447E-04  6.54319800E-04
 -4.84013437E-04 -1.10129322E-03  1.20178849E-06  7.76127882E-05 -2.05778923E-05
 -2.76912473E-05 -5.61758115E-05 -1.75492216E-04 -4.33119187E-05  1.70766456E-04
  3.63593858E-04 -1.13321499E-03 -6.54614255E-06 -1.09864466E-04 -7.04640644E-06
  3.39629462E-06  7.86169242E-05 -1.06334626E-05  6.21526448E-05 -2.15153063E-05
 -3.89663114E-04  1.25088605E-04 -4.07458181E-04  1.07127116E-04 -1.63279157E-03
  5.43209123E-04 -4.80351231E-04 -2.70633422E-04 -1.52280183E-05 -3.14687865E-04
 -1.00764051E-05 -2.40153567E-05  4.85299581E-05  1.44080497E-03 -7.36673423E-05
  2.84312770E-04 -5.82010374E-04  6.19852052E-04 -1.78669776E-04 -1.09250286E-04