 Entering Gaussian System, Link 0=/opt/cluster/programs/g09_d.01/g09//g09
 Input=/home/unibas/boittier/RDKit_G2/L.pdb/SCAN_1_2_3_4_S_17_20.0/17_SCAN_1_2_3_4_F/17_SCAN_L.pdb.com
 Output=/scratch/boittier/17_SCAN_L.pdb/17_SCAN_L.pdb.out
 Initial command:
 /opt/cluster/programs/g09_d.01/g09/l1.exe "/scratch/boittier/17_SCAN_L.pdb/Gau-168123.inp" -scrdir="/scratch/boittier/17_SCAN_L.pdb/"
 Entering Link 1 = /opt/cluster/programs/g09_d.01/g09/l1.exe PID=    168124.
  
 Copyright (c) 1988,1990,1992,1993,1995,1998,2003,2009,2013,
            Gaussian, Inc.  All Rights Reserved.
  
 This is part of the Gaussian(R) 09 program.  It is based on
 the Gaussian(R) 03 system (copyright 2003, Gaussian, Inc.),
 the Gaussian(R) 98 system (copyright 1998, Gaussian, Inc.),
 the Gaussian(R) 94 system (copyright 1995, Gaussian, Inc.),
 the Gaussian 92(TM) system (copyright 1992, Gaussian, Inc.),
 the Gaussian 90(TM) system (copyright 1990, Gaussian, Inc.),
 the Gaussian 88(TM) system (copyright 1988, Gaussian, Inc.),
 the Gaussian 86(TM) system (copyright 1986, Carnegie Mellon
 University), and the Gaussian 82(TM) system (copyright 1983,
 Carnegie Mellon University). Gaussian is a federally registered
 trademark of Gaussian, Inc.
  
 This software contains proprietary and confidential information,
 including trade secrets, belonging to Gaussian, Inc.
  
 This software is provided under written license and may be
 used, copied, transmitted, or stored only in accord with that
 written license.
  
 The following legend is applicable only to US Government
 contracts under FAR:
  
                    RESTRICTED RIGHTS LEGEND
  
 Use, reproduction and disclosure by the US Government is
 subject to restrictions as set forth in subparagraphs (a)
 and (c) of the Commercial Computer Software - Restricted
 Rights clause in FAR 52.227-19.
  
 Gaussian, Inc.
 340 Quinnipiac St., Bldg. 40, Wallingford CT 06492
  
  
 ---------------------------------------------------------------
 Warning -- This program may not be used in any manner that
 competes with the business of Gaussian, Inc. or will provide
 assistance to any competitor of Gaussian, Inc.  The licensee
 of this program is prohibited from giving any competitor of
 Gaussian, Inc. access to this program.  By using this program,
 the user acknowledges that Gaussian, Inc. is engaged in the
 business of creating and licensing software in the field of
 computational chemistry and represents and warrants to the
 licensee that it is not a competitor of Gaussian, Inc. and that
 it will not use this program in any manner prohibited above.
 ---------------------------------------------------------------
  

 Cite this work as:
 Gaussian 09, Revision D.01,
 M. J. Frisch, G. W. Trucks, H. B. Schlegel, G. E. Scuseria, 
 M. A. Robb, J. R. Cheeseman, G. Scalmani, V. Barone, B. Mennucci, 
 G. A. Petersson, H. Nakatsuji, M. Caricato, X. Li, H. P. Hratchian, 
 A. F. Izmaylov, J. Bloino, G. Zheng, J. L. Sonnenberg, M. Hada, 
 M. Ehara, K. Toyota, R. Fukuda, J. Hasegawa, M. Ishida, T. Nakajima, 
 Y. Honda, O. Kitao, H. Nakai, T. Vreven, J. A. Montgomery, Jr., 
 J. E. Peralta, F. Ogliaro, M. Bearpark, J. J. Heyd, E. Brothers, 
 K. N. Kudin, V. N. Staroverov, T. Keith, R. Kobayashi, J. Normand, 
 K. Raghavachari, A. Rendell, J. C. Burant, S. S. Iyengar, J. Tomasi, 
 M. Cossi, N. Rega, J. M. Millam, M. Klene, J. E. Knox, J. B. Cross, 
 V. Bakken, C. Adamo, J. Jaramillo, R. Gomperts, R. E. Stratmann, 
 O. Yazyev, A. J. Austin, R. Cammi, C. Pomelli, J. W. Ochterski, 
 R. L. Martin, K. Morokuma, V. G. Zakrzewski, G. A. Voth, 
 P. Salvador, J. J. Dannenberg, S. Dapprich, A. D. Daniels, 
 O. Farkas, J. B. Foresman, J. V. Ortiz, J. Cioslowski, 
 and D. J. Fox, Gaussian, Inc., Wallingford CT, 2013.
 
 ******************************************
 Gaussian 09:  ES64L-G09RevD.01 24-Apr-2013
                12-May-2021 
 ******************************************
 %chk=/home/unibas/boittier/RDKit_G2/L.pdb/SCAN_1_2_3_4_S_17_20.0/17_SCAN_1_2_3_4
 _F/L.pdb.chk
 %nproc=8
 Will use up to    8 processors via shared memory.
 %mem=16GB
 -----------------------------
 #p wB97XD/6-31+G Opt=ModRedun
 -----------------------------
 1/14=-1,18=120,19=15,26=3,38=1/1,3;
 2/9=110,12=2,17=6,18=5,40=1/2;
 3/5=1,6=6,7=10,11=2,16=1,25=1,30=1,71=1,74=-58/1,2,3;
 4//1;
 5/5=2,38=5/2;
 6/7=2,8=2,9=2,10=2,28=1/1;
 7//1,2,3,16;
 1/14=-1,18=20,19=15,26=3/3(2);
 2/9=110/2;
 99//99;
 2/9=110/2;
 3/5=1,6=6,7=10,11=2,16=1,25=1,30=1,71=1,74=-58/1,2,3;
 4/5=5,16=3,69=1/1;
 5/5=2,38=5/2;
 7//1,2,3,16;
 1/14=-1,18=20,19=15,26=3/3(-5);
 2/9=110/2;
 6/7=2,8=2,9=2,10=2,19=2,28=1/1;
 99/9=1/99;
 Leave Link    1 at Wed May 12 11:58:23 2021, MaxMem=  2147483648 cpu:         0.3
 (Enter /opt/cluster/programs/g09_d.01/g09/l101.exe)
 -----
 L.pdb
 -----
 Symbolic Z-matrix:
 Charge =  0 Multiplicity = 1
 C                     1.76721   0.13891  -0.07126 
 C                     0.56489  -0.44049   0.10015 
 C                    -0.67218   0.35305   0.09805 
 O                    -1.80129  -0.12625  -0.10675 
 H                    -0.54949   1.44267   0.23616 
 H                     2.68125  -0.4409   -0.14751 
 H                     1.87037   1.22004  -0.14288 
 H                     0.4487   -1.52062   0.14655 
 
 The following ModRedundant input section has been read:
 D       1       2       3       4 F                                           
 
 NAtoms=      8 NQM=        8 NQMF=       0 NMMI=      0 NMMIF=      0
                NMic=       0 NMicF=      0.
                    Isotopes and Nuclear Properties:
 (Nuclear quadrupole moments (NQMom) in fm**2, nuclear magnetic moments (NMagM)
  in nuclear magnetons)

  Atom         1           2           3           4           5           6           7           8
 IAtWgt=          12          12          12          16           1           1           1           1
 AtmWgt=  12.0000000  12.0000000  12.0000000  15.9949146   1.0078250   1.0078250   1.0078250   1.0078250
 NucSpn=           0           0           0           0           1           1           1           1
 AtZEff=   0.0000000   0.0000000   0.0000000   0.0000000   0.0000000   0.0000000   0.0000000   0.0000000
 NQMom=    0.0000000   0.0000000   0.0000000   0.0000000   0.0000000   0.0000000   0.0000000   0.0000000
 NMagM=    0.0000000   0.0000000   0.0000000   0.0000000   2.7928460   2.7928460   2.7928460   2.7928460
 AtZNuc=   6.0000000   6.0000000   6.0000000   8.0000000   1.0000000   1.0000000   1.0000000   1.0000000
 Leave Link  101 at Wed May 12 11:58:23 2021, MaxMem=  2147483648 cpu:         4.1
 (Enter /opt/cluster/programs/g09_d.01/g09/l103.exe)

 GradGradGradGradGradGradGradGradGradGradGradGradGradGradGradGradGradGrad
 Berny optimization.
 Initialization pass.
                           ----------------------------
                           !    Initial Parameters    !
                           ! (Angstroms and Degrees)  !
 --------------------------                            --------------------------
 ! Name  Definition              Value          Derivative Info.                !
 --------------------------------------------------------------------------------
 ! R1    R(1,2)                  1.3456         estimate D2E/DX2                !
 ! R2    R(1,6)                  1.0851         estimate D2E/DX2                !
 ! R3    R(1,7)                  1.0884         estimate D2E/DX2                !
 ! R4    R(2,3)                  1.4697         estimate D2E/DX2                !
 ! R5    R(2,8)                  1.0873         estimate D2E/DX2                !
 ! R6    R(3,4)                  1.2436         estimate D2E/DX2                !
 ! R7    R(3,5)                  1.1052         estimate D2E/DX2                !
 ! A1    A(2,1,6)              122.1082         estimate D2E/DX2                !
 ! A2    A(2,1,7)              121.3851         estimate D2E/DX2                !
 ! A3    A(6,1,7)              116.5065         estimate D2E/DX2                !
 ! A4    A(1,2,3)              121.2925         estimate D2E/DX2                !
 ! A5    A(1,2,8)              121.9142         estimate D2E/DX2                !
 ! A6    A(3,2,8)              116.5165         estimate D2E/DX2                !
 ! A7    A(2,3,4)              123.8047         estimate D2E/DX2                !
 ! A8    A(2,3,5)              116.0217         estimate D2E/DX2                !
 ! A9    A(4,3,5)              120.0896         estimate D2E/DX2                !
 ! D1    D(6,1,2,3)           -175.2511         estimate D2E/DX2                !
 ! D2    D(6,1,2,8)             -1.5052         estimate D2E/DX2                !
 ! D3    D(7,1,2,3)              4.6108         estimate D2E/DX2                !
 ! D4    D(7,1,2,8)            178.3567         estimate D2E/DX2                !
 ! D5    D(1,2,3,4)            160.0011         Frozen                          !
 ! D6    D(1,2,3,5)            -16.6578         estimate D2E/DX2                !
 ! D7    D(8,2,3,4)            -14.0673         estimate D2E/DX2                !
 ! D8    D(8,2,3,5)            169.2738         estimate D2E/DX2                !
 --------------------------------------------------------------------------------
 Trust Radius=3.00D-01 FncErr=1.00D-07 GrdErr=1.00D-06
 Number of steps in this run=     34 maximum allowed number of steps=    100.
 GradGradGradGradGradGradGradGradGradGradGradGradGradGradGradGradGradGrad

 Leave Link  103 at Wed May 12 11:58:24 2021, MaxMem=  2147483648 cpu:         0.1
 (Enter /opt/cluster/programs/g09_d.01/g09/l202.exe)
                          Input orientation:                          
 ---------------------------------------------------------------------
 Center     Atomic      Atomic             Coordinates (Angstroms)
 Number     Number       Type             X           Y           Z
 ---------------------------------------------------------------------
      1          6           0        1.767206    0.138911   -0.071259
      2          6           0        0.564894   -0.440494    0.100154
      3          6           0       -0.672180    0.353045    0.098052
      4          8           0       -1.801293   -0.126245   -0.106751
      5          1           0       -0.549492    1.442667    0.236163
      6          1           0        2.681248   -0.440901   -0.147507
      7          1           0        1.870368    1.220037   -0.142880
      8          1           0        0.448699   -1.520620    0.146546
 ---------------------------------------------------------------------
                    Distance matrix (angstroms):
                    1          2          3          4          5
     1  C    0.000000
     2  C    1.345603   0.000000
     3  C    2.454613   1.469714   0.000000
     4  O    3.578513   2.395914   1.243607   0.000000
     5  H    2.676075   2.192407   1.105171   2.036193   0.000000
     6  H    1.085112   2.130796   3.454870   4.493756   3.759350
     7  H    1.088396   2.126192   2.697086   3.910866   2.459463
     8  H    2.130714   1.087348   2.183882   2.659117   3.128176
                    6          7          8
     6  H    0.000000
     7  H    1.848314   0.000000
     8  H    2.497306   3.100985   0.000000
 Stoichiometry    C3H4O
 Framework group  C1[X(C3H4O)]
 Deg. of freedom    18
 Full point group                 C1      NOp   1
 Largest Abelian subgroup         C1      NOp   1
 Largest concise Abelian subgroup C1      NOp   1
                         Standard orientation:                         
 ---------------------------------------------------------------------
 Center     Atomic      Atomic             Coordinates (Angstroms)
 Number     Number       Type             X           Y           Z
 ---------------------------------------------------------------------
      1          6           0        1.767206    0.138911   -0.071259
      2          6           0        0.564894   -0.440494    0.100154
      3          6           0       -0.672180    0.353045    0.098052
      4          8           0       -1.801293   -0.126245   -0.106751
      5          1           0       -0.549492    1.442667    0.236163
      6          1           0        2.681248   -0.440901   -0.147507
      7          1           0        1.870368    1.220037   -0.142880
      8          1           0        0.448699   -1.520620    0.146546
 ---------------------------------------------------------------------
 Rotational constants (GHZ):     45.8624407      4.5878018      4.2119266
 Leave Link  202 at Wed May 12 11:58:24 2021, MaxMem=  2147483648 cpu:         0.0
 (Enter /opt/cluster/programs/g09_d.01/g09/l301.exe)
 Standard basis: 6-31+G (6D, 7F)
 Ernie: Thresh=  0.10000D-02 Tol=  0.10000D-05 Strict=F.
 There are    60 symmetry adapted cartesian basis functions of A   symmetry.
 There are    60 symmetry adapted basis functions of A   symmetry.
    60 basis functions,   120 primitive gaussians,    60 cartesian basis functions
    15 alpha electrons       15 beta electrons
       nuclear repulsion energy       102.1890767059 Hartrees.
 IExCor= 4639 DFT=T Ex+Corr=wB97XD ExCW=0 ScaHFX=  1.000000
 ScaDFX=  1.000000  1.000000  1.000000  1.000000 ScalE2=  1.000000  1.000000
 IRadAn=      0 IRanWt=     -1 IRanGd=            0 ICorTp=0 IEmpDi=121
  HFx wShort=  0.000000 wLong=  0.200000 cFull=  0.222036 cShort=  0.000000 cLong=  0.777964
  DFx wShort=  0.000000 wLong=  0.200000 cFull=  0.000000 cShort=  0.000000 cLong=  1.000000
 NAtoms=    8 NActive=    8 NUniq=    8 SFac= 1.00D+00 NAtFMM=   60 NAOKFM=F Big=F
 Integral buffers will be    131072 words long.
 Raffenetti 2 integral format.
 Two-electron integral symmetry is turned on.
 R6Disp:  Grimme-D2 Dispersion energy=       -0.0018101459 Hartrees.
 Nuclear repulsion after empirical dispersion term =      102.1872665601 Hartrees.
 Leave Link  301 at Wed May 12 11:58:24 2021, MaxMem=  2147483648 cpu:         0.3
 (Enter /opt/cluster/programs/g09_d.01/g09/l302.exe)
 NPDir=0 NMtPBC=     1 NCelOv=     1 NCel=       1 NClECP=     1 NCelD=      1
         NCelK=      1 NCelE2=     1 NClLst=     1 CellRange=     0.0.
 One-electron integrals computed using PRISM.
 NBasis=    60 RedAO= T EigKep=  1.24D-04  NBF=    60
 NBsUse=    60 1.00D-06 EigRej= -1.00D+00 NBFU=    60
 Precomputing XC quadrature grid using
 IXCGrd= 4 IRadAn=           0 IRanWt=          -1 IRanGd=           0 AccXCQ= 0.00D+00.
 Generated NRdTot=       0 NPtTot=           0 NUsed=           0 NTot=          32
 NSgBfM=    60    60    60    60    60 MxSgAt=     8 MxSgA2=     8.
 Leave Link  302 at Wed May 12 11:58:24 2021, MaxMem=  2147483648 cpu:         0.8
 (Enter /opt/cluster/programs/g09_d.01/g09/l303.exe)
 DipDrv:  MaxL=1.
 Leave Link  303 at Wed May 12 11:58:24 2021, MaxMem=  2147483648 cpu:         0.2
 (Enter /opt/cluster/programs/g09_d.01/g09/l401.exe)
 ExpMin= 4.38D-02 ExpMax= 5.48D+03 ExpMxC= 8.25D+02 IAcc=2 IRadAn=         4 AccDes= 0.00D+00
 Harris functional with IExCor= 4639 and IRadAn=       4 diagonalized for initial guess.
 HarFok:  IExCor= 4639 AccDes= 0.00D+00 IRadAn=         4 IDoV= 1 UseB2=F ITyADJ=14
 ICtDFT=  3500011 ScaDFX=  1.000000  1.000000  1.000000  1.000000
 FoFCou: FMM=F IPFlag=           0 FMFlag=      100000 FMFlg1=           0
         NFxFlg=           0 DoJE=T BraDBF=F KetDBF=T FulRan=T
         wScrn=  0.000000 ICntrl=     500 IOpCl=  0 I1Cent=   200000004 NGrid=           0
         NMat0=    1 NMatS0=      1 NMatT0=    0 NMatD0=    1 NMtDS0=    0 NMtDT0=    0
 Petite list used in FoFCou.
 Harris En= -183.749148832498    
 JPrj=0 DoOrth=F DoCkMO=F.
 Leave Link  401 at Wed May 12 11:58:24 2021, MaxMem=  2147483648 cpu:         1.0
 (Enter /opt/cluster/programs/g09_d.01/g09/l502.exe)
 Closed shell SCF:
 Using DIIS extrapolation, IDIIS=  1040.
 Integral symmetry usage will be decided dynamically.
 Keep R1 ints in memory in canonical form, NReq=4262490.
 IVT=       30290 IEndB=       30290 NGot=  2147483648 MDV=  2144102629
 LenX=  2144102629 LenY=  2144098588
 Requested convergence on RMS density matrix=1.00D-08 within 128 cycles.
 Requested convergence on MAX density matrix=1.00D-06.
 Requested convergence on             energy=1.00D-06.
 No special actions if energy rises.
 FoFCou: FMM=F IPFlag=           0 FMFlag=           0 FMFlg1=           0
         NFxFlg=           0 DoJE=F BraDBF=F KetDBF=F FulRan=T
         wScrn=  0.000000 ICntrl=     600 IOpCl=  0 I1Cent=           0 NGrid=           0
         NMat0=    1 NMatS0=   1830 NMatT0=    0 NMatD0=    1 NMtDS0=    0 NMtDT0=    0
 Symmetry not used in FoFCou.

 Cycle   1  Pass 1  IDiag  1:
 E= -191.756855830559    
 DIIS: error= 2.53D-02 at cycle   1 NSaved=   1.
 NSaved= 1 IEnMin= 1 EnMin= -191.756855830559     IErMin= 1 ErrMin= 2.53D-02
 ErrMax= 2.53D-02  0.00D+00 EMaxC= 1.00D-01 BMatC= 7.14D-02 BMatP= 7.14D-02
 IDIUse=3 WtCom= 7.47D-01 WtEn= 2.53D-01
 Coeff-Com:  0.100D+01
 Coeff-En:   0.100D+01
 Coeff:      0.100D+01
 Gap=     0.394 Goal=   None    Shift=    0.000
 GapD=    0.394 DampG=1.000 DampE=0.500 DampFc=0.5000 IDamp=-1.
 Damping current iteration by 5.00D-01
 RMSDP=3.26D-02 MaxDP=9.51D-01              OVMax= 8.83D-02

 Cycle   2  Pass 1  IDiag  1:
 E= -191.773801244746     Delta-E=       -0.016945414187 Rises=F Damp=T
 DIIS: error= 1.15D-02 at cycle   2 NSaved=   2.
 NSaved= 2 IEnMin= 2 EnMin= -191.773801244746     IErMin= 2 ErrMin= 1.15D-02
 ErrMax= 1.15D-02  0.00D+00 EMaxC= 1.00D-01 BMatC= 1.12D-02 BMatP= 7.14D-02
 IDIUse=3 WtCom= 8.85D-01 WtEn= 1.15D-01
 Coeff-Com: -0.187D+00 0.119D+01
 Coeff-En:   0.000D+00 0.100D+01
 Coeff:     -0.166D+00 0.117D+01
 Gap=     0.386 Goal=   None    Shift=    0.000
 RMSDP=1.27D-02 MaxDP=3.79D-01 DE=-1.69D-02 OVMax= 9.70D-02

 Cycle   3  Pass 1  IDiag  1:
 E= -191.787774026158     Delta-E=       -0.013972781412 Rises=F Damp=F
 DIIS: error= 1.43D-02 at cycle   3 NSaved=   3.
 NSaved= 3 IEnMin= 3 EnMin= -191.787774026158     IErMin= 2 ErrMin= 1.15D-02
 ErrMax= 1.43D-02  0.00D+00 EMaxC= 1.00D-01 BMatC= 8.29D-03 BMatP= 1.12D-02
 IDIUse=3 WtCom= 8.57D-01 WtEn= 1.43D-01
 Coeff-Com: -0.262D+00 0.643D+00 0.619D+00
 Coeff-En:   0.000D+00 0.000D+00 0.100D+01
 Coeff:     -0.225D+00 0.551D+00 0.673D+00
 Gap=     0.346 Goal=   None    Shift=    0.000
 RMSDP=5.12D-03 MaxDP=1.10D-01 DE=-1.40D-02 OVMax= 3.07D-02

 Cycle   4  Pass 1  IDiag  1:
 E= -191.793332972168     Delta-E=       -0.005558946010 Rises=F Damp=F
 DIIS: error= 4.56D-03 at cycle   4 NSaved=   4.
 NSaved= 4 IEnMin= 4 EnMin= -191.793332972168     IErMin= 4 ErrMin= 4.56D-03
 ErrMax= 4.56D-03  0.00D+00 EMaxC= 1.00D-01 BMatC= 1.27D-03 BMatP= 8.29D-03
 IDIUse=3 WtCom= 9.54D-01 WtEn= 4.56D-02
 Coeff-Com: -0.788D-01 0.148D+00 0.355D+00 0.575D+00
 Coeff-En:   0.000D+00 0.000D+00 0.123D+00 0.877D+00
 Coeff:     -0.752D-01 0.142D+00 0.345D+00 0.589D+00
 Gap=     0.340 Goal=   None    Shift=    0.000
 RMSDP=7.24D-04 MaxDP=9.91D-03 DE=-5.56D-03 OVMax= 9.97D-03

 Cycle   5  Pass 1  IDiag  1:
 E= -191.794346279311     Delta-E=       -0.001013307143 Rises=F Damp=F
 DIIS: error= 5.87D-04 at cycle   5 NSaved=   5.
 NSaved= 5 IEnMin= 5 EnMin= -191.794346279311     IErMin= 5 ErrMin= 5.87D-04
 ErrMax= 5.87D-04  0.00D+00 EMaxC= 1.00D-01 BMatC= 1.34D-05 BMatP= 1.27D-03
 IDIUse=3 WtCom= 9.94D-01 WtEn= 5.87D-03
 Coeff-Com: -0.161D-01 0.247D-01 0.953D-01 0.200D+00 0.696D+00
 Coeff-En:   0.000D+00 0.000D+00 0.000D+00 0.000D+00 0.100D+01
 Coeff:     -0.160D-01 0.246D-01 0.947D-01 0.199D+00 0.698D+00
 Gap=     0.340 Goal=   None    Shift=    0.000
 RMSDP=4.40D-04 MaxDP=9.96D-03 DE=-1.01D-03 OVMax= 2.33D-03

 Cycle   6  Pass 1  IDiag  1:
 E= -191.794363672206     Delta-E=       -0.000017392895 Rises=F Damp=F
 DIIS: error= 3.32D-04 at cycle   6 NSaved=   6.
 NSaved= 6 IEnMin= 6 EnMin= -191.794363672206     IErMin= 6 ErrMin= 3.32D-04
 ErrMax= 3.32D-04  0.00D+00 EMaxC= 1.00D-01 BMatC= 2.23D-06 BMatP= 1.34D-05
 IDIUse=3 WtCom= 9.97D-01 WtEn= 3.32D-03
 Coeff-Com:  0.120D-01-0.241D-01-0.453D-01-0.615D-01 0.241D+00 0.878D+00
 Coeff-En:   0.000D+00 0.000D+00 0.000D+00 0.000D+00 0.000D+00 0.100D+01
 Coeff:      0.120D-01-0.240D-01-0.451D-01-0.613D-01 0.240D+00 0.878D+00
 Gap=     0.340 Goal=   None    Shift=    0.000
 RMSDP=3.26D-04 MaxDP=7.16D-03 DE=-1.74D-05 OVMax= 1.36D-03

 Cycle   7  Pass 1  IDiag  1:
 E= -191.794367705855     Delta-E=       -0.000004033649 Rises=F Damp=F
 DIIS: error= 4.67D-05 at cycle   7 NSaved=   7.
 NSaved= 7 IEnMin= 7 EnMin= -191.794367705855     IErMin= 7 ErrMin= 4.67D-05
 ErrMax= 4.67D-05  0.00D+00 EMaxC= 1.00D-01 BMatC= 1.44D-07 BMatP= 2.23D-06
 IDIUse=1 WtCom= 1.00D+00 WtEn= 0.00D+00
 Coeff-Com:  0.448D-02-0.816D-02-0.216D-01-0.339D-01 0.196D-01 0.233D+00
 Coeff-Com:  0.807D+00
 Coeff:      0.448D-02-0.816D-02-0.216D-01-0.339D-01 0.196D-01 0.233D+00
 Coeff:      0.807D+00
 Gap=     0.340 Goal=   None    Shift=    0.000
 RMSDP=6.13D-05 MaxDP=1.32D-03 DE=-4.03D-06 OVMax= 2.78D-04

 Cycle   8  Pass 1  IDiag  1:
 E= -191.794368013027     Delta-E=       -0.000000307172 Rises=F Damp=F
 DIIS: error= 1.87D-05 at cycle   8 NSaved=   8.
 NSaved= 8 IEnMin= 8 EnMin= -191.794368013027     IErMin= 8 ErrMin= 1.87D-05
 ErrMax= 1.87D-05  0.00D+00 EMaxC= 1.00D-01 BMatC= 1.56D-08 BMatP= 1.44D-07
 IDIUse=1 WtCom= 1.00D+00 WtEn= 0.00D+00
 Coeff-Com: -0.175D-02 0.348D-02 0.534D-02 0.805D-02-0.231D-01-0.112D+00
 Coeff-Com:  0.496D-01 0.107D+01
 Coeff:     -0.175D-02 0.348D-02 0.534D-02 0.805D-02-0.231D-01-0.112D+00
 Coeff:      0.496D-01 0.107D+01
 Gap=     0.340 Goal=   None    Shift=    0.000
 RMSDP=1.34D-05 MaxDP=2.43D-04 DE=-3.07D-07 OVMax= 1.78D-04

 Cycle   9  Pass 1  IDiag  1:
 E= -191.794368063973     Delta-E=       -0.000000050946 Rises=F Damp=F
 DIIS: error= 8.41D-06 at cycle   9 NSaved=   9.
 NSaved= 9 IEnMin= 9 EnMin= -191.794368063973     IErMin= 9 ErrMin= 8.41D-06
 ErrMax= 8.41D-06  0.00D+00 EMaxC= 1.00D-01 BMatC= 7.96D-10 BMatP= 1.56D-08
 IDIUse=1 WtCom= 1.00D+00 WtEn= 0.00D+00
 Coeff-Com:  0.122D-04-0.645D-04 0.417D-03 0.712D-03 0.331D-02 0.196D-02
 Coeff-Com: -0.725D-01-0.199D+00 0.127D+01
 Coeff:      0.122D-04-0.645D-04 0.417D-03 0.712D-03 0.331D-02 0.196D-02
 Coeff:     -0.725D-01-0.199D+00 0.127D+01
 Gap=     0.340 Goal=   None    Shift=    0.000
 RMSDP=3.12D-06 MaxDP=2.54D-05 DE=-5.09D-08 OVMax= 9.69D-05

 Cycle  10  Pass 1  IDiag  1:
 E= -191.794368071290     Delta-E=       -0.000000007316 Rises=F Damp=F
 DIIS: error= 3.40D-06 at cycle  10 NSaved=  10.
 NSaved=10 IEnMin=10 EnMin= -191.794368071290     IErMin=10 ErrMin= 3.40D-06
 ErrMax= 3.40D-06  0.00D+00 EMaxC= 1.00D-01 BMatC= 1.11D-10 BMatP= 7.96D-10
 IDIUse=1 WtCom= 1.00D+00 WtEn= 0.00D+00
 Coeff-Com:  0.166D-03-0.314D-03-0.717D-03-0.101D-02 0.109D-02 0.962D-02
 Coeff-Com:  0.275D-01-0.178D-01-0.563D+00 0.154D+01
 Coeff:      0.166D-03-0.314D-03-0.717D-03-0.101D-02 0.109D-02 0.962D-02
 Coeff:      0.275D-01-0.178D-01-0.563D+00 0.154D+01
 Gap=     0.340 Goal=   None    Shift=    0.000
 RMSDP=1.53D-06 MaxDP=1.78D-05 DE=-7.32D-09 OVMax= 5.11D-05

 Cycle  11  Pass 1  IDiag  1:
 E= -191.794368072540     Delta-E=       -0.000000001251 Rises=F Damp=F
 DIIS: error= 7.60D-07 at cycle  11 NSaved=  11.
 NSaved=11 IEnMin=11 EnMin= -191.794368072540     IErMin=11 ErrMin= 7.60D-07
 ErrMax= 7.60D-07  0.00D+00 EMaxC= 1.00D-01 BMatC= 1.18D-11 BMatP= 1.11D-10
 IDIUse=1 WtCom= 1.00D+00 WtEn= 0.00D+00
 Coeff-Com: -0.357D-04 0.708D-04 0.142D-03 0.153D-03-0.727D-03-0.211D-02
 Coeff-Com:  0.144D-02 0.262D-01-0.606D-02-0.377D+00 0.136D+01
 Coeff:     -0.357D-04 0.708D-04 0.142D-03 0.153D-03-0.727D-03-0.211D-02
 Coeff:      0.144D-02 0.262D-01-0.606D-02-0.377D+00 0.136D+01
 Gap=     0.340 Goal=   None    Shift=    0.000
 RMSDP=4.54D-07 MaxDP=5.12D-06 DE=-1.25D-09 OVMax= 1.45D-05

 Cycle  12  Pass 1  IDiag  1:
 E= -191.794368072625     Delta-E=       -0.000000000085 Rises=F Damp=F
 DIIS: error= 1.01D-07 at cycle  12 NSaved=  12.
 NSaved=12 IEnMin=12 EnMin= -191.794368072625     IErMin=12 ErrMin= 1.01D-07
 ErrMax= 1.01D-07  0.00D+00 EMaxC= 1.00D-01 BMatC= 6.15D-13 BMatP= 1.18D-11
 IDIUse=1 WtCom= 1.00D+00 WtEn= 0.00D+00
 Coeff-Com: -0.321D-05 0.550D-05 0.228D-04 0.290D-04-0.220D-04-0.145D-03
 Coeff-Com: -0.162D-02-0.247D-02 0.270D-01-0.114D-01-0.232D+00 0.122D+01
 Coeff:     -0.321D-05 0.550D-05 0.228D-04 0.290D-04-0.220D-04-0.145D-03
 Coeff:     -0.162D-02-0.247D-02 0.270D-01-0.114D-01-0.232D+00 0.122D+01
 Gap=     0.340 Goal=   None    Shift=    0.000
 RMSDP=9.15D-08 MaxDP=1.18D-06 DE=-8.54D-11 OVMax= 1.52D-06

 Cycle  13  Pass 1  IDiag  1:
 E= -191.794368072627     Delta-E=       -0.000000000001 Rises=F Damp=F
 DIIS: error= 1.42D-08 at cycle  13 NSaved=  13.
 NSaved=13 IEnMin=13 EnMin= -191.794368072627     IErMin=13 ErrMin= 1.42D-08
 ErrMax= 1.42D-08  0.00D+00 EMaxC= 1.00D-01 BMatC= 9.23D-15 BMatP= 6.15D-13
 IDIUse=1 WtCom= 1.00D+00 WtEn= 0.00D+00
 Coeff-Com:  0.133D-05-0.249D-05-0.720D-05-0.903D-05 0.115D-04 0.100D-03
 Coeff-Com:  0.182D-03-0.214D-03-0.479D-02 0.144D-01-0.316D-02-0.210D+00
 Coeff-Com:  0.120D+01
 Coeff:      0.133D-05-0.249D-05-0.720D-05-0.903D-05 0.115D-04 0.100D-03
 Coeff:      0.182D-03-0.214D-03-0.479D-02 0.144D-01-0.316D-02-0.210D+00
 Coeff:      0.120D+01
 Gap=     0.340 Goal=   None    Shift=    0.000
 RMSDP=9.16D-09 MaxDP=6.90D-08 DE=-1.25D-12 OVMax= 1.06D-07

 SCF Done:  E(RwB97XD) =  -191.794368073     A.U. after   13 cycles
            NFock= 13  Conv=0.92D-08     -V/T= 2.0060
 KE= 1.906415738202D+02 PE=-6.517406278739D+02 EE= 1.671174194210D+02
 Leave Link  502 at Wed May 12 11:58:25 2021, MaxMem=  2147483648 cpu:         8.6
 (Enter /opt/cluster/programs/g09_d.01/g09/l601.exe)
 Copying SCF densities to generalized density rwf, IOpCl= 0 IROHF=0.

 **********************************************************************

            Population analysis using the SCF density.

 **********************************************************************

 Orbital symmetries:
       Occupied  (A) (A) (A) (A) (A) (A) (A) (A) (A) (A) (A) (A)
                 (A) (A) (A)
       Virtual   (A) (A) (A) (A) (A) (A) (A) (A) (A) (A) (A) (A)
                 (A) (A) (A) (A) (A) (A) (A) (A) (A) (A) (A) (A)
                 (A) (A) (A) (A) (A) (A) (A) (A) (A) (A) (A) (A)
                 (A) (A) (A) (A) (A) (A) (A) (A) (A)
 The electronic state is 1-A.
 Alpha  occ. eigenvalues --  -19.28924 -10.40737 -10.34092 -10.33446  -1.16787
 Alpha  occ. eigenvalues --   -0.91986  -0.76110  -0.68209  -0.58372  -0.57584
 Alpha  occ. eigenvalues --   -0.51557  -0.49540  -0.48652  -0.38116  -0.35408
 Alpha virt. eigenvalues --   -0.01367   0.06926   0.08114   0.08672   0.09215
 Alpha virt. eigenvalues --    0.11795   0.12624   0.12722   0.14825   0.15591
 Alpha virt. eigenvalues --    0.17662   0.18464   0.20188   0.22275   0.26213
 Alpha virt. eigenvalues --    0.28535   0.28947   0.31609   0.33402   0.35853
 Alpha virt. eigenvalues --    0.36120   0.38319   0.43470   0.47086   0.49293
 Alpha virt. eigenvalues --    0.70851   0.71718   0.75652   0.78066   0.80294
 Alpha virt. eigenvalues --    0.85720   0.87779   0.97667   1.01979   1.07771
 Alpha virt. eigenvalues --    1.09575   1.12656   1.20936   1.22375   1.29556
 Alpha virt. eigenvalues --    1.32435   1.37134   1.39866   1.43695   1.91280
          Condensed to atoms (all electrons):
               1          2          3          4          5          6
     1  C    5.652444  -0.266095   0.208042   0.047565   0.102386   0.354086
     2  C   -0.266095   6.327530   0.040759  -0.199358  -0.234515  -0.007111
     3  C    0.208042   0.040759   5.024338   0.307973   0.397535   0.005232
     4  O    0.047565  -0.199358   0.307973   8.334409  -0.056352  -0.000520
     5  H    0.102386  -0.234515   0.397535  -0.056352   0.606636   0.000110
     6  H    0.354086  -0.007111   0.005232  -0.000520   0.000110   0.461020
     7  H    0.381816  -0.052137   0.010154   0.000661   0.000998  -0.022686
     8  H   -0.016704   0.350506  -0.008768  -0.005359   0.001535  -0.002362
               7          8
     1  C    0.381816  -0.016704
     2  C   -0.052137   0.350506
     3  C    0.010154  -0.008768
     4  O    0.000661  -0.005359
     5  H    0.000998   0.001535
     6  H   -0.022686  -0.002362
     7  H    0.473421   0.002299
     8  H    0.002299   0.440828
 Mulliken charges:
               1
     1  C   -0.463539
     2  C    0.040422
     3  C    0.014736
     4  O   -0.429019
     5  H    0.181667
     6  H    0.212232
     7  H    0.205475
     8  H    0.238026
 Sum of Mulliken charges =   0.00000
 Mulliken charges with hydrogens summed into heavy atoms:
               1
     1  C   -0.045832
     2  C    0.278448
     3  C    0.196403
     4  O   -0.429019
 Electronic spatial extent (au):  <R**2>=            302.6847
 Charge=              0.0000 electrons
 Dipole moment (field-independent basis, Debye):
    X=              3.7117    Y=              0.8732    Z=              0.3194  Tot=              3.8264
 Quadrupole moment (field-independent basis, Debye-Ang):
   XX=            -28.1348   YY=            -21.6640   ZZ=            -25.4100
   XY=             -1.1823   XZ=             -1.1453   YZ=             -0.1559
 Traceless Quadrupole moment (field-independent basis, Debye-Ang):
   XX=             -3.0652   YY=              3.4056   ZZ=             -0.3404
   XY=             -1.1823   XZ=             -1.1453   YZ=             -0.1559
 Octapole moment (field-independent basis, Debye-Ang**2):
  XXX=             18.3896  YYY=              0.1551  ZZZ=             -0.4413  XYY=              0.2857
  XXY=              1.0636  XXZ=             -0.1091  XZZ=             -4.2613  YZZ=              0.2034
  YYZ=              0.2413  XYZ=             -0.0860
 Hexadecapole moment (field-independent basis, Debye-Ang**3):
 XXXX=           -311.4759 YYYY=            -54.4735 ZZZZ=            -29.2026 XXXY=             -3.9422
 XXXZ=             -4.6419 YYYX=             -0.1719 YYYZ=             -0.3709 ZZZX=              0.1864
 ZZZY=              0.0227 XXYY=            -58.6618 XXZZ=            -58.5634 YYZZ=            -15.6034
 XXYZ=             -0.1731 YYXZ=             -0.4887 ZZXY=              0.2592
 N-N= 1.021872665601D+02 E-N=-6.517406278398D+02  KE= 1.906415738202D+02
 No NMR shielding tensors so no spin-rotation constants.
 Leave Link  601 at Wed May 12 11:58:25 2021, MaxMem=  2147483648 cpu:         0.6
 (Enter /opt/cluster/programs/g09_d.01/g09/l701.exe)
 Compute integral first derivatives.
 ... and contract with generalized density number  0.
 R6Disp: Adding Grimme-D2 dispersion energy 1st derivatives to the gradient.
 Leave Link  701 at Wed May 12 11:58:25 2021, MaxMem=  2147483648 cpu:         0.6
 (Enter /opt/cluster/programs/g09_d.01/g09/l702.exe)
 L702 exits ... SP integral derivatives will be done elsewhere.
 Leave Link  702 at Wed May 12 11:58:25 2021, MaxMem=  2147483648 cpu:         0.2
 (Enter /opt/cluster/programs/g09_d.01/g09/l703.exe)
 Compute integral first derivatives, UseDBF=F ICtDFT=           0.
 Integral derivatives from FoFJK, PRISM(SPDF).
 Calling FoFJK, ICntrl=      2127 FMM=F ISym2X=0 I1Cent= 0 IOpClX= 0 NMat=1 NMatS=1 NMatT=0.
 FoFJK:  IHMeth= 1 ICntrl=    2127 DoSepK=T KAlg= 0 I1Cent=   0 FoldK=F
 IRaf=         1 NMat=   1 IRICut=       1 DoRegI=T DoRafI=F ISym2E= 0.
 FoFCou: FMM=F IPFlag=           0 FMFlag=      100000 FMFlg1=         800
         NFxFlg=           0 DoJE=F BraDBF=F KetDBF=F FulRan=T
         wScrn=  0.000000 ICntrl=    2527 IOpCl=  0 I1Cent=           0 NGrid=           0
         NMat0=    1 NMatS0=      1 NMatT0=    0 NMatD0=    1 NMtDS0=    0 NMtDT0=    0
 Symmetry not used in FoFCou.
 Leave Link  703 at Wed May 12 11:58:26 2021, MaxMem=  2147483648 cpu:         2.4
 (Enter /opt/cluster/programs/g09_d.01/g09/l716.exe)
 Dipole        = 1.46028454D+00 3.43548203D-01 1.25663752D-01
 ***** Axes restored to original set *****
 -------------------------------------------------------------------
 Center     Atomic                   Forces (Hartrees/Bohr)
 Number     Number              X              Y              Z
 -------------------------------------------------------------------
      1        6          -0.005322019   -0.001499726    0.004094600
      2        6           0.004534869   -0.000577012   -0.004566758
      3        6          -0.007383844   -0.000049409   -0.005194544
      4        8           0.009481198    0.003015279    0.005284917
      5        1          -0.000640235   -0.001237422    0.000020295
      6        1          -0.000730541   -0.000011078    0.000230648
      7        1          -0.000218091   -0.000236878   -0.000133281
      8        1           0.000278664    0.000596246    0.000264122
 -------------------------------------------------------------------
 Cartesian Forces:  Max     0.009481198 RMS     0.003539463
 Leave Link  716 at Wed May 12 11:58:26 2021, MaxMem=  2147483648 cpu:         0.2
 (Enter /opt/cluster/programs/g09_d.01/g09/l103.exe)

 GradGradGradGradGradGradGradGradGradGradGradGradGradGradGradGradGradGrad
 Berny optimization.
 FormGI is forming the generalized inverse of G from B-inverse, IUseBI=4.
 Internal  Forces:  Max     0.010638616 RMS     0.002903221
 Search for a local minimum.
 Step number   1 out of a maximum of   34
 All quantities printed in internal units (Hartrees-Bohrs-Radians)
 RMS Force = .27123D-02 SwitMx=.10000D-02 MixMth= 1
 Mixed Optimization -- RFO/linear search
 Second derivative matrix not updated -- first step.
 ITU=  0
     Eigenvalues ---    0.01174   0.01885   0.02808   0.02808   0.15940
     Eigenvalues ---    0.16000   0.16000   0.16000   0.22005   0.22013
     Eigenvalues ---    0.33117   0.34999   0.35121   0.35384   0.35774
     Eigenvalues ---    0.55968   0.856441000.000001000.000001000.00000
     Eigenvalues --- 1000.000001000.000001000.000001000.00000
 RFO step:  Lambda=-2.67957637D-04 EMin= 1.17371899D-02
 Linear search not attempted -- first point.
 Iteration  1 RMS(Cart)=  0.00979826 RMS(Int)=  0.00005525
 Iteration  2 RMS(Cart)=  0.00005034 RMS(Int)=  0.00001071
 Iteration  3 RMS(Cart)=  0.00000000 RMS(Int)=  0.00001071
 Iteration  1 RMS(Cart)=  0.00000060 RMS(Int)=  0.00000044
 ITry= 1 IFail=0 DXMaxC= 2.20D-02 DCOld= 1.00D+10 DXMaxT= 3.00D-01 DXLimC= 3.00D+00 Rises=F
 Variable       Old X    -DE/DX   Delta X   Delta X   Delta X     New X
                                 (Linear)    (Quad)   (Total)
    R1        2.54282  -0.00688   0.00000  -0.01230  -0.01230   2.53052
    R2        2.05056  -0.00063   0.00000  -0.00177  -0.00177   2.04879
    R3        2.05677  -0.00024   0.00000  -0.00069  -0.00069   2.05608
    R4        2.77736  -0.00030   0.00000  -0.00083  -0.00083   2.77653
    R5        2.05479  -0.00061   0.00000  -0.00174  -0.00174   2.05305
    R6        2.35008  -0.01064   0.00000  -0.01242  -0.01242   2.33766
    R7        2.08847  -0.00129   0.00000  -0.00390  -0.00390   2.08457
    A1        2.13119  -0.00044   0.00000  -0.00272  -0.00272   2.12847
    A2        2.11857   0.00003   0.00000   0.00019   0.00019   2.11876
    A3        2.03342   0.00041   0.00000   0.00253   0.00253   2.03595
    A4        2.11695  -0.00130   0.00000  -0.00590  -0.00592   2.11104
    A5        2.12780   0.00063   0.00000   0.00209   0.00207   2.12988
    A6        2.03360   0.00085   0.00000   0.00475   0.00474   2.03833
    A7        2.16080  -0.00111   0.00000  -0.00517  -0.00520   2.15560
    A8        2.02496   0.00116   0.00000   0.00610   0.00607   2.03103
    A9        2.09596   0.00014   0.00000  -0.00025  -0.00027   2.09568
    D1       -3.05871  -0.00113   0.00000  -0.00967  -0.00967  -3.06838
    D2       -0.02627   0.00089   0.00000   0.00114   0.00114  -0.02513
    D3        0.08047  -0.00114   0.00000  -0.01001  -0.01001   0.07046
    D4        3.11291   0.00088   0.00000   0.00079   0.00079   3.11370
    D5        2.79255   0.00452   0.00000   0.00000   0.00000   2.79255
    D6       -0.29073   0.00074   0.00000  -0.01352  -0.01352  -0.30425
    D7       -0.24552   0.00261   0.00000  -0.01014  -0.01014  -0.25566
    D8        2.95439  -0.00118   0.00000  -0.02366  -0.02366   2.93072
         Item               Value     Threshold  Converged?
 Maximum Force            0.010639     0.000450     NO 
 RMS     Force            0.002712     0.000300     NO 
 Maximum Displacement     0.021956     0.001800     NO 
 RMS     Displacement     0.009802     0.001200     NO 
 Predicted change in Energy=-1.341493D-04
 Lowest energy point so far.  Saving SCF results.
 GradGradGradGradGradGradGradGradGradGradGradGradGradGradGradGradGradGrad

 Leave Link  103 at Wed May 12 11:58:26 2021, MaxMem=  2147483648 cpu:         0.0
 (Enter /opt/cluster/programs/g09_d.01/g09/l202.exe)
                          Input orientation:                          
 ---------------------------------------------------------------------
 Center     Atomic      Atomic             Coordinates (Angstroms)
 Number     Number       Type             X           Y           Z
 ---------------------------------------------------------------------
      1          6           0        1.761406    0.137802   -0.072814
      2          6           0        0.566268   -0.442049    0.096286
      3          6           0       -0.667656    0.355569    0.094838
      4          8           0       -1.789701   -0.122689   -0.111422
      5          1           0       -0.549235    1.441584    0.247782
      6          1           0        2.675488   -0.441160   -0.141283
      7          1           0        1.861137    1.218429   -0.150952
      8          1           0        0.451742   -1.521086    0.150083
 ---------------------------------------------------------------------
                    Distance matrix (angstroms):
                    1          2          3          4          5
     1  C    0.000000
     2  C    1.339096   0.000000
     3  C    2.444560   1.469274   0.000000
     4  O    3.560858   2.386572   1.237036   0.000000
     5  H    2.672394   2.194396   1.103107   2.028481   0.000000
     6  H    1.084173   2.122558   3.444873   4.476632   3.754323
     7  H    1.088029   2.120142   2.683233   3.889574   2.453300
     8  H    2.125279   1.086430   2.185849   2.654801   3.128724
                    6          7          8
     6  H    0.000000
     7  H    1.848648   0.000000
     8  H    2.489213   3.095474   0.000000
 Stoichiometry    C3H4O
 Framework group  C1[X(C3H4O)]
 Deg. of freedom    18
 Full point group                 C1      NOp   1
 RotChk:  IX=0 Diff= 3.14D-03
 Largest Abelian subgroup         C1      NOp   1
 Largest concise Abelian subgroup C1      NOp   1
                         Standard orientation:                         
 ---------------------------------------------------------------------
 Center     Atomic      Atomic             Coordinates (Angstroms)
 Number     Number       Type             X           Y           Z
 ---------------------------------------------------------------------
      1          6           0        1.758349    0.140532   -0.071704
      2          6           0        0.564521   -0.441667    0.098581
      3          6           0       -0.671021    0.353446    0.097725
      4          8           0       -1.792252   -0.127180   -0.107453
      5          1           0       -0.554685    1.439769    0.250085
      6          1           0        2.673551   -0.436607   -0.140616
      7          1           0        1.855827    1.221323   -0.150408
      8          1           0        0.452226   -1.520908    0.152955
 ---------------------------------------------------------------------
 Rotational constants (GHZ):     45.7616018      4.6295740      4.2467819
 Leave Link  202 at Wed May 12 11:58:26 2021, MaxMem=  2147483648 cpu:         0.0
 (Enter /opt/cluster/programs/g09_d.01/g09/l301.exe)
 Standard basis: 6-31+G (6D, 7F)
 Ernie: Thresh=  0.10000D-02 Tol=  0.10000D-05 Strict=F.
 There are    60 symmetry adapted cartesian basis functions of A   symmetry.
 There are    60 symmetry adapted basis functions of A   symmetry.
    60 basis functions,   120 primitive gaussians,    60 cartesian basis functions
    15 alpha electrons       15 beta electrons
       nuclear repulsion energy       102.5334945371 Hartrees.
 IExCor= 4639 DFT=T Ex+Corr=wB97XD ExCW=0 ScaHFX=  1.000000
 ScaDFX=  1.000000  1.000000  1.000000  1.000000 ScalE2=  1.000000  1.000000
 IRadAn=      0 IRanWt=     -1 IRanGd=            0 ICorTp=0 IEmpDi=121
  HFx wShort=  0.000000 wLong=  0.200000 cFull=  0.222036 cShort=  0.000000 cLong=  0.777964
  DFx wShort=  0.000000 wLong=  0.200000 cFull=  0.000000 cShort=  0.000000 cLong=  1.000000
 NAtoms=    8 NActive=    8 NUniq=    8 SFac= 1.00D+00 NAtFMM=   60 NAOKFM=F Big=F
 Integral buffers will be    131072 words long.
 Raffenetti 2 integral format.
 Two-electron integral symmetry is turned on.
 R6Disp:  Grimme-D2 Dispersion energy=       -0.0018093120 Hartrees.
 Nuclear repulsion after empirical dispersion term =      102.5316852250 Hartrees.
 Leave Link  301 at Wed May 12 11:58:26 2021, MaxMem=  2147483648 cpu:         0.3
 (Enter /opt/cluster/programs/g09_d.01/g09/l302.exe)
 NPDir=0 NMtPBC=     1 NCelOv=     1 NCel=       1 NClECP=     1 NCelD=      1
         NCelK=      1 NCelE2=     1 NClLst=     1 CellRange=     0.0.
 One-electron integrals computed using PRISM.
 NBasis=    60 RedAO= T EigKep=  1.21D-04  NBF=    60
 NBsUse=    60 1.00D-06 EigRej= -1.00D+00 NBFU=    60
 Precomputing XC quadrature grid using
 IXCGrd= 4 IRadAn=           0 IRanWt=          -1 IRanGd=           0 AccXCQ= 0.00D+00.
 Generated NRdTot=       0 NPtTot=           0 NUsed=           0 NTot=          32
 NSgBfM=    60    60    60    60    60 MxSgAt=     8 MxSgA2=     8.
 Leave Link  302 at Wed May 12 11:58:26 2021, MaxMem=  2147483648 cpu:         0.8
 (Enter /opt/cluster/programs/g09_d.01/g09/l303.exe)
 DipDrv:  MaxL=1.
 Leave Link  303 at Wed May 12 11:58:26 2021, MaxMem=  2147483648 cpu:         0.2
 (Enter /opt/cluster/programs/g09_d.01/g09/l401.exe)
 Initial guess from the checkpoint file:  "/home/unibas/boittier/RDKit_G2/L.pdb/SCAN_1_2_3_4_S_17_20.0/17_SCAN_1_2_3_4_F/L.pdb.chk"
 B after Tr=     0.000000    0.000000    0.000000
         Rot=    1.000000   -0.000222    0.000016   -0.000590 Ang=  -0.07 deg.
 Guess basis will be translated and rotated to current coordinates.
 JPrj=2 DoOrth=T DoCkMO=T.
 Generating alternative initial guess.
 ExpMin= 4.38D-02 ExpMax= 5.48D+03 ExpMxC= 8.25D+02 IAcc=2 IRadAn=         4 AccDes= 0.00D+00
 Harris functional with IExCor= 4639 and IRadAn=       4 diagonalized for initial guess.
 HarFok:  IExCor= 4639 AccDes= 0.00D+00 IRadAn=         4 IDoV= 1 UseB2=F ITyADJ=14
 ICtDFT=  3500011 ScaDFX=  1.000000  1.000000  1.000000  1.000000
 FoFCou: FMM=F IPFlag=           0 FMFlag=      100000 FMFlg1=           0
         NFxFlg=           0 DoJE=T BraDBF=F KetDBF=T FulRan=T
         wScrn=  0.000000 ICntrl=     500 IOpCl=  0 I1Cent=   200000004 NGrid=           0
         NMat0=    1 NMatS0=      1 NMatT0=    0 NMatD0=    1 NMtDS0=    0 NMtDT0=    0
 Petite list used in FoFCou.
 Harris En= -183.746682400569    
 Leave Link  401 at Wed May 12 11:58:26 2021, MaxMem=  2147483648 cpu:         1.4
 (Enter /opt/cluster/programs/g09_d.01/g09/l502.exe)
 Closed shell SCF:
 Using DIIS extrapolation, IDIIS=  1040.
 Integral symmetry usage will be decided dynamically.
 Keep R1 ints in memory in canonical form, NReq=4262490.
 IVT=       30290 IEndB=       30290 NGot=  2147483648 MDV=  2144102629
 LenX=  2144102629 LenY=  2144098588
 Requested convergence on RMS density matrix=1.00D-08 within 128 cycles.
 Requested convergence on MAX density matrix=1.00D-06.
 Requested convergence on             energy=1.00D-06.
 No special actions if energy rises.
 FoFCou: FMM=F IPFlag=           0 FMFlag=           0 FMFlg1=           0
         NFxFlg=           0 DoJE=F BraDBF=F KetDBF=F FulRan=T
         wScrn=  0.000000 ICntrl=     600 IOpCl=  0 I1Cent=           0 NGrid=           0
         NMat0=    1 NMatS0=   1830 NMatT0=    0 NMatD0=    1 NMtDS0=    0 NMtDT0=    0
 Symmetry not used in FoFCou.

 Cycle   1  Pass 1  IDiag  1:
 E= -191.794411710192    
 DIIS: error= 5.70D-04 at cycle   1 NSaved=   1.
 NSaved= 1 IEnMin= 1 EnMin= -191.794411710192     IErMin= 1 ErrMin= 5.70D-04
 ErrMax= 5.70D-04  0.00D+00 EMaxC= 1.00D-01 BMatC= 4.50D-05 BMatP= 4.50D-05
 IDIUse=3 WtCom= 9.94D-01 WtEn= 5.70D-03
 Coeff-Com:  0.100D+01
 Coeff-En:   0.100D+01
 Coeff:      0.100D+01
 Gap=     0.616 Goal=   None    Shift=    0.000
 RMSDP=3.41D-04 MaxDP=4.72D-03              OVMax= 2.34D-03

 Cycle   2  Pass 1  IDiag  1:
 E= -191.794482085334     Delta-E=       -0.000070375142 Rises=F Damp=F
 DIIS: error= 1.79D-04 at cycle   2 NSaved=   2.
 NSaved= 2 IEnMin= 2 EnMin= -191.794482085334     IErMin= 2 ErrMin= 1.79D-04
 ErrMax= 1.79D-04  0.00D+00 EMaxC= 1.00D-01 BMatC= 3.36D-06 BMatP= 4.50D-05
 IDIUse=3 WtCom= 9.98D-01 WtEn= 1.79D-03
 Coeff-Com:  0.301D-01 0.970D+00
 Coeff-En:   0.000D+00 0.100D+01
 Coeff:      0.301D-01 0.970D+00
 Gap=     0.342 Goal=   None    Shift=    0.000
 RMSDP=1.12D-04 MaxDP=2.13D-03 DE=-7.04D-05 OVMax= 1.09D-03

 Cycle   3  Pass 1  IDiag  1:
 E= -191.794488297213     Delta-E=       -0.000006211879 Rises=F Damp=F
 DIIS: error= 1.15D-04 at cycle   3 NSaved=   3.
 NSaved= 3 IEnMin= 3 EnMin= -191.794488297213     IErMin= 3 ErrMin= 1.15D-04
 ErrMax= 1.15D-04  0.00D+00 EMaxC= 1.00D-01 BMatC= 7.52D-07 BMatP= 3.36D-06
 IDIUse=3 WtCom= 9.99D-01 WtEn= 1.15D-03
 Coeff-Com: -0.641D-01 0.257D+00 0.807D+00
 Coeff-En:   0.000D+00 0.000D+00 0.100D+01
 Coeff:     -0.641D-01 0.256D+00 0.808D+00
 Gap=     0.342 Goal=   None    Shift=    0.000
 RMSDP=3.45D-05 MaxDP=3.37D-04 DE=-6.21D-06 OVMax= 5.72D-04

 Cycle   4  Pass 1  IDiag  1:
 E= -191.794489743752     Delta-E=       -0.000001446539 Rises=F Damp=F
 DIIS: error= 4.32D-05 at cycle   4 NSaved=   4.
 NSaved= 4 IEnMin= 4 EnMin= -191.794489743752     IErMin= 4 ErrMin= 4.32D-05
 ErrMax= 4.32D-05  0.00D+00 EMaxC= 1.00D-01 BMatC= 1.09D-07 BMatP= 7.52D-07
 IDIUse=1 WtCom= 1.00D+00 WtEn= 0.00D+00
 Coeff-Com: -0.218D-01 0.268D-01 0.243D+00 0.752D+00
 Coeff:     -0.218D-01 0.268D-01 0.243D+00 0.752D+00
 Gap=     0.342 Goal=   None    Shift=    0.000
 RMSDP=1.51D-05 MaxDP=2.19D-04 DE=-1.45D-06 OVMax= 3.31D-04

 Cycle   5  Pass 1  IDiag  1:
 E= -191.794489970427     Delta-E=       -0.000000226674 Rises=F Damp=F
 DIIS: error= 3.23D-05 at cycle   5 NSaved=   5.
 NSaved= 5 IEnMin= 5 EnMin= -191.794489970427     IErMin= 5 ErrMin= 3.23D-05
 ErrMax= 3.23D-05  0.00D+00 EMaxC= 1.00D-01 BMatC= 6.25D-08 BMatP= 1.09D-07
 IDIUse=1 WtCom= 1.00D+00 WtEn= 0.00D+00
 Coeff-Com:  0.114D-01-0.863D-01-0.142D+00 0.477D+00 0.740D+00
 Coeff:      0.114D-01-0.863D-01-0.142D+00 0.477D+00 0.740D+00
 Gap=     0.342 Goal=   None    Shift=    0.000
 RMSDP=1.13D-05 MaxDP=9.89D-05 DE=-2.27D-07 OVMax= 3.06D-04

 Cycle   6  Pass 1  IDiag  1:
 E= -191.794490109138     Delta-E=       -0.000000138711 Rises=F Damp=F
 DIIS: error= 1.40D-05 at cycle   6 NSaved=   6.
 NSaved= 6 IEnMin= 6 EnMin= -191.794490109138     IErMin= 6 ErrMin= 1.40D-05
 ErrMax= 1.40D-05  0.00D+00 EMaxC= 1.00D-01 BMatC= 4.09D-09 BMatP= 6.25D-08
 IDIUse=1 WtCom= 1.00D+00 WtEn= 0.00D+00
 Coeff-Com:  0.366D-02-0.103D-01-0.426D-01-0.694D-01 0.945D-01 0.102D+01
 Coeff:      0.366D-02-0.103D-01-0.426D-01-0.694D-01 0.945D-01 0.102D+01
 Gap=     0.342 Goal=   None    Shift=    0.000
 RMSDP=5.51D-06 MaxDP=6.62D-05 DE=-1.39D-07 OVMax= 1.72D-04

 Cycle   7  Pass 1  IDiag  1:
 E= -191.794490133578     Delta-E=       -0.000000024440 Rises=F Damp=F
 DIIS: error= 6.31D-06 at cycle   7 NSaved=   7.
 NSaved= 7 IEnMin= 7 EnMin= -191.794490133578     IErMin= 7 ErrMin= 6.31D-06
 ErrMax= 6.31D-06  0.00D+00 EMaxC= 1.00D-01 BMatC= 1.37D-09 BMatP= 4.09D-09
 IDIUse=1 WtCom= 1.00D+00 WtEn= 0.00D+00
 Coeff-Com: -0.181D-02 0.192D-01 0.222D-01-0.162D+00-0.167D+00 0.438D+00
 Coeff-Com:  0.850D+00
 Coeff:     -0.181D-02 0.192D-01 0.222D-01-0.162D+00-0.167D+00 0.438D+00
 Coeff:      0.850D+00
 Gap=     0.342 Goal=   None    Shift=    0.000
 RMSDP=3.22D-06 MaxDP=3.08D-05 DE=-2.44D-08 OVMax= 9.88D-05

 Cycle   8  Pass 1  IDiag  1:
 E= -191.794490140005     Delta-E=       -0.000000006427 Rises=F Damp=F
 DIIS: error= 2.04D-06 at cycle   8 NSaved=   8.
 NSaved= 8 IEnMin= 8 EnMin= -191.794490140005     IErMin= 8 ErrMin= 2.04D-06
 ErrMax= 2.04D-06  0.00D+00 EMaxC= 1.00D-01 BMatC= 1.61D-10 BMatP= 1.37D-09
 IDIUse=1 WtCom= 1.00D+00 WtEn= 0.00D+00
 Coeff-Com: -0.894D-03 0.510D-02 0.107D-01-0.118D-01-0.547D-01-0.909D-01
 Coeff-Com:  0.171D+00 0.971D+00
 Coeff:     -0.894D-03 0.510D-02 0.107D-01-0.118D-01-0.547D-01-0.909D-01
 Coeff:      0.171D+00 0.971D+00
 Gap=     0.342 Goal=   None    Shift=    0.000
 RMSDP=1.14D-06 MaxDP=1.35D-05 DE=-6.43D-09 OVMax= 3.46D-05

 Cycle   9  Pass 1  IDiag  1:
 E= -191.794490140791     Delta-E=       -0.000000000786 Rises=F Damp=F
 DIIS: error= 5.64D-07 at cycle   9 NSaved=   9.
 NSaved= 9 IEnMin= 9 EnMin= -191.794490140791     IErMin= 9 ErrMin= 5.64D-07
 ErrMax= 5.64D-07  0.00D+00 EMaxC= 1.00D-01 BMatC= 2.88D-11 BMatP= 1.61D-10
 IDIUse=1 WtCom= 1.00D+00 WtEn= 0.00D+00
 Coeff-Com:  0.322D-04-0.194D-02-0.382D-03 0.299D-01 0.113D-01-0.127D+00
 Coeff-Com: -0.101D+00 0.344D+00 0.845D+00
 Coeff:      0.322D-04-0.194D-02-0.382D-03 0.299D-01 0.113D-01-0.127D+00
 Coeff:     -0.101D+00 0.344D+00 0.845D+00
 Gap=     0.342 Goal=   None    Shift=    0.000
 RMSDP=4.82D-07 MaxDP=6.66D-06 DE=-7.86D-10 OVMax= 1.18D-05

 Cycle  10  Pass 1  IDiag  1:
 E= -191.794490140889     Delta-E=       -0.000000000097 Rises=F Damp=F
 DIIS: error= 1.76D-07 at cycle  10 NSaved=  10.
 NSaved=10 IEnMin=10 EnMin= -191.794490140889     IErMin=10 ErrMin= 1.76D-07
 ErrMax= 1.76D-07  0.00D+00 EMaxC= 1.00D-01 BMatC= 7.64D-13 BMatP= 2.88D-11
 IDIUse=1 WtCom= 1.00D+00 WtEn= 0.00D+00
 Coeff-Com:  0.614D-04-0.155D-03-0.823D-03-0.303D-02 0.381D-02 0.208D-01
 Coeff-Com:  0.238D-02-0.119D+00-0.968D-01 0.119D+01
 Coeff:      0.614D-04-0.155D-03-0.823D-03-0.303D-02 0.381D-02 0.208D-01
 Coeff:      0.238D-02-0.119D+00-0.968D-01 0.119D+01
 Gap=     0.342 Goal=   None    Shift=    0.000
 RMSDP=1.58D-07 MaxDP=3.30D-06 DE=-9.71D-11 OVMax= 1.64D-06

 Cycle  11  Pass 1  IDiag  1:
 E= -191.794490140892     Delta-E=       -0.000000000003 Rises=F Damp=F
 DIIS: error= 2.82D-08 at cycle  11 NSaved=  11.
 NSaved=11 IEnMin=11 EnMin= -191.794490140892     IErMin=11 ErrMin= 2.82D-08
 ErrMax= 2.82D-08  0.00D+00 EMaxC= 1.00D-01 BMatC= 1.76D-14 BMatP= 7.64D-13
 IDIUse=1 WtCom= 1.00D+00 WtEn= 0.00D+00
 Coeff-Com: -0.740D-05 0.770D-04 0.965D-04-0.524D-03-0.927D-03 0.163D-02
 Coeff-Com:  0.384D-02 0.394D-03-0.151D-01-0.146D+00 0.116D+01
 Coeff:     -0.740D-05 0.770D-04 0.965D-04-0.524D-03-0.927D-03 0.163D-02
 Coeff:      0.384D-02 0.394D-03-0.151D-01-0.146D+00 0.116D+01
 Gap=     0.342 Goal=   None    Shift=    0.000
 RMSDP=2.37D-08 MaxDP=3.08D-07 DE=-3.30D-12 OVMax= 2.04D-07

 Cycle  12  Pass 1  IDiag  1:
 E= -191.794490140891     Delta-E=        0.000000000001 Rises=F Damp=F
 DIIS: error= 3.33D-09 at cycle  12 NSaved=  12.
 NSaved=12 IEnMin=11 EnMin= -191.794490140892     IErMin=12 ErrMin= 3.33D-09
 ErrMax= 3.33D-09  0.00D+00 EMaxC= 1.00D-01 BMatC= 3.96D-16 BMatP= 1.76D-14
 IDIUse=1 WtCom= 1.00D+00 WtEn= 0.00D+00
 Coeff-Com: -0.106D-06-0.879D-05 0.851D-06 0.160D-03 0.668D-04-0.791D-03
 Coeff-Com: -0.614D-03 0.276D-02 0.504D-02-0.585D-02-0.190D+00 0.119D+01
 Coeff:     -0.106D-06-0.879D-05 0.851D-06 0.160D-03 0.668D-04-0.791D-03
 Coeff:     -0.614D-03 0.276D-02 0.504D-02-0.585D-02-0.190D+00 0.119D+01
 Gap=     0.342 Goal=   None    Shift=    0.000
 RMSDP=3.61D-09 MaxDP=5.07D-08 DE= 7.39D-13 OVMax= 3.48D-08

 SCF Done:  E(RwB97XD) =  -191.794490141     A.U. after   12 cycles
            NFock= 12  Conv=0.36D-08     -V/T= 2.0058
 KE= 1.906935734410D+02 PE=-6.524711523090D+02 EE= 1.674514035021D+02
 Leave Link  502 at Wed May 12 11:58:27 2021, MaxMem=  2147483648 cpu:         8.0
 (Enter /opt/cluster/programs/g09_d.01/g09/l701.exe)
 Compute integral first derivatives.
 ... and contract with generalized density number  0.
 R6Disp: Adding Grimme-D2 dispersion energy 1st derivatives to the gradient.
 Leave Link  701 at Wed May 12 11:58:27 2021, MaxMem=  2147483648 cpu:         0.6
 (Enter /opt/cluster/programs/g09_d.01/g09/l702.exe)
 L702 exits ... SP integral derivatives will be done elsewhere.
 Leave Link  702 at Wed May 12 11:58:27 2021, MaxMem=  2147483648 cpu:         0.2
 (Enter /opt/cluster/programs/g09_d.01/g09/l703.exe)
 Compute integral first derivatives, UseDBF=F ICtDFT=           0.
 Integral derivatives from FoFJK, PRISM(SPDF).
 Calling FoFJK, ICntrl=      2127 FMM=F ISym2X=0 I1Cent= 0 IOpClX= 0 NMat=1 NMatS=1 NMatT=0.
 FoFJK:  IHMeth= 1 ICntrl=    2127 DoSepK=T KAlg= 0 I1Cent=   0 FoldK=F
 IRaf=         1 NMat=   1 IRICut=       1 DoRegI=T DoRafI=F ISym2E= 0.
 FoFCou: FMM=F IPFlag=           0 FMFlag=      100000 FMFlg1=         800
         NFxFlg=           0 DoJE=F BraDBF=F KetDBF=F FulRan=T
         wScrn=  0.000000 ICntrl=    2527 IOpCl=  0 I1Cent=           0 NGrid=           0
         NMat0=    1 NMatS0=      1 NMatT0=    0 NMatD0=    1 NMtDS0=    0 NMtDT0=    0
 Symmetry not used in FoFCou.
 Leave Link  703 at Wed May 12 11:58:27 2021, MaxMem=  2147483648 cpu:         2.4
 (Enter /opt/cluster/programs/g09_d.01/g09/l716.exe)
 Dipole        = 1.43945705D+00 3.43133280D-01 1.31701262D-01
 ***** Axes restored to original set *****
 -------------------------------------------------------------------
 Center     Atomic                   Forces (Hartrees/Bohr)
 Number     Number              X              Y              Z
 -------------------------------------------------------------------
      1        6           0.001063096    0.000700653    0.003155089
      2        6          -0.000104241   -0.001400548   -0.003222884
      3        6          -0.001746009    0.000363249   -0.002972285
      4        8           0.000345217   -0.000033885    0.003363161
      5        1           0.000380904    0.000172404   -0.000331484
      6        1           0.000197663    0.000090756   -0.000071081
      7        1           0.000107502   -0.000036345   -0.000019156
      8        1          -0.000244132    0.000143716    0.000098639
 -------------------------------------------------------------------
 Cartesian Forces:  Max     0.003363161 RMS     0.001411581
 Leave Link  716 at Wed May 12 11:58:28 2021, MaxMem=  2147483648 cpu:         0.2
 (Enter /opt/cluster/programs/g09_d.01/g09/l103.exe)

 GradGradGradGradGradGradGradGradGradGradGradGradGradGradGradGradGradGrad
 Berny optimization.
 Using GEDIIS/GDIIS optimizer.
 FormGI is forming the generalized inverse of G from B-inverse, IUseBI=4.
 Internal  Forces:  Max     0.004020065 RMS     0.001133441
 Search for a local minimum.
 Step number   2 out of a maximum of   34
 All quantities printed in internal units (Hartrees-Bohrs-Radians)
 RMS Force = .45253D-03 SwitMx=.10000D-02 MixMth= 2
 Mixed Optimization -- En-DIIS/RFO-DIIS
 Update second derivatives using D2CorX and points    1    2
 DE= -1.22D-04 DEPred=-1.34D-04 R= 9.10D-01
 TightC=F SS=  1.41D+00  RLast= 3.88D-02 DXNew= 5.0454D-01 1.1652D-01
 Trust test= 9.10D-01 RLast= 3.88D-02 DXMaxT set to 3.00D-01
 ITU=  1  0
 Use linear search instead of GDIIS.
     Eigenvalues ---    0.01270   0.01826   0.02808   0.02818   0.15949
     Eigenvalues ---    0.15997   0.16000   0.16340   0.21965   0.22934
     Eigenvalues ---    0.33103   0.34927   0.35027   0.35345   0.36034
     Eigenvalues ---    0.61133   0.764581000.000001000.000001000.00000
     Eigenvalues --- 1000.000001000.000001000.000001000.00000
 RFO step:  Lambda=-2.65230356D-05 EMin= 1.26991790D-02
 Quartic linear search produced a step of -0.08494.
 Iteration  1 RMS(Cart)=  0.00642917 RMS(Int)=  0.00007891
 Iteration  2 RMS(Cart)=  0.00006613 RMS(Int)=  0.00003920
 Iteration  3 RMS(Cart)=  0.00000000 RMS(Int)=  0.00003920
 Iteration  1 RMS(Cart)=  0.00000020 RMS(Int)=  0.00000014
 ITry= 1 IFail=0 DXMaxC= 2.19D-02 DCOld= 1.00D+10 DXMaxT= 3.00D-01 DXLimC= 3.00D+00 Rises=F
 Variable       Old X    -DE/DX   Delta X   Delta X   Delta X     New X
                                 (Linear)    (Quad)   (Total)
    R1        2.53052   0.00117   0.00104  -0.00037   0.00067   2.53120
    R2        2.04879   0.00012   0.00015  -0.00002   0.00013   2.04892
    R3        2.05608  -0.00002   0.00006  -0.00018  -0.00012   2.05596
    R4        2.77653   0.00112   0.00007   0.00272   0.00279   2.77931
    R5        2.05305  -0.00011   0.00015  -0.00061  -0.00046   2.05259
    R6        2.33766  -0.00086   0.00105  -0.00322  -0.00216   2.33550
    R7        2.08457   0.00016   0.00033  -0.00028   0.00005   2.08462
    A1        2.12847   0.00020   0.00023   0.00063   0.00086   2.12933
    A2        2.11876   0.00001  -0.00002   0.00008   0.00007   2.11882
    A3        2.03595  -0.00021  -0.00021  -0.00072  -0.00093   2.03502
    A4        2.11104   0.00034   0.00050   0.00027   0.00076   2.11180
    A5        2.12988   0.00027  -0.00018   0.00159   0.00140   2.13128
    A6        2.03833  -0.00046  -0.00040  -0.00109  -0.00151   2.03683
    A7        2.15560   0.00056   0.00044   0.00095   0.00128   2.15688
    A8        2.03103  -0.00057  -0.00052  -0.00238  -0.00300   2.02803
    A9        2.09568   0.00012   0.00002   0.00039   0.00031   2.09599
    D1       -3.06838  -0.00083   0.00082  -0.00421  -0.00340  -3.07177
    D2       -0.02513   0.00092  -0.00010   0.00525   0.00516  -0.01997
    D3        0.07046  -0.00086   0.00085  -0.00511  -0.00426   0.06620
    D4        3.11370   0.00089  -0.00007   0.00436   0.00430   3.11800
    D5        2.79255   0.00402   0.00000   0.00000   0.00000   2.79255
    D6       -0.30425   0.00118   0.00115   0.02677   0.02791  -0.27634
    D7       -0.25566   0.00232   0.00086  -0.00913  -0.00827  -0.26393
    D8        2.93072  -0.00052   0.00201   0.01764   0.01965   2.95037
         Item               Value     Threshold  Converged?
 Maximum Force            0.001167     0.000450     NO 
 RMS     Force            0.000453     0.000300     NO 
 Maximum Displacement     0.021855     0.001800     NO 
 RMS     Displacement     0.006434     0.001200     NO 
 Predicted change in Energy=-1.449911D-05
 Lowest energy point so far.  Saving SCF results.
 GradGradGradGradGradGradGradGradGradGradGradGradGradGradGradGradGradGrad

 Leave Link  103 at Wed May 12 11:58:28 2021, MaxMem=  2147483648 cpu:         0.0
 (Enter /opt/cluster/programs/g09_d.01/g09/l202.exe)
                          Input orientation:                          
 ---------------------------------------------------------------------
 Center     Atomic      Atomic             Coordinates (Angstroms)
 Number     Number       Type             X           Y           Z
 ---------------------------------------------------------------------
      1          6           0        1.761513    0.138017   -0.071576
      2          6           0        0.566290   -0.443422    0.094262
      3          6           0       -0.669488    0.354014    0.101330
      4          8           0       -1.791060   -0.121482   -0.107016
      5          1           0       -0.546301    1.441916    0.236217
      6          1           0        2.676413   -0.439408   -0.143130
      7          1           0        1.860751    1.218978   -0.144674
      8          1           0        0.451332   -1.522212    0.147105
 ---------------------------------------------------------------------
                    Distance matrix (angstroms):
                    1          2          3          4          5
     1  C    0.000000
     2  C    1.339452   0.000000
     3  C    2.446696   1.470749   0.000000
     4  O    3.562215   2.387731   1.235892   0.000000
     5  H    2.668500   2.193744   1.103132   2.027671   0.000000
     6  H    1.084242   2.123438   3.447366   4.478917   3.750889
     7  H    1.087965   2.120447   2.685292   3.890241   2.447178
     8  H    2.126207   1.086184   2.185992   2.656115   3.128781
                    6          7          8
     6  H    0.000000
     7  H    1.848120   0.000000
     8  H    2.491522   3.096082   0.000000
 Stoichiometry    C3H4O
 Framework group  C1[X(C3H4O)]
 Deg. of freedom    18
 Full point group                 C1      NOp   1
 RotChk:  IX=0 Diff= 2.31D-03
 Largest Abelian subgroup         C1      NOp   1
 Largest concise Abelian subgroup C1      NOp   1
                         Standard orientation:                         
 ---------------------------------------------------------------------
 Center     Atomic      Atomic             Coordinates (Angstroms)
 Number     Number       Type             X           Y           Z
 ---------------------------------------------------------------------
      1          6           0        1.759121    0.141074   -0.070516
      2          6           0        0.565089   -0.442688    0.095741
      3          6           0       -0.672413    0.352085    0.101050
      4          8           0       -1.792868   -0.126161   -0.107013
      5          1           0       -0.551633    1.440461    0.234281
      6          1           0        2.675296   -0.434483   -0.140787
      7          1           0        1.856053    1.222131   -0.145268
      8          1           0        0.452441   -1.521640    0.150229
 ---------------------------------------------------------------------
 Rotational constants (GHZ):     45.8055848      4.6256738      4.2430231
 Leave Link  202 at Wed May 12 11:58:28 2021, MaxMem=  2147483648 cpu:         0.0
 (Enter /opt/cluster/programs/g09_d.01/g09/l301.exe)
 Standard basis: 6-31+G (6D, 7F)
 Ernie: Thresh=  0.10000D-02 Tol=  0.10000D-05 Strict=F.
 There are    60 symmetry adapted cartesian basis functions of A   symmetry.
 There are    60 symmetry adapted basis functions of A   symmetry.
    60 basis functions,   120 primitive gaussians,    60 cartesian basis functions
    15 alpha electrons       15 beta electrons
       nuclear repulsion energy       102.5205210094 Hartrees.
 IExCor= 4639 DFT=T Ex+Corr=wB97XD ExCW=0 ScaHFX=  1.000000
 ScaDFX=  1.000000  1.000000  1.000000  1.000000 ScalE2=  1.000000  1.000000
 IRadAn=      0 IRanWt=     -1 IRanGd=            0 ICorTp=0 IEmpDi=121
  HFx wShort=  0.000000 wLong=  0.200000 cFull=  0.222036 cShort=  0.000000 cLong=  0.777964
  DFx wShort=  0.000000 wLong=  0.200000 cFull=  0.000000 cShort=  0.000000 cLong=  1.000000
 NAtoms=    8 NActive=    8 NUniq=    8 SFac= 1.00D+00 NAtFMM=   60 NAOKFM=F Big=F
 Integral buffers will be    131072 words long.
 Raffenetti 2 integral format.
 Two-electron integral symmetry is turned on.
 R6Disp:  Grimme-D2 Dispersion energy=       -0.0018094208 Hartrees.
 Nuclear repulsion after empirical dispersion term =      102.5187115886 Hartrees.
 Leave Link  301 at Wed May 12 11:58:28 2021, MaxMem=  2147483648 cpu:         0.3
 (Enter /opt/cluster/programs/g09_d.01/g09/l302.exe)
 NPDir=0 NMtPBC=     1 NCelOv=     1 NCel=       1 NClECP=     1 NCelD=      1
         NCelK=      1 NCelE2=     1 NClLst=     1 CellRange=     0.0.
 One-electron integrals computed using PRISM.
 NBasis=    60 RedAO= T EigKep=  1.22D-04  NBF=    60
 NBsUse=    60 1.00D-06 EigRej= -1.00D+00 NBFU=    60
 Precomputing XC quadrature grid using
 IXCGrd= 4 IRadAn=           0 IRanWt=          -1 IRanGd=           0 AccXCQ= 0.00D+00.
 Generated NRdTot=       0 NPtTot=           0 NUsed=           0 NTot=          32
 NSgBfM=    60    60    60    60    60 MxSgAt=     8 MxSgA2=     8.
 Leave Link  302 at Wed May 12 11:58:28 2021, MaxMem=  2147483648 cpu:         0.8
 (Enter /opt/cluster/programs/g09_d.01/g09/l303.exe)
 DipDrv:  MaxL=1.
 Leave Link  303 at Wed May 12 11:58:28 2021, MaxMem=  2147483648 cpu:         0.2
 (Enter /opt/cluster/programs/g09_d.01/g09/l401.exe)
 Initial guess from the checkpoint file:  "/home/unibas/boittier/RDKit_G2/L.pdb/SCAN_1_2_3_4_S_17_20.0/17_SCAN_1_2_3_4_F/L.pdb.chk"
 B after Tr=     0.000000    0.000000    0.000000
         Rot=    1.000000   -0.000334   -0.000003    0.000006 Ang=  -0.04 deg.
 Guess basis will be translated and rotated to current coordinates.
 JPrj=2 DoOrth=T DoCkMO=T.
 Generating alternative initial guess.
 ExpMin= 4.38D-02 ExpMax= 5.48D+03 ExpMxC= 8.25D+02 IAcc=2 IRadAn=         4 AccDes= 0.00D+00
 Harris functional with IExCor= 4639 and IRadAn=       4 diagonalized for initial guess.
 HarFok:  IExCor= 4639 AccDes= 0.00D+00 IRadAn=         4 IDoV= 1 UseB2=F ITyADJ=14
 ICtDFT=  3500011 ScaDFX=  1.000000  1.000000  1.000000  1.000000
 FoFCou: FMM=F IPFlag=           0 FMFlag=      100000 FMFlg1=           0
         NFxFlg=           0 DoJE=T BraDBF=F KetDBF=T FulRan=T
         wScrn=  0.000000 ICntrl=     500 IOpCl=  0 I1Cent=   200000004 NGrid=           0
         NMat0=    1 NMatS0=      1 NMatT0=    0 NMatD0=    1 NMtDS0=    0 NMtDT0=    0
 Petite list used in FoFCou.
 Harris En= -183.746592697989    
 Leave Link  401 at Wed May 12 11:58:28 2021, MaxMem=  2147483648 cpu:         1.4
 (Enter /opt/cluster/programs/g09_d.01/g09/l502.exe)
 Closed shell SCF:
 Using DIIS extrapolation, IDIIS=  1040.
 Integral symmetry usage will be decided dynamically.
 Keep R1 ints in memory in canonical form, NReq=4262490.
 IVT=       30290 IEndB=       30290 NGot=  2147483648 MDV=  2144102629
 LenX=  2144102629 LenY=  2144098588
 Requested convergence on RMS density matrix=1.00D-08 within 128 cycles.
 Requested convergence on MAX density matrix=1.00D-06.
 Requested convergence on             energy=1.00D-06.
 No special actions if energy rises.
 FoFCou: FMM=F IPFlag=           0 FMFlag=           0 FMFlg1=           0
         NFxFlg=           0 DoJE=F BraDBF=F KetDBF=F FulRan=T
         wScrn=  0.000000 ICntrl=     600 IOpCl=  0 I1Cent=           0 NGrid=           0
         NMat0=    1 NMatS0=   1830 NMatT0=    0 NMatD0=    1 NMtDS0=    0 NMtDT0=    0
 Symmetry not used in FoFCou.

 Cycle   1  Pass 1  IDiag  1:
 E= -191.794447344940    
 DIIS: error= 4.87D-04 at cycle   1 NSaved=   1.
 NSaved= 1 IEnMin= 1 EnMin= -191.794447344940     IErMin= 1 ErrMin= 4.87D-04
 ErrMax= 4.87D-04  0.00D+00 EMaxC= 1.00D-01 BMatC= 1.54D-05 BMatP= 1.54D-05
 IDIUse=3 WtCom= 9.95D-01 WtEn= 4.87D-03
 Coeff-Com:  0.100D+01
 Coeff-En:   0.100D+01
 Coeff:      0.100D+01
 Gap=     0.616 Goal=   None    Shift=    0.000
 RMSDP=1.84D-04 MaxDP=1.89D-03              OVMax= 1.80D-03

 Cycle   2  Pass 1  IDiag  1:
 E= -191.794477773968     Delta-E=       -0.000030429028 Rises=F Damp=F
 DIIS: error= 1.07D-04 at cycle   2 NSaved=   2.
 NSaved= 2 IEnMin= 2 EnMin= -191.794477773968     IErMin= 2 ErrMin= 1.07D-04
 ErrMax= 1.07D-04  0.00D+00 EMaxC= 1.00D-01 BMatC= 1.26D-06 BMatP= 1.54D-05
 IDIUse=3 WtCom= 9.99D-01 WtEn= 1.07D-03
 Coeff-Com: -0.799D-01 0.108D+01
 Coeff-En:   0.000D+00 0.100D+01
 Coeff:     -0.798D-01 0.108D+01
 Gap=     0.342 Goal=   None    Shift=    0.000
 RMSDP=7.46D-05 MaxDP=1.19D-03 DE=-3.04D-05 OVMax= 1.11D-03

 Cycle   3  Pass 1  IDiag  1:
 E= -191.794479752036     Delta-E=       -0.000001978068 Rises=F Damp=F
 DIIS: error= 1.57D-04 at cycle   3 NSaved=   3.
 NSaved= 3 IEnMin= 3 EnMin= -191.794479752036     IErMin= 2 ErrMin= 1.07D-04
 ErrMax= 1.57D-04  0.00D+00 EMaxC= 1.00D-01 BMatC= 1.73D-06 BMatP= 1.26D-06
 IDIUse=3 WtCom= 4.44D-01 WtEn= 5.56D-01
 Coeff-Com: -0.119D+00 0.645D+00 0.474D+00
 Coeff-En:   0.000D+00 0.000D+00 0.100D+01
 Coeff:     -0.528D-01 0.287D+00 0.766D+00
 Gap=     0.343 Goal=   None    Shift=    0.000
 RMSDP=5.86D-05 MaxDP=8.43D-04 DE=-1.98D-06 OVMax= 6.21D-04

 Cycle   4  Pass 1  IDiag  1:
 E= -191.794480288490     Delta-E=       -0.000000536454 Rises=F Damp=F
 DIIS: error= 1.43D-04 at cycle   4 NSaved=   4.
 NSaved= 4 IEnMin= 4 EnMin= -191.794480288490     IErMin= 2 ErrMin= 1.07D-04
 ErrMax= 1.43D-04  0.00D+00 EMaxC= 1.00D-01 BMatC= 1.50D-06 BMatP= 1.26D-06
 IDIUse=3 WtCom= 4.55D-01 WtEn= 5.45D-01
 Coeff-Com: -0.116D-02-0.147D+00 0.513D+00 0.635D+00
 Coeff-En:   0.000D+00 0.000D+00 0.404D+00 0.596D+00
 Coeff:     -0.529D-03-0.671D-01 0.454D+00 0.614D+00
 Gap=     0.342 Goal=   None    Shift=    0.000
 RMSDP=3.39D-05 MaxDP=5.40D-04 DE=-5.36D-07 OVMax= 3.72D-04

 Cycle   5  Pass 1  IDiag  1:
 E= -191.794481514288     Delta-E=       -0.000001225798 Rises=F Damp=F
 DIIS: error= 2.47D-05 at cycle   5 NSaved=   5.
 NSaved= 5 IEnMin= 5 EnMin= -191.794481514288     IErMin= 5 ErrMin= 2.47D-05
 ErrMax= 2.47D-05  0.00D+00 EMaxC= 1.00D-01 BMatC= 5.15D-08 BMatP= 1.26D-06
 IDIUse=1 WtCom= 1.00D+00 WtEn= 0.00D+00
 Coeff-Com:  0.175D-01-0.150D+00 0.242D-01 0.257D+00 0.852D+00
 Coeff:      0.175D-01-0.150D+00 0.242D-01 0.257D+00 0.852D+00
 Gap=     0.342 Goal=   None    Shift=    0.000
 RMSDP=9.86D-06 MaxDP=8.25D-05 DE=-1.23D-06 OVMax= 2.98D-04

 Cycle   6  Pass 1  IDiag  1:
 E= -191.794481625865     Delta-E=       -0.000000111577 Rises=F Damp=F
 DIIS: error= 1.13D-05 at cycle   6 NSaved=   6.
 NSaved= 6 IEnMin= 6 EnMin= -191.794481625865     IErMin= 6 ErrMin= 1.13D-05
 ErrMax= 1.13D-05  0.00D+00 EMaxC= 1.00D-01 BMatC= 2.65D-09 BMatP= 5.15D-08
 IDIUse=1 WtCom= 1.00D+00 WtEn= 0.00D+00
 Coeff-Com:  0.214D-02 0.230D-01-0.137D+00-0.140D+00 0.869D-01 0.117D+01
 Coeff:      0.214D-02 0.230D-01-0.137D+00-0.140D+00 0.869D-01 0.117D+01
 Gap=     0.342 Goal=   None    Shift=    0.000
 RMSDP=5.62D-06 MaxDP=5.08D-05 DE=-1.12D-07 OVMax= 1.98D-04

 Cycle   7  Pass 1  IDiag  1:
 E= -191.794481647127     Delta-E=       -0.000000021262 Rises=F Damp=F
 DIIS: error= 3.25D-06 at cycle   7 NSaved=   7.
 NSaved= 7 IEnMin= 7 EnMin= -191.794481647127     IErMin= 7 ErrMin= 3.25D-06
 ErrMax= 3.25D-06  0.00D+00 EMaxC= 1.00D-01 BMatC= 6.51D-10 BMatP= 2.65D-09
 IDIUse=1 WtCom= 1.00D+00 WtEn= 0.00D+00
 Coeff-Com: -0.201D-02 0.341D-01-0.619D-01-0.100D+00-0.976D-01 0.490D+00
 Coeff-Com:  0.737D+00
 Coeff:     -0.201D-02 0.341D-01-0.619D-01-0.100D+00-0.976D-01 0.490D+00
 Coeff:      0.737D+00
 Gap=     0.342 Goal=   None    Shift=    0.000
 RMSDP=1.60D-06 MaxDP=1.43D-05 DE=-2.13D-08 OVMax= 5.48D-05

 Cycle   8  Pass 1  IDiag  1:
 E= -191.794481649407     Delta-E=       -0.000000002280 Rises=F Damp=F
 DIIS: error= 1.05D-06 at cycle   8 NSaved=   8.
 NSaved= 8 IEnMin= 8 EnMin= -191.794481649407     IErMin= 8 ErrMin= 1.05D-06
 ErrMax= 1.05D-06  0.00D+00 EMaxC= 1.00D-01 BMatC= 4.84D-11 BMatP= 6.51D-10
 IDIUse=1 WtCom= 1.00D+00 WtEn= 0.00D+00
 Coeff-Com: -0.376D-03-0.402D-02 0.259D-01 0.255D-01-0.156D-01-0.231D+00
 Coeff-Com:  0.232D-01 0.118D+01
 Coeff:     -0.376D-03-0.402D-02 0.259D-01 0.255D-01-0.156D-01-0.231D+00
 Coeff:      0.232D-01 0.118D+01
 Gap=     0.342 Goal=   None    Shift=    0.000
 RMSDP=7.44D-07 MaxDP=6.68D-06 DE=-2.28D-09 OVMax= 2.33D-05

 Cycle   9  Pass 1  IDiag  1:
 E= -191.794481649695     Delta-E=       -0.000000000287 Rises=F Damp=F
 DIIS: error= 2.76D-07 at cycle   9 NSaved=   9.
 NSaved= 9 IEnMin= 9 EnMin= -191.794481649695     IErMin= 9 ErrMin= 2.76D-07
 ErrMax= 2.76D-07  0.00D+00 EMaxC= 1.00D-01 BMatC= 1.19D-12 BMatP= 4.84D-11
 IDIUse=1 WtCom= 1.00D+00 WtEn= 0.00D+00
 Coeff-Com:  0.141D-03-0.116D-02-0.198D-03 0.178D-02 0.635D-02 0.806D-02
 Coeff-Com: -0.440D-01-0.149D+00 0.118D+01
 Coeff:      0.141D-03-0.116D-02-0.198D-03 0.178D-02 0.635D-02 0.806D-02
 Coeff:     -0.440D-01-0.149D+00 0.118D+01
 Gap=     0.342 Goal=   None    Shift=    0.000
 RMSDP=9.39D-08 MaxDP=9.42D-07 DE=-2.87D-10 OVMax= 2.02D-06

 Cycle  10  Pass 1  IDiag  1:
 E= -191.794481649700     Delta-E=       -0.000000000005 Rises=F Damp=F
 DIIS: error= 5.17D-08 at cycle  10 NSaved=  10.
 NSaved=10 IEnMin=10 EnMin= -191.794481649700     IErMin=10 ErrMin= 5.17D-08
 ErrMax= 5.17D-08  0.00D+00 EMaxC= 1.00D-01 BMatC= 7.23D-14 BMatP= 1.19D-12
 IDIUse=1 WtCom= 1.00D+00 WtEn= 0.00D+00
 Coeff-Com:  0.288D-04 0.818D-04-0.122D-02-0.107D-02 0.143D-02 0.113D-01
 Coeff-Com: -0.511D-02-0.675D-01 0.958D-01 0.966D+00
 Coeff:      0.288D-04 0.818D-04-0.122D-02-0.107D-02 0.143D-02 0.113D-01
 Coeff:     -0.511D-02-0.675D-01 0.958D-01 0.966D+00
 Gap=     0.342 Goal=   None    Shift=    0.000
 RMSDP=2.60D-08 MaxDP=3.48D-07 DE=-5.46D-12 OVMax= 3.17D-07

 Cycle  11  Pass 1  IDiag  1:
 E= -191.794481649702     Delta-E=       -0.000000000002 Rises=F Damp=F
 DIIS: error= 1.13D-08 at cycle  11 NSaved=  11.
 NSaved=11 IEnMin=11 EnMin= -191.794481649702     IErMin=11 ErrMin= 1.13D-08
 ErrMax= 1.13D-08  0.00D+00 EMaxC= 1.00D-01 BMatC= 7.31D-15 BMatP= 7.23D-14
 IDIUse=1 WtCom= 1.00D+00 WtEn= 0.00D+00
 Coeff-Com: -0.440D-05 0.109D-03-0.247D-03-0.369D-03-0.197D-03 0.177D-02
 Coeff-Com:  0.242D-02-0.218D-02-0.767D-01 0.211D+00 0.864D+00
 Coeff:     -0.440D-05 0.109D-03-0.247D-03-0.369D-03-0.197D-03 0.177D-02
 Coeff:      0.242D-02-0.218D-02-0.767D-01 0.211D+00 0.864D+00
 Gap=     0.342 Goal=   None    Shift=    0.000
 RMSDP=8.94D-09 MaxDP=1.14D-07 DE=-1.93D-12 OVMax= 7.97D-08

 SCF Done:  E(RwB97XD) =  -191.794481650     A.U. after   11 cycles
            NFock= 11  Conv=0.89D-08     -V/T= 2.0058
 KE= 1.906935695844D+02 PE=-6.524427652296D+02 EE= 1.674360024069D+02
 Leave Link  502 at Wed May 12 11:58:29 2021, MaxMem=  2147483648 cpu:         7.4
 (Enter /opt/cluster/programs/g09_d.01/g09/l701.exe)
 Compute integral first derivatives.
 ... and contract with generalized density number  0.
 R6Disp: Adding Grimme-D2 dispersion energy 1st derivatives to the gradient.
 Leave Link  701 at Wed May 12 11:58:29 2021, MaxMem=  2147483648 cpu:         0.5
 (Enter /opt/cluster/programs/g09_d.01/g09/l702.exe)
 L702 exits ... SP integral derivatives will be done elsewhere.
 Leave Link  702 at Wed May 12 11:58:29 2021, MaxMem=  2147483648 cpu:         0.2
 (Enter /opt/cluster/programs/g09_d.01/g09/l703.exe)
 Compute integral first derivatives, UseDBF=F ICtDFT=           0.
 Integral derivatives from FoFJK, PRISM(SPDF).
 Calling FoFJK, ICntrl=      2127 FMM=F ISym2X=0 I1Cent= 0 IOpClX= 0 NMat=1 NMatS=1 NMatT=0.
 FoFJK:  IHMeth= 1 ICntrl=    2127 DoSepK=T KAlg= 0 I1Cent=   0 FoldK=F
 IRaf=         1 NMat=   1 IRICut=       1 DoRegI=T DoRafI=F ISym2E= 0.
 FoFCou: FMM=F IPFlag=           0 FMFlag=      100000 FMFlg1=         800
         NFxFlg=           0 DoJE=F BraDBF=F KetDBF=F FulRan=T
         wScrn=  0.000000 ICntrl=    2527 IOpCl=  0 I1Cent=           0 NGrid=           0
         NMat0=    1 NMatS0=      1 NMatT0=    0 NMatD0=    1 NMtDS0=    0 NMtDT0=    0
 Symmetry not used in FoFCou.
 Leave Link  703 at Wed May 12 11:58:29 2021, MaxMem=  2147483648 cpu:         2.4
 (Enter /opt/cluster/programs/g09_d.01/g09/l716.exe)
 Dipole        = 1.43727942D+00 3.41472484D-01 1.30463837D-01
 ***** Axes restored to original set *****
 -------------------------------------------------------------------
 Center     Atomic                   Forces (Hartrees/Bohr)
 Number     Number              X              Y              Z
 -------------------------------------------------------------------
      1        6           0.000534317    0.000491764    0.002964247
      2        6          -0.000544447   -0.001017878   -0.001758971
      3        6           0.000840395    0.001279235   -0.006040873
      4        8          -0.001017916   -0.000894704    0.004133831
      5        1           0.000149549    0.000167089    0.000876979
      6        1           0.000077633    0.000011106   -0.000100560
      7        1           0.000044581    0.000041291    0.000008966
      8        1          -0.000084112   -0.000077903   -0.000083619
 -------------------------------------------------------------------
 Cartesian Forces:  Max     0.006040873 RMS     0.001736378
 Leave Link  716 at Wed May 12 11:58:29 2021, MaxMem=  2147483648 cpu:         0.2
 (Enter /opt/cluster/programs/g09_d.01/g09/l103.exe)

 GradGradGradGradGradGradGradGradGradGradGradGradGradGradGradGradGradGrad
 Berny optimization.
 Using GEDIIS/GDIIS optimizer.
 FormGI is forming the generalized inverse of G from B-inverse, IUseBI=4.
 Internal  Forces:  Max     0.004904240 RMS     0.001317316
 Search for a local minimum.
 Step number   3 out of a maximum of   34
 All quantities printed in internal units (Hartrees-Bohrs-Radians)
 RMS Force = .34532D-03 SwitMx=.10000D-02 MixMth= 2
 Mixed Optimization -- En-DIIS/RFO-DIIS
 Swapping is turned off.
 Update second derivatives using D2CorX and points    1    2    3
 DE=  8.49D-06 DEPred=-1.45D-05 R=-5.86D-01
 Trust test=-5.86D-01 RLast= 3.66D-02 DXMaxT set to 1.50D-01
 ITU= -1  1  0
     Eigenvalues ---    0.01644   0.02799   0.02813   0.05176   0.15153
     Eigenvalues ---    0.15999   0.16008   0.16034   0.21525   0.22770
     Eigenvalues ---    0.30511   0.33434   0.35007   0.35224   0.35471
     Eigenvalues ---    0.61653   0.640981000.000001000.000001000.00000
     Eigenvalues --- 1000.000001000.000001000.000001000.00000
 En-DIIS/RFO-DIIS IScMMF=        0 using points:     3    2
 RFO step:  Lambda=-1.03041288D-05.
 NNeg= 0 NP= 2 Switch=  2.50D-03 Rises=F DC= -8.49D-06 SmlDif=  1.00D-05
 RMS Error=  0.1226039323D-02 NUsed= 2 EDIIS=F
 DidBck=T Rises=F RFO-DIIS coefs:    0.38439    0.61561
 Iteration  1 RMS(Cart)=  0.00441103 RMS(Int)=  0.00003330
 Iteration  2 RMS(Cart)=  0.00003371 RMS(Int)=  0.00000433
 Iteration  3 RMS(Cart)=  0.00000000 RMS(Int)=  0.00000433
 Iteration  1 RMS(Cart)=  0.00000091 RMS(Int)=  0.00000068
 ITry= 1 IFail=0 DXMaxC= 1.50D-02 DCOld= 1.00D+10 DXMaxT= 1.50D-01 DXLimC= 3.00D+00 Rises=F
 Variable       Old X    -DE/DX   Delta X   Delta X   Delta X     New X
                                 (Linear)    (Quad)   (Total)
    R1        2.53120   0.00047  -0.00041   0.00096   0.00054   2.53174
    R2        2.04892   0.00006  -0.00008   0.00018   0.00010   2.04903
    R3        2.05596   0.00005   0.00007  -0.00005   0.00003   2.05598
    R4        2.77931   0.00031  -0.00172   0.00264   0.00093   2.78024
    R5        2.05259   0.00008   0.00029  -0.00030  -0.00001   2.05258
    R6        2.33550   0.00057   0.00133  -0.00149  -0.00016   2.33534
    R7        2.08462   0.00028  -0.00003   0.00036   0.00033   2.08495
    A1        2.12933   0.00007  -0.00053   0.00091   0.00037   2.12971
    A2        2.11882   0.00000  -0.00004   0.00005   0.00001   2.11883
    A3        2.03502  -0.00007   0.00057  -0.00096  -0.00038   2.03464
    A4        2.11180  -0.00001  -0.00047   0.00049   0.00002   2.11182
    A5        2.13128   0.00021  -0.00086   0.00106   0.00020   2.13148
    A6        2.03683  -0.00009   0.00093  -0.00164  -0.00071   2.03612
    A7        2.15688   0.00035  -0.00079   0.00186   0.00108   2.15796
    A8        2.02803  -0.00020   0.00185  -0.00264  -0.00078   2.02725
    A9        2.09599   0.00016  -0.00019   0.00097   0.00079   2.09678
    D1       -3.07177  -0.00067   0.00209   0.00238   0.00448  -3.06730
    D2       -0.01997   0.00084  -0.00318   0.00120  -0.00198  -0.02195
    D3        0.06620  -0.00072   0.00262   0.00108   0.00371   0.06991
    D4        3.11800   0.00079  -0.00265  -0.00010  -0.00275   3.11525
    D5        2.79255   0.00490   0.00000   0.00000   0.00000   2.79255
    D6       -0.27634  -0.00008  -0.01718  -0.00298  -0.02016  -0.29650
    D7       -0.26393   0.00346   0.00509   0.00100   0.00608  -0.25785
    D8        2.95037  -0.00152  -0.01209  -0.00198  -0.01408   2.93629
         Item               Value     Threshold  Converged?
 Maximum Force            0.001025     0.000450     NO 
 RMS     Force            0.000345     0.000300     NO 
 Maximum Displacement     0.014991     0.001800     NO 
 RMS     Displacement     0.004416     0.001200     NO 
 Predicted change in Energy=-1.802836D-05
 GradGradGradGradGradGradGradGradGradGradGradGradGradGradGradGradGradGrad

 Leave Link  103 at Wed May 12 11:58:29 2021, MaxMem=  2147483648 cpu:         0.0
 (Enter /opt/cluster/programs/g09_d.01/g09/l202.exe)
                          Input orientation:                          
 ---------------------------------------------------------------------
 Center     Atomic      Atomic             Coordinates (Angstroms)
 Number     Number       Type             X           Y           Z
 ---------------------------------------------------------------------
      1          6           0        1.762161    0.137894   -0.072091
      2          6           0        0.566620   -0.442900    0.096013
[...]
 Coeff:      0.430D-01 0.105D+01
 Gap=     0.342 Goal=   None    Shift=    0.000
 RMSDP=5.37D-08 MaxDP=5.67D-07 DE=-2.46D-11 OVMax= 1.54D-06

 Cycle   9  Pass 1  IDiag  1:
 E= -191.794499543802     Delta-E=       -0.000000000002 Rises=F Damp=F
 DIIS: error= 2.88D-08 at cycle   9 NSaved=   9.
 NSaved= 9 IEnMin= 9 EnMin= -191.794499543802     IErMin= 9 ErrMin= 2.88D-08
 ErrMax= 2.88D-08  0.00D+00 EMaxC= 1.00D-01 BMatC= 4.50D-14 BMatP= 2.39D-13
 IDIUse=1 WtCom= 1.00D+00 WtEn= 0.00D+00
 Coeff-Com: -0.202D-04-0.170D-02 0.155D-03 0.109D-01 0.342D-01-0.210D-01
 Coeff-Com: -0.223D+00 0.313D+00 0.888D+00
 Coeff:     -0.202D-04-0.170D-02 0.155D-03 0.109D-01 0.342D-01-0.210D-01
 Coeff:     -0.223D+00 0.313D+00 0.888D+00
 Gap=     0.342 Goal=   None    Shift=    0.000
 RMSDP=1.82D-08 MaxDP=2.24D-07 DE=-1.59D-12 OVMax= 5.18D-07

 Cycle  10  Pass 1  IDiag  1:
 E= -191.794499543801     Delta-E=        0.000000000001 Rises=F Damp=F
 DIIS: error= 7.04D-09 at cycle  10 NSaved=  10.
 NSaved=10 IEnMin= 9 EnMin= -191.794499543802     IErMin=10 ErrMin= 7.04D-09
 ErrMax= 7.04D-09  0.00D+00 EMaxC= 1.00D-01 BMatC= 1.45D-15 BMatP= 4.50D-14
 IDIUse=1 WtCom= 1.00D+00 WtEn= 0.00D+00
 Coeff-Com:  0.497D-04-0.270D-04-0.396D-03-0.278D-02-0.146D-02 0.848D-02
 Coeff-Com:  0.364D-01-0.136D+00-0.150D+00 0.125D+01
 Coeff:      0.497D-04-0.270D-04-0.396D-03-0.278D-02-0.146D-02 0.848D-02
 Coeff:      0.364D-01-0.136D+00-0.150D+00 0.125D+01
 Gap=     0.342 Goal=   None    Shift=    0.000
 RMSDP=6.08D-09 MaxDP=1.25D-07 DE= 9.09D-13 OVMax= 7.58D-08

 SCF Done:  E(RwB97XD) =  -191.794499544     A.U. after   10 cycles
            NFock= 10  Conv=0.61D-08     -V/T= 2.0058
 KE= 1.906893661860D+02 PE=-6.523808974485D+02 EE= 1.674075231809D+02
 Leave Link  502 at Wed May 12 11:58:34 2021, MaxMem=  2147483648 cpu:         6.8
 (Enter /opt/cluster/programs/g09_d.01/g09/l701.exe)
 Compute integral first derivatives.
 ... and contract with generalized density number  0.
 R6Disp: Adding Grimme-D2 dispersion energy 1st derivatives to the gradient.
 Leave Link  701 at Wed May 12 11:58:34 2021, MaxMem=  2147483648 cpu:         0.6
 (Enter /opt/cluster/programs/g09_d.01/g09/l702.exe)
 L702 exits ... SP integral derivatives will be done elsewhere.
 Leave Link  702 at Wed May 12 11:58:34 2021, MaxMem=  2147483648 cpu:         0.2
 (Enter /opt/cluster/programs/g09_d.01/g09/l703.exe)
 Compute integral first derivatives, UseDBF=F ICtDFT=           0.
 Integral derivatives from FoFJK, PRISM(SPDF).
 Calling FoFJK, ICntrl=      2127 FMM=F ISym2X=0 I1Cent= 0 IOpClX= 0 NMat=1 NMatS=1 NMatT=0.
 FoFJK:  IHMeth= 1 ICntrl=    2127 DoSepK=T KAlg= 0 I1Cent=   0 FoldK=F
 IRaf=         1 NMat=   1 IRICut=       1 DoRegI=T DoRafI=F ISym2E= 0.
 FoFCou: FMM=F IPFlag=           0 FMFlag=      100000 FMFlg1=         800
         NFxFlg=           0 DoJE=F BraDBF=F KetDBF=F FulRan=T
         wScrn=  0.000000 ICntrl=    2527 IOpCl=  0 I1Cent=           0 NGrid=           0
         NMat0=    1 NMatS0=      1 NMatT0=    0 NMatD0=    1 NMtDS0=    0 NMtDT0=    0
 Symmetry not used in FoFCou.
 Leave Link  703 at Wed May 12 11:58:35 2021, MaxMem=  2147483648 cpu:         2.4
 (Enter /opt/cluster/programs/g09_d.01/g09/l716.exe)
 Dipole        = 1.43780008D+00 3.41432633D-01 1.30740358D-01
 ***** Axes restored to original set *****
 -------------------------------------------------------------------
 Center     Atomic                   Forces (Hartrees/Bohr)
 Number     Number              X              Y              Z
 -------------------------------------------------------------------
      1        6           0.000249715    0.000385618    0.003175239
      2        6          -0.000545316   -0.000875481   -0.002994821
      3        6           0.000676861    0.001066181   -0.003629734
      4        8          -0.000387276   -0.000583458    0.003490867
      5        1           0.000005912    0.000009623   -0.000027063
      6        1           0.000000025   -0.000004601   -0.000006102
      7        1           0.000001737   -0.000005739   -0.000037044
      8        1          -0.000001659    0.000007856    0.000028657
 -------------------------------------------------------------------
 Cartesian Forces:  Max     0.003629734 RMS     0.001410904
 Leave Link  716 at Wed May 12 11:58:35 2021, MaxMem=  2147483648 cpu:         0.2
 (Enter /opt/cluster/programs/g09_d.01/g09/l103.exe)

 GradGradGradGradGradGradGradGradGradGradGradGradGradGradGradGradGradGrad
 Berny optimization.
 Using GEDIIS/GDIIS optimizer.
 FormGI is forming the generalized inverse of G from B-inverse, IUseBI=4.
 Internal  Forces:  Max     0.004270833 RMS     0.001108687
 Search for a local minimum.
 Step number   5 out of a maximum of   34
 All quantities printed in internal units (Hartrees-Bohrs-Radians)
 RMS Force = .96404D-05 SwitMx=.10000D-02 MixMth= 2
 Mixed Optimization -- En-DIIS/RFO-DIIS
 Swapping is turned off.
 Update second derivatives using D2CorX and points    1    2    3    4    5
 DE= -3.29D-07 DEPred=-3.44D-07 R= 9.55D-01
 Trust test= 9.55D-01 RLast= 2.21D-03 DXMaxT set to 1.50D-01
 ITU=  0  1 -1  1  0
     Eigenvalues ---    0.01656   0.02816   0.03041   0.05333   0.13572
     Eigenvalues ---    0.15883   0.16003   0.16162   0.21436   0.23650
     Eigenvalues ---    0.32057   0.34081   0.34993   0.35417   0.35555
     Eigenvalues ---    0.62523   0.767171000.000001000.000001000.00000
     Eigenvalues --- 1000.000001000.000001000.000001000.00000
 En-DIIS/RFO-DIIS IScMMF=        0 using points:     5    4    3    2
 RFO step:  Lambda=-9.38947629D-07.
 NNeg= 0 NP= 4 Switch=  2.50D-03 Rises=F DC= -8.49D-06 SmlDif=  1.00D-05
 RMS Error=  0.4631200476D-04 NUsed= 4 EDIIS=F
 DidBck=F Rises=F RFO-DIIS coefs:    0.99115    0.01987   -0.00234   -0.00868
 Iteration  1 RMS(Cart)=  0.00016136 RMS(Int)=  0.00000054
 Iteration  2 RMS(Cart)=  0.00000003 RMS(Int)=  0.00000054
 Iteration  1 RMS(Cart)=  0.00000052 RMS(Int)=  0.00000038
 ITry= 1 IFail=0 DXMaxC= 3.38D-04 DCOld= 1.00D+10 DXMaxT= 1.50D-01 DXLimC= 3.00D+00 Rises=F
 Variable       Old X    -DE/DX   Delta X   Delta X   Delta X     New X
                                 (Linear)    (Quad)   (Total)
    R1        2.53190   0.00000   0.00001  -0.00001   0.00000   2.53190
    R2        2.04909   0.00000   0.00000   0.00000   0.00000   2.04909
    R3        2.05610   0.00000   0.00000   0.00001   0.00001   2.05611
    R4        2.78026   0.00001   0.00003   0.00001   0.00005   2.78031
    R5        2.05286  -0.00001  -0.00001   0.00000  -0.00001   2.05286
    R6        2.33593   0.00000  -0.00003   0.00003   0.00000   2.33593
    R7        2.08544   0.00000   0.00000   0.00002   0.00002   2.08546
    A1        2.12983   0.00001   0.00001   0.00006   0.00007   2.12989
    A2        2.11877  -0.00001   0.00000  -0.00004  -0.00004   2.11874
    A3        2.03458   0.00000  -0.00001  -0.00002  -0.00003   2.03455
    A4        2.11152   0.00001   0.00001  -0.00014  -0.00013   2.11138
    A5        2.13158   0.00015   0.00001   0.00003   0.00005   2.13163
    A6        2.03628  -0.00003  -0.00002   0.00010   0.00008   2.03636
    A7        2.15784   0.00007   0.00002   0.00005   0.00007   2.15792
    A8        2.02669   0.00004  -0.00003  -0.00005  -0.00008   2.02661
    A9        2.09744   0.00005   0.00001  -0.00001   0.00000   2.09744
    D1       -3.06786  -0.00085   0.00002   0.00034   0.00036  -3.06750
    D2       -0.02306   0.00087   0.00003   0.00022   0.00025  -0.02281
    D3        0.07063  -0.00087   0.00000  -0.00027  -0.00027   0.07036
    D4        3.11543   0.00085   0.00001  -0.00039  -0.00039   3.11504
    D5        2.79255   0.00427   0.00000   0.00000   0.00000   2.79255
    D6       -0.29613   0.00082   0.00002   0.00007   0.00008  -0.29605
    D7       -0.25734   0.00264  -0.00001   0.00012   0.00011  -0.25723
    D8        2.93717  -0.00081   0.00001   0.00019   0.00019   2.93736
         Item               Value     Threshold  Converged?
 Maximum Force            0.000025     0.000450     YES
 RMS     Force            0.000010     0.000300     YES
 Maximum Displacement     0.000338     0.001800     YES
 RMS     Displacement     0.000162     0.001200     YES
 Predicted change in Energy=-9.464316D-09
 Optimization completed.
    -- Stationary point found.
                           ----------------------------
                           !   Optimized Parameters   !
                           ! (Angstroms and Degrees)  !
 --------------------------                            --------------------------
 ! Name  Definition              Value          Derivative Info.                !
 --------------------------------------------------------------------------------
 ! R1    R(1,2)                  1.3398         -DE/DX =    0.0                 !
 ! R2    R(1,6)                  1.0843         -DE/DX =    0.0                 !
 ! R3    R(1,7)                  1.088          -DE/DX =    0.0                 !
 ! R4    R(2,3)                  1.4713         -DE/DX =    0.0                 !
 ! R5    R(2,8)                  1.0863         -DE/DX =    0.0                 !
 ! R6    R(3,4)                  1.2361         -DE/DX =    0.0                 !
 ! R7    R(3,5)                  1.1036         -DE/DX =    0.0                 !
 ! A1    A(2,1,6)              122.0301         -DE/DX =    0.0                 !
 ! A2    A(2,1,7)              121.3968         -DE/DX =    0.0                 !
 ! A3    A(6,1,7)              116.5729         -DE/DX =    0.0                 !
 ! A4    A(1,2,3)              120.981          -DE/DX =    0.0                 !
 ! A5    A(1,2,8)              122.1306         -DE/DX =    0.0002              !
 ! A6    A(3,2,8)              116.6703         -DE/DX =    0.0                 !
 ! A7    A(2,3,4)              123.6353         -DE/DX =    0.0001              !
 ! A8    A(2,3,5)              116.1207         -DE/DX =    0.0                 !
 ! A9    A(4,3,5)              120.1746         -DE/DX =    0.0                 !
 ! D1    D(6,1,2,3)           -175.7755         -DE/DX =   -0.0008              !
 ! D2    D(6,1,2,8)             -1.3211         -DE/DX =    0.0009              !
 ! D3    D(7,1,2,3)              4.0466         -DE/DX =   -0.0009              !
 ! D4    D(7,1,2,8)            178.501          -DE/DX =    0.0008              !
 ! D5    D(1,2,3,4)            160.0012         -DE/DX =    0.0043              !
 ! D6    D(1,2,3,5)            -16.9671         -DE/DX =    0.0008              !
 ! D7    D(8,2,3,4)            -14.7442         -DE/DX =    0.0026              !
 ! D8    D(8,2,3,5)            168.2875         -DE/DX =   -0.0008              !
 --------------------------------------------------------------------------------
 Lowest energy point so far.  Saving SCF results.
 GradGradGradGradGradGradGradGradGradGradGradGradGradGradGradGradGradGrad

 Largest change from initial coordinates is atom    7       0.006 Angstoms.
 Leave Link  103 at Wed May 12 11:58:35 2021, MaxMem=  2147483648 cpu:         0.0
 (Enter /opt/cluster/programs/g09_d.01/g09/l202.exe)
                          Input orientation:                          
 ---------------------------------------------------------------------
 Center     Atomic      Atomic             Coordinates (Angstroms)
 Number     Number       Type             X           Y           Z
 ---------------------------------------------------------------------
      1          6           0        1.762019    0.137924   -0.072323
      2          6           0        0.566526   -0.443084    0.096079
      3          6           0       -0.669799    0.354461    0.096414
      4          8           0       -1.791753   -0.121593   -0.109960
      5          1           0       -0.546882    1.441220    0.243749
      6          1           0        2.677201   -0.439373   -0.142652
      7          1           0        1.861281    1.218753   -0.148401
      8          1           0        0.450857   -1.521909    0.149611
 ---------------------------------------------------------------------
                    Distance matrix (angstroms):
                    1          2          3          4          5
     1  C    0.000000
     2  C    1.339826   0.000000
     3  C    2.447264   1.471251   0.000000
     4  O    3.563434   2.388993   1.236121   0.000000
     5  H    2.670113   2.193647   1.103567   2.029087   0.000000
     6  H    1.084332   2.124137   3.448150   4.480357   3.752419
     7  H    1.088040   2.120817   2.685760   3.891357   2.450005
     8  H    2.126840   1.086328   2.186198   2.656607   3.128015
                    6          7          8
     6  H    0.000000
     7  H    1.848010   0.000000
     8  H    2.492772   3.096666   0.000000
 Stoichiometry    C3H4O
 Framework group  C1[X(C3H4O)]
 Deg. of freedom    18
 Full point group                 C1      NOp   1
 RotChk:  IX=0 Diff= 2.27D-16
 Largest Abelian subgroup         C1      NOp   1
 Largest concise Abelian subgroup C1      NOp   1
                         Standard orientation:                         
 ---------------------------------------------------------------------
 Center     Atomic      Atomic             Coordinates (Angstroms)
 Number     Number       Type             X           Y           Z
 ---------------------------------------------------------------------
      1          6           0        1.759657    0.140975   -0.071275
      2          6           0        0.565496   -0.442563    0.097830
      3          6           0       -0.672547    0.352314    0.098494
      4          8           0       -1.793563   -0.126217   -0.107240
      5          1           0       -0.551908    1.439377    0.245464
      6          1           0        2.676050   -0.434367   -0.141852
      7          1           0        1.856553    1.221993   -0.147706
      8          1           0        0.452177   -1.521619    0.151721
 ---------------------------------------------------------------------
 Rotational constants (GHZ):     45.7874039      4.6221313      4.2404196
 Leave Link  202 at Wed May 12 11:58:35 2021, MaxMem=  2147483648 cpu:         0.0
 (Enter /opt/cluster/programs/g09_d.01/g09/l601.exe)
 Copying SCF densities to generalized density rwf, IOpCl= 0 IROHF=0.

 **********************************************************************

            Population analysis using the SCF density.

 **********************************************************************

 Orbital symmetries:
       Occupied  (A) (A) (A) (A) (A) (A) (A) (A) (A) (A) (A) (A)
                 (A) (A) (A)
       Virtual   (A) (A) (A) (A) (A) (A) (A) (A) (A) (A) (A) (A)
                 (A) (A) (A) (A) (A) (A) (A) (A) (A) (A) (A) (A)
                 (A) (A) (A) (A) (A) (A) (A) (A) (A) (A) (A) (A)
                 (A) (A) (A) (A) (A) (A) (A) (A) (A)
 The electronic state is 1-A.
 Alpha  occ. eigenvalues --  -19.28895 -10.40657 -10.33909 -10.33291  -1.17226
 Alpha  occ. eigenvalues --   -0.92047  -0.75970  -0.68235  -0.58464  -0.57581
 Alpha  occ. eigenvalues --   -0.51689  -0.49654  -0.48677  -0.38192  -0.35375
 Alpha virt. eigenvalues --   -0.01144   0.06958   0.08126   0.08704   0.09222
 Alpha virt. eigenvalues --    0.11825   0.12644   0.12742   0.14822   0.15596
 Alpha virt. eigenvalues --    0.17659   0.18523   0.20187   0.22291   0.26326
 Alpha virt. eigenvalues --    0.28575   0.29006   0.31610   0.33507   0.35967
 Alpha virt. eigenvalues --    0.36157   0.38380   0.43711   0.47190   0.49529
 Alpha virt. eigenvalues --    0.70788   0.71762   0.75941   0.78335   0.80346
 Alpha virt. eigenvalues --    0.86002   0.88083   0.97654   1.02049   1.07762
 Alpha virt. eigenvalues --    1.09677   1.12785   1.21004   1.22605   1.29597
 Alpha virt. eigenvalues --    1.32543   1.37106   1.39853   1.43792   1.91366
          Condensed to atoms (all electrons):
               1          2          3          4          5          6
     1  C    5.668277  -0.285074   0.210211   0.049614   0.103476   0.353578
     2  C   -0.285074   6.354296   0.037298  -0.203008  -0.236828  -0.006655
     3  C    0.210211   0.037298   5.026508   0.303970   0.399289   0.005291
     4  O    0.049614  -0.203008   0.303970   8.340361  -0.057603  -0.000557
     5  H    0.103476  -0.236828   0.399289  -0.057603   0.608301   0.000108
     6  H    0.353578  -0.006655   0.005291  -0.000557   0.000108   0.461656
     7  H    0.383201  -0.053349   0.009946   0.000726   0.001046  -0.022594
     8  H   -0.017390   0.351828  -0.008936  -0.005729   0.001474  -0.002393
               7          8
     1  C    0.383201  -0.017390
     2  C   -0.053349   0.351828
     3  C    0.009946  -0.008936
     4  O    0.000726  -0.005729
     5  H    0.001046   0.001474
     6  H   -0.022594  -0.002393
     7  H    0.473474   0.002325
     8  H    0.002325   0.440598
 Mulliken charges:
               1
     1  C   -0.465893
     2  C    0.041492
     3  C    0.016424
     4  O   -0.427774
     5  H    0.180736
     6  H    0.211565
     7  H    0.205226
     8  H    0.238223
 Sum of Mulliken charges =   0.00000
 Mulliken charges with hydrogens summed into heavy atoms:
               1
     1  C   -0.049102
     2  C    0.279716
     3  C    0.197160
     4  O   -0.427774
 Electronic spatial extent (au):  <R**2>=            301.0631
 Charge=              0.0000 electrons
 Dipole moment (field-independent basis, Debye):
    X=              3.6545    Y=              0.8678    Z=              0.3323  Tot=              3.7708
 Quadrupole moment (field-independent basis, Debye-Ang):
   XX=            -28.1174   YY=            -21.6566   ZZ=            -25.3683
   XY=             -1.1949   XZ=             -1.1354   YZ=             -0.1776
 Traceless Quadrupole moment (field-independent basis, Debye-Ang):
   XX=             -3.0700   YY=              3.3908   ZZ=             -0.3208
   XY=             -1.1949   XZ=             -1.1354   YZ=             -0.1776
 Octapole moment (field-independent basis, Debye-Ang**2):
  XXX=             17.9771  YYY=              0.1089  ZZZ=             -0.4251  XYY=              0.2445
  XXY=              1.0636  XXZ=             -0.0503  XZZ=             -4.2742  YZZ=              0.2044
  YYZ=              0.2635  XYZ=             -0.1089
 Hexadecapole moment (field-independent basis, Debye-Ang**3):
 XXXX=           -309.4605 YYYY=            -54.5351 ZZZZ=            -29.1231 XXXY=             -3.9754
 XXXZ=             -4.4920 YYYX=             -0.2064 YYYZ=             -0.4214 ZZZX=              0.2055
 ZZZY=              0.0017 XXYY=            -58.3280 XXZZ=            -58.1385 YYZZ=            -15.5775
 XXYZ=             -0.2364 YYXZ=             -0.4866 ZZXY=              0.2498
 N-N= 1.024895085378D+02 E-N=-6.523808973128D+02  KE= 1.906893661860D+02
 No NMR shielding tensors so no spin-rotation constants.
 Leave Link  601 at Wed May 12 11:58:35 2021, MaxMem=  2147483648 cpu:         0.6
 (Enter /opt/cluster/programs/g09_d.01/g09/l9999.exe)
 1\1\GINC-NODE05\FOpt\RwB97XD\6-31+G\C3H4O1\BOITTIER\12-May-2021\0\\#p 
 wB97XD/6-31+G Opt=ModRedun\\L.pdb\\0,1\C,1.7620190508,0.1379244635,-0.
 0723225136\C,0.5665262006,-0.4430841631,0.096079295\C,-0.6697993856,0.
 3544608482,0.0964140867\O,-1.7917526117,-0.1215926454,-0.1099602447\H,
 -0.5468823642,1.4412197893,0.2437490848\H,2.6772013586,-0.4393725737,-
 0.1426522595\H,1.8612811859,1.2187533118,-0.1484005081\H,0.4508565657,
 -1.5219090305,0.1496110593\\Version=ES64L-G09RevD.01\State=1-A\HF=-191
 .7944995\RMSD=6.076e-09\RMSF=1.411e-03\Dipole=1.4384741,0.3382935,0.13
 1484\Quadrupole=-2.2855082,2.5248616,-0.2393534,-0.8777251,-0.8456074,
 -0.1297963\PG=C01 [X(C3H4O1)]\\@


 Just remember, when you're over the hill, you begin to pick up speed.
 -- Charles Schulz
 Job cpu time:       0 days  0 hours  1 minutes 13.7 seconds.
 File lengths (MBytes):  RWF=      5 Int=      0 D2E=      0 Chk=      2 Scr=      1
 Normal termination of Gaussian 09 at Wed May 12 11:58:35 2021.
