L.pdb                                                                   
FOpt      RwB97XD                                                     6-31+G              
Number of atoms                            I                8
Info1-9                                    I   N=           9
          19          19           0           0           0         110
           2          18        -802
Charge                                     I                0
Multiplicity                               I                1
Number of electrons                        I               30
Number of alpha electrons                  I               15
Number of beta electrons                   I               15
Number of basis functions                  I               60
Number of independent functions            I               60
Number of point charges in /Mol/           I                0
Number of translation vectors              I                0
Atomic numbers                             I   N=           8
           6           6           6           8           1           1
           1           1
Nuclear charges                            R   N=           8
  6.00000000E+00  6.00000000E+00  6.00000000E+00  8.00000000E+00  1.00000000E+00
  1.00000000E+00  1.00000000E+00  1.00000000E+00
Current cartesian coordinates              R   N=          24
  3.32526951E+00  2.66403347E-01 -1.34690679E-01  1.06863203E+00 -8.36322675E-01
  1.84871852E-01 -1.27092947E+00  6.65776796E-01  1.86126609E-01 -3.38934358E+00
 -2.38515902E-01 -2.02654045E-01 -1.04295489E+00  2.72002923E+00  4.63859972E-01
  5.05700250E+00 -8.20835413E-01 -2.68062158E-01  3.50837739E+00  2.30923250E+00
 -2.79123320E-01  8.54491227E-01 -2.87544391E+00  2.86711173E-01
Force Field                                I                0
Int Atom Types                             I   N=           8
           0           0           0           0           0           0
           0           0
MM charges                                 R   N=           8
  0.00000000E+00  0.00000000E+00  0.00000000E+00  0.00000000E+00  0.00000000E+00
  0.00000000E+00  0.00000000E+00  0.00000000E+00
Integer atomic weights                     I   N=           8
          12          12          12          16           1           1
           1           1
Real atomic weights                        R   N=           8
  1.20000000E+01  1.20000000E+01  1.20000000E+01  1.59949146E+01  1.00782504E+00
  1.00782504E+00  1.00782504E+00  1.00782504E+00
Atom fragment info                         I   N=           8
           0           0           0           0           0           0
           0           0
Atom residue num                           I   N=           8
           0           0           0           0           0           0
           0           0
Nuclear spins                              I   N=           8
           0           0           0           0           1           1
           1           1
Nuclear ZEff                               R   N=           8
 -3.60000000E+00 -3.60000000E+00 -3.60000000E+00 -5.60000000E+00 -1.00000000E+00
 -1.00000000E+00 -1.00000000E+00 -1.00000000E+00
Nuclear ZNuc                               R   N=           8
  6.00000000E+00  6.00000000E+00  6.00000000E+00  8.00000000E+00  1.00000000E+00
  1.00000000E+00  1.00000000E+00  1.00000000E+00
Nuclear QMom                               R   N=           8
  0.00000000E+00  0.00000000E+00  0.00000000E+00  0.00000000E+00  0.00000000E+00
  0.00000000E+00  0.00000000E+00  0.00000000E+00
Nuclear GFac                               R   N=           8
  0.00000000E+00  0.00000000E+00  0.00000000E+00  0.00000000E+00  2.79284600E+00
  2.79284600E+00  2.79284600E+00  2.79284600E+00
MicOpt                                     I   N=           8
          -1          -1          -1          -1          -1          -1
          -1          -1
Number of contracted shells                I               24
Number of primitive shells                 I               60
Pure/Cartesian d shells                    I                1
Pure/Cartesian f shells                    I                0
Highest angular momentum                   I                1
Largest degree of contraction              I                6
Shell types                                I   N=          24
           0          -1          -1          -1           0          -1
          -1          -1           0          -1          -1          -1
           0          -1          -1          -1           0           0
           0           0           0           0           0           0
Number of primitives per shell             I   N=          24
           6           3           1           1           6           3
           1           1           6           3           1           1
           6           3           1           1           3           1
           3           1           3           1           3           1
Shell to atom map                          I   N=          24
           1           1           1           1           2           2
           2           2           3           3           3           3
           4           4           4           4           5           5
           6           6           7           7           8           8
Primitive exponents                        R   N=          60
  3.04752488E+03  4.57369518E+02  1.03948685E+02  2.92101553E+01  9.28666296E+00
  3.16392696E+00  7.86827235E+00  1.88128854E+00  5.44249258E-01  1.68714478E-01
  4.38000000E-02  3.04752488E+03  4.57369518E+02  1.03948685E+02  2.92101553E+01
  9.28666296E+00  3.16392696E+00  7.86827235E+00  1.88128854E+00  5.44249258E-01
  1.68714478E-01  4.38000000E-02  3.04752488E+03  4.57369518E+02  1.03948685E+02
  2.92101553E+01  9.28666296E+00  3.16392696E+00  7.86827235E+00  1.88128854E+00
  5.44249258E-01  1.68714478E-01  4.38000000E-02  5.48467166E+03  8.25234946E+02
  1.88046958E+02  5.29645000E+01  1.68975704E+01  5.79963534E+00  1.55396162E+01
  3.59993359E+00  1.01376175E+00  2.70005823E-01  8.45000000E-02  1.87311370E+01
  2.82539436E+00  6.40121692E-01  1.61277759E-01  1.87311370E+01  2.82539436E+00
  6.40121692E-01  1.61277759E-01  1.87311370E+01  2.82539436E+00  6.40121692E-01
  1.61277759E-01  1.87311370E+01  2.82539436E+00  6.40121692E-01  1.61277759E-01
Contraction coefficients                   R   N=          60
  1.83473713E-03  1.40373228E-02  6.88426223E-02  2.32184443E-01  4.67941348E-01
  3.62311985E-01 -1.19332420E-01 -1.60854152E-01  1.14345644E+00  1.00000000E+00
  1.00000000E+00  1.83473713E-03  1.40373228E-02  6.88426223E-02  2.32184443E-01
  4.67941348E-01  3.62311985E-01 -1.19332420E-01 -1.60854152E-01  1.14345644E+00
  1.00000000E+00  1.00000000E+00  1.83473713E-03  1.40373228E-02  6.88426223E-02
  2.32184443E-01  4.67941348E-01  3.62311985E-01 -1.19332420E-01 -1.60854152E-01
  1.14345644E+00  1.00000000E+00  1.00000000E+00  1.83107443E-03  1.39501722E-02
  6.84450781E-02  2.32714336E-01  4.70192898E-01  3.58520853E-01 -1.10777550E-01
 -1.48026263E-01  1.13076702E+00  1.00000000E+00  1.00000000E+00  3.34946043E-02
  2.34726953E-01  8.13757326E-01  1.00000000E+00  3.34946043E-02  2.34726953E-01
  8.13757326E-01  1.00000000E+00  3.34946043E-02  2.34726953E-01  8.13757326E-01
  1.00000000E+00  3.34946043E-02  2.34726953E-01  8.13757326E-01  1.00000000E+00
P(S=P) Contraction coefficients            R   N=          60
  0.00000000E+00  0.00000000E+00  0.00000000E+00  0.00000000E+00  0.00000000E+00
  0.00000000E+00  6.89990666E-02  3.16423961E-01  7.44308291E-01  1.00000000E+00
  1.00000000E+00  0.00000000E+00  0.00000000E+00  0.00000000E+00  0.00000000E+00
  0.00000000E+00  0.00000000E+00  6.89990666E-02  3.16423961E-01  7.44308291E-01
  1.00000000E+00  1.00000000E+00  0.00000000E+00  0.00000000E+00  0.00000000E+00
  0.00000000E+00  0.00000000E+00  0.00000000E+00  6.89990666E-02  3.16423961E-01
  7.44308291E-01  1.00000000E+00  1.00000000E+00  0.00000000E+00  0.00000000E+00
  0.00000000E+00  0.00000000E+00  0.00000000E+00  0.00000000E+00  7.08742682E-02
  3.39752839E-01  7.27158577E-01  1.00000000E+00  1.00000000E+00  0.00000000E+00
  0.00000000E+00  0.00000000E+00  0.00000000E+00  0.00000000E+00  0.00000000E+00
  0.00000000E+00  0.00000000E+00  0.00000000E+00  0.00000000E+00  0.00000000E+00
  0.00000000E+00  0.00000000E+00  0.00000000E+00  0.00000000E+00  0.00000000E+00
Coordinates of each shell                  R   N=          72
  3.32526951E+00  2.66403347E-01 -1.34690679E-01  3.32526951E+00  2.66403347E-01
 -1.34690679E-01  3.32526951E+00  2.66403347E-01 -1.34690679E-01  3.32526951E+00
  2.66403347E-01 -1.34690679E-01  1.06863203E+00 -8.36322675E-01  1.84871852E-01
  1.06863203E+00 -8.36322675E-01  1.84871852E-01  1.06863203E+00 -8.36322675E-01
  1.84871852E-01  1.06863203E+00 -8.36322675E-01  1.84871852E-01 -1.27092947E+00
  6.65776796E-01  1.86126609E-01 -1.27092947E+00  6.65776796E-01  1.86126609E-01
 -1.27092947E+00  6.65776796E-01  1.86126609E-01 -1.27092947E+00  6.65776796E-01
  1.86126609E-01 -3.38934358E+00 -2.38515902E-01 -2.02654045E-01 -3.38934358E+00
 -2.38515902E-01 -2.02654045E-01 -3.38934358E+00 -2.38515902E-01 -2.02654045E-01
 -3.38934358E+00 -2.38515902E-01 -2.02654045E-01 -1.04295489E+00  2.72002923E+00
  4.63859972E-01 -1.04295489E+00  2.72002923E+00  4.63859972E-01  5.05700250E+00
 -8.20835413E-01 -2.68062158E-01  5.05700250E+00 -8.20835413E-01 -2.68062158E-01
  3.50837739E+00  2.30923250E+00 -2.79123320E-01  3.50837739E+00  2.30923250E+00
 -2.79123320E-01  8.54491227E-01 -2.87544391E+00  2.86711173E-01  8.54491227E-01
 -2.87544391E+00  2.86711173E-01
Constraint Structure                       R   N=          24
  3.33953545E+00  2.62503720E-01 -1.34659743E-01  1.06749493E+00 -8.32412817E-01
  1.89263883E-01 -1.27023598E+00  6.67158808E-01  1.85291679E-01 -3.40395042E+00
 -2.38567812E-01 -2.01729902E-01 -1.03838905E+00  2.72624595E+00  4.46283645E-01
  5.06682439E+00 -8.33182345E-01 -2.78747581E-01  3.53448359E+00  2.30553576E+00
 -2.70003818E-01  8.47917995E-01 -2.87355512E+00  2.76932058E-01
Num ILSW                                   I              100
ILSW                                       I   N=         100
           0           1           0           0           2           0
           0           0           0           0        4639          -1
           0           0           0           0           2           0
           0           0           0           0           1           0
           1           0           0           0           0           0
           0           0      100000           0          -1           0
           0           0           0           0           0           0
           0           0           0           1           0           0
           0           0           1           0           0           0
           0           0         121          41           0           0
           0           0          58           0           0           0
           0           0           0           8           0           0
           0           0           0           0           0           0
           0           0           0           0           0           0
           0           0           0           0           0           0
           0           0           0           0           0           0
           0           0           0           0
Num RLSW                                   I               41
RLSW                                       R   N=          41
  1.00000000E+00  1.00000000E+00  1.00000000E+00  1.00000000E+00  1.00000000E+00
  0.00000000E+00  2.00000000E-01  2.22036000E-01  0.00000000E+00  7.77964000E-01
  0.00000000E+00  2.00000000E-01  0.00000000E+00  0.00000000E+00  1.00000000E+00
  0.00000000E+00  0.00000000E+00  1.00000000E+00  0.00000000E+00  0.00000000E+00
  0.00000000E+00  0.00000000E+00  1.00000000E+00  0.00000000E+00  0.00000000E+00
  0.00000000E+00  0.00000000E+00  1.00000000E+00  0.00000000E+00  0.00000000E+00
  0.00000000E+00  0.00000000E+00  1.00000000E+00  0.00000000E+00  0.00000000E+00
  0.00000000E+00  0.00000000E+00  0.00000000E+00  1.00000000E+00  1.00000000E+00
  0.00000000E+00
MxBond                                     I                3
NBond                                      I   N=           8
           3           3           3           1           1           1
           1           1
IBond                                      I   N=          24
           2           6           7           1           3           8
           2           4           5           3           0           0
           3           0           0           1           0           0
           1           0           0           2           0           0
RBond                                      R   N=          24
  2.00000000E+00  1.00000000E+00  1.00000000E+00  2.00000000E+00  1.00000000E+00
  1.00000000E+00  1.00000000E+00  2.00000000E+00  1.00000000E+00  2.00000000E+00
  0.00000000E+00  0.00000000E+00  1.00000000E+00  0.00000000E+00  0.00000000E+00
  1.00000000E+00  0.00000000E+00  0.00000000E+00  1.00000000E+00  0.00000000E+00
  0.00000000E+00  1.00000000E+00  0.00000000E+00  0.00000000E+00
Virial Ratio                               R      2.005795464004530E+00
SCF Energy                                 R     -1.917944995438006E+02
Total Energy                               R     -1.917944995438006E+02
RMS Force                                  R      1.410904125509508E-03
RMS Density                                R      6.076393086069525E-09
External E-field                           R   N=          35
  0.00000000E+00  0.00000000E+00  0.00000000E+00  0.00000000E+00  0.00000000E+00
  0.00000000E+00  0.00000000E+00  0.00000000E+00  0.00000000E+00  0.00000000E+00
  0.00000000E+00  0.00000000E+00  0.00000000E+00  0.00000000E+00  0.00000000E+00
  0.00000000E+00  0.00000000E+00  0.00000000E+00  0.00000000E+00  0.00000000E+00
  0.00000000E+00  0.00000000E+00  0.00000000E+00  0.00000000E+00  0.00000000E+00
  0.00000000E+00  0.00000000E+00  0.00000000E+00  0.00000000E+00  0.00000000E+00
  0.00000000E+00  0.00000000E+00  0.00000000E+00  0.00000000E+00  0.00000000E+00
IOpCl                                      I                0
IROHF                                      I                0
Alpha Orbital Energies                     R   N=          60
 -1.92889472E+01 -1.04065696E+01 -1.03390881E+01 -1.03329110E+01 -1.17225824E+00
 -9.20466144E-01 -7.59696201E-01 -6.82354570E-01 -5.84635249E-01 -5.75814817E-01
 -5.16887358E-01 -4.96543297E-01 -4.86765175E-01 -3.81915818E-01 -3.53748046E-01
 -1.14356587E-02  6.95781691E-02  8.12616230E-02  8.70412958E-02  9.22173355E-02
  1.18254665E-01  1.26437314E-01  1.27423071E-01  1.48215857E-01  1.55960694E-01
  1.76588125E-01  1.85232091E-01  2.01870633E-01  2.22907115E-01  2.63258084E-01
  2.85752783E-01  2.90061202E-01  3.16103986E-01  3.35074189E-01  3.59665479E-01
  3.61570673E-01  3.83803514E-01  4.37106102E-01  4.71903588E-01  4.95287822E-01
  7.07884999E-01  7.17620358E-01  7.59410694E-01  7.83349179E-01  8.03456418E-01
  8.60019230E-01  8.80825784E-01  9.76535845E-01  1.02048535E+00  1.07762285E+00
  1.09676680E+00  1.12785028E+00  1.21003739E+00  1.22604842E+00  1.29596753E+00
  1.32543098E+00  1.37106148E+00  1.39852873E+00  1.43791637E+00  1.91365863E+00
Alpha MO coefficients                      R   N=        3600
 -1.48126458E-05 -1.67360228E-04  2.46399654E-04 -9.34285935E-05 -5.83957620E-05
 -2.05670191E-03 -6.89923926E-04  1.48037468E-03 -1.26748360E-04  3.96994622E-03
 -1.04248454E-03 -5.10082645E-04  1.16193262E-05  3.27244133E-05  9.66030510E-05
  5.38668795E-05 -1.46061462E-04  1.01525672E-05 -1.53397294E-03  3.37234161E-03
  1.48444244E-03  1.72245727E-04  7.93183071E-03 -4.12675692E-03  8.92712664E-04
  6.02441390E-05  2.00592340E-04  1.27257325E-04  7.44792287E-06  1.85675270E-04
 -1.35103739E-05  8.33624605E-03 -5.32055531E-03 -5.28107183E-03 -1.15607831E-03
 -1.64050471E-02 -8.06127135E-04  3.43068815E-03  6.15255625E-04  9.95227220E-01
  2.94951031E-02  2.00878717E-03  7.71887015E-04  3.70886617E-04 -2.19639122E-02
 -4.85979519E-03 -1.43522744E-03 -8.46044772E-04  8.30485676E-03  7.45825259E-04
 -1.44843578E-04 -8.84712518E-05 -4.04892665E-05  1.78556012E-03  1.60289330E-04
  1.07568811E-03 -1.68989905E-04 -4.28581566E-04  2.77800101E-04  8.11063135E-04
 -1.32949504E-05 -2.12594159E-04  1.34995330E-04 -4.13923190E-05  2.15274404E-05
  2.00173952E-04 -5.80083346E-04  1.44478453E-04 -3.86524286E-05 -2.06089325E-02
  3.07915450E-03  3.16734765E-03 -8.95508146E-04  1.87993240E-03 -5.88512528E-04
  4.67111239E-04 -3.94245066E-04 -2.17365868E-05  5.14024202E-03 -3.06326020E-03
  1.67420943E-03  6.41076362E-05  3.63391179E-03  1.25439821E-02  1.00387636E-03
 -3.49946262E-04  9.95437538E-01  3.61901809E-02 -1.20608105E-03 -6.83020563E-04
 -2.67241842E-04 -3.21561763E-02  6.75886163E-04  2.34111785E-03  5.53829221E-04
  1.45236370E-02  2.96601247E-03 -4.91692547E-03 -1.12811448E-04 -1.24174590E-04
 -3.49245466E-05 -5.51189013E-04 -2.06149640E-04 -8.72148001E-05  1.15155641E-03
  2.75043736E-04 -2.37770661E-04 -5.77923954E-05  1.10200473E-02  5.58231183E-03
  2.25059060E-03  1.07454149E-03 -5.50587641E-04  3.38552339E-03 -1.26289920E-05
  8.74179050E-04 -8.26908198E-05 -1.78529889E-04 -1.57994348E-04 -1.57507814E-04
  9.93030177E-01  3.51215076E-02 -3.71215497E-04 -1.06857891E-04  3.61675912E-05
 -2.97600194E-02  3.18931264E-03  1.52667956E-03 -4.50526694E-04  2.23423849E-02
 -6.54480622E-03 -3.92004362E-03  8.23970477E-04  6.73397887E-02  1.17716134E-03
 -1.06506023E-03 -5.18777550E-04  1.37785781E-04  6.69620850E-03  5.08804355E-03
  2.01698858E-03 -6.91348887E-04  1.64894550E-02 -1.28829031E-02  6.12719933E-03
  7.11833675E-04 -1.55210304E-04 -2.41509220E-04 -1.29097729E-04 -2.69418777E-05
  8.42213093E-06 -6.21649374E-04  1.44698071E-03  2.71656169E-04  2.07632203E-04
 -3.87092554E-02 -9.50209123E-03  4.98221378E-03 -1.96267813E-05 -9.50930401E-06
 -1.33462063E-04 -2.52666601E-05 -1.57183850E-05 -1.67401454E-05  6.85138691E-04
  4.93263053E-04  2.15439841E-04  1.27647383E-04  3.30047716E-03  1.40132508E-03
 -1.63518289E-05  2.71005569E-04 -2.24844939E-04  3.36090679E-04 -7.35165015E-04
  4.13163574E-03 -6.43731103E-04  3.77612396E-03 -1.89429507E-04  2.80746964E-04
 -6.75897271E-02 -3.75033357E-03  8.88472727E-04  4.49177081E-04 -1.30156530E-04
  1.25107894E-02 -5.62921610E-03 -8.78197150E-04  6.24190373E-04 -4.03824292E-02
  9.41357726E-03  3.17404307E-03 -1.21401146E-03  9.93113659E-01  3.63593322E-02
  2.50131219E-04  6.56538574E-04 -1.63698551E-04 -3.58434145E-02 -9.50491063E-04
 -5.82152608E-03  8.20883255E-04  7.20732918E-02  2.62588022E-03  1.27489581E-02
 -1.62246012E-03 -1.84516316E-03 -7.98447878E-04 -5.01114906E-04  3.17811367E-04
 -7.93902619E-06  7.02446099E-03  5.23423524E-03 -1.47253482E-03  2.03110830E-05
 -3.09919687E-02 -6.96329817E-03  3.94374441E-03  5.20326285E-05 -1.05552276E-06
 -6.85884726E-05 -7.30884392E-05 -6.50198793E-05  8.55654336E-06  1.73157107E-04
  1.31260035E-04  5.63391595E-04  3.95666429E-05  3.04343212E-03  6.86553053E-04
 -1.13134794E-04  4.03586972E-04 -2.67242594E-04 -3.86872885E-04 -7.58937295E-05
  6.64828011E-04 -3.00162906E-04 -9.45684546E-04 -7.02324888E-04  2.29300929E-03
 -3.69149981E-03  9.50018396E-03 -7.03325019E-03 -2.72421237E-04  5.34941224E-04
  1.72805352E-02  9.20621064E-03 -1.49803041E-02  1.38135431E-03  5.87022285E-02
 -1.07532390E-02 -5.09191064E-03  1.69055126E-03 -2.00629549E-02  3.73321770E-02
 -2.57889484E-02  1.03688417E-02 -1.67094574E-03  2.03193098E-02 -2.35227542E-02
 -1.12514565E-02 -2.45292472E-03 -1.09313435E-01 -1.04195247E-03 -1.97011808E-02
  3.34903692E-03 -1.16270786E-01  2.38431192E-01 -1.65877832E-01 -7.81835016E-02
 -3.16753096E-02  3.00726111E-02  5.80518772E-02  4.42200284E-02  1.12906290E-02
  6.33624369E-02  1.08634556E-03 -7.95997090E-03 -2.83418261E-03 -1.92375956E-01
  4.23616654E-01  1.64966043E-01  6.83518384E-02  2.99697160E-02  4.26678092E-01
  7.13792357E-02  2.56718814E-02  1.31627059E-02  1.09545925E-03  7.22371039E-03
  3.93033545E-03  1.67220335E-03  2.80341912E-02 -2.37028450E-02 -2.28419052E-04
 -1.34826770E-02  3.27036813E-03  4.77460353E-03  6.02311267E-03 -4.38160264E-03
 -1.41910485E-01  2.73409348E-01 -9.96554169E-02 -3.80861266E-02  1.24737210E-02
  2.17118398E-01 -1.70951532E-02  7.42056760E-03  1.57856001E-03  1.55150808E-02
 -4.80880676E-03  4.68545272E-03  3.89398115E-04 -1.60553456E-01  3.13451590E-01
  5.93436125E-02  7.06100801E-02 -1.50904563E-02  2.06920542E-01 -1.51574034E-03
 -1.47206630E-02 -1.62889477E-04 -1.00994140E-01  1.99975395E-02 -3.13053980E-02
 -9.99301028E-05 -5.41461484E-02  1.05685628E-01  1.35907081E-01 -1.51151078E-02
  7.63083393E-03  1.01948538E-01  3.19030776E-02  3.20806375E-03  5.14988687E-04
  8.69999298E-02  2.55669044E-02 -4.55871348E-03  1.47707115E-03  4.01330080E-02
 -9.28930904E-02 -3.98931885E-03 -1.60732692E-02 -4.36266652E-03 -9.19826704E-02
 -1.01260917E-03 -2.39215563E-03 -2.11644859E-04 -5.18773052E-03 -7.21609701E-03
 -3.00350212E-03 -1.18786325E-03  3.37070231E-02  3.08995125E-03  6.86504190E-02
  1.45222788E-02  7.25930099E-02  6.50572839E-03  7.47179822E-02 -7.34269245E-04
 -1.32992216E-01  2.67195883E-01  6.86001567E-02 -9.67624145E-03 -6.36825245E-03
  2.57045773E-01  3.27661049E-02 -7.39242689E-03 -2.81851994E-03 -1.19234387E-01
  2.64567827E-02  1.69635076E-02 -4.27458189E-03  5.34213149E-02 -1.08680863E-01
  2.20588143E-01 -2.72607791E-02 -1.78461935E-02 -1.02156643E-01  3.70710767E-02
 -3.56280247E-03 -4.22254320E-03  2.55956351E-02  6.88208210E-02  1.12917785E-03
 -4.20038366E-03  1.16498932E-01 -2.45833087E-01 -1.70216268E-01 -3.32139106E-03
 -2.25636127E-02 -2.61133695E-01 -2.14974426E-02  2.30691259E-03 -3.98840565E-03
  9.46159545E-02  1.36179174E-02 -2.23149650E-02 -1.33999606E-03 -6.73054001E-02
  1.55436330E-01 -5.11139822E-02  3.54587714E-04 -6.64210324E-03  2.06983526E-01
 -1.07232578E-02  6.00421564E-03 -4.82030597E-04  3.21361348E-02  1.09347402E-02
  4.81869685E-03  2.75324291E-03 -1.02835706E-01 -3.59177568E-02  1.32933828E-01
  3.86230210E-02  1.05786713E-01  3.66941067E-02 -4.10213269E-02 -1.10468734E-02
 -4.88265796E-02  9.57097753E-02  7.53418123E-02  1.42737254E-01 -1.49541412E-02
  1.13281593E-01  1.13090236E-02  4.60490058E-02 -2.97689313E-03 -8.57885838E-02
  2.51182403E-02  9.68478169E-03 -3.81046872E-03  9.47071002E-02 -1.91426014E-01
 -2.66110469E-03  1.83086811E-01 -1.05822086E-03 -2.10108991E-01  1.82529333E-03
  6.21112069E-02 -1.59060302E-03  1.33175107E-01  3.57210937E-03  2.24918471E-02
 -2.01026867E-03 -8.28235325E-02  1.76715723E-01 -4.46517648E-03  2.38206153E-01
  2.24582221E-02  1.91364423E-01  1.40225536E-02  9.16122165E-02  9.17698861E-03
 -4.67810357E-02 -7.28960757E-03  1.93451088E-02 -1.52279445E-04  3.63689661E-02
 -8.54777193E-02  1.59601606E-02  1.14461443E-01  1.32008922E-02 -1.04772496E-01
  6.69679318E-03  5.06440557E-02  5.88680955E-03 -9.20782323E-03 -3.07755462E-03
 -5.95594435E-03  3.82866137E-04  1.83554649E-01  7.70561343E-02  4.09830565E-02
  2.34685793E-02  1.19347505E-01  6.04760909E-02 -1.69905386E-01 -6.91092774E-02
  1.27888691E-02 -2.38360940E-02 -6.87911110E-02 -2.85135862E-01  3.40606102E-02
 -5.94507842E-02 -7.05406271E-03 -1.16207538E-01  1.20750456E-02 -4.77248195E-02
 -2.06908175E-03 -3.59341792E-03 -8.77626728E-04 -1.93111674E-02  3.51902141E-02
  2.42062726E-01 -1.33173065E-01  4.71479365E-03  7.12498599E-02  6.11893571E-02
 -3.93069870E-02  3.67396540E-03  4.66424450E-02  3.38784615E-02  3.79042823E-03
 -1.07814246E-03 -4.84782367E-03  9.27353580E-03 -1.49122473E-01  2.99632751E-01
  3.42163581E-02  2.34809159E-02 -6.37594453E-02  1.33605883E-01  1.60638490E-02
  8.61847276E-03 -1.55066413E-02  1.10378385E-02  1.75744034E-03  6.77918209E-03
 -1.50825833E-02 -6.38405200E-02  1.96543550E-01  2.70500533E-02 -2.62376003E-02
 -3.70315275E-02  9.59324344E-02  1.27180758E-02 -1.27643235E-02 -4.53197218E-04
 -4.18256315E-03 -6.99452313E-04  1.47954560E-01  7.14772579E-02  3.45308399E-02
  1.42567844E-02 -1.76884074E-01 -9.71500755E-02  7.76372970E-02  4.35121694E-02
 -1.02337494E-02  1.81672797E-02  3.60209966E-01 -5.53028147E-02 -3.87705531E-02
  4.68285282E-02  1.32639313E-01 -3.58928609E-02 -1.43691476E-02  2.53599940E-02
  1.63075650E-02 -6.56980048E-03 -7.24433189E-04  2.86807273E-02 -6.13244350E-02
 -1.76795557E-01 -2.20054727E-01  2.97433272E-02 -4.08169145E-02 -3.18396662E-02
 -6.84599265E-02  9.38880097E-03 -2.47377852E-02 -2.31613311E-02 -7.77750756E-03
  1.31103670E-03 -5.15844930E-02  1.26392116E-01 -1.12285134E-01 -9.12942833E-02
  1.12728672E-02  1.67871963E-01 -5.42586132E-02 -6.06842301E-02  3.68888723E-03
  2.18855177E-02  7.91279303E-03 -2.32874404E-03  2.98447741E-04  6.53522928E-02
 -1.45015497E-01  2.35960467E-01  5.09940991E-02  6.47621364E-02 -2.70784357E-01
  7.96937290E-02  5.86431271E-03  2.58420560E-02 -8.20867475E-02 -3.58366054E-03
  2.67912887E-03 -6.19817881E-04  6.97925829E-03  1.40104418E-02  2.08017696E-01
  1.21278404E-01  2.49648068E-03  6.18594044E-03  1.00943310E-01  6.81852309E-02
 -1.49328730E-02  3.71973758E-02 -2.06235819E-01 -5.10717541E-02 -1.30592164E-02
  1.92038116E-02 -6.12687570E-02 -2.45510699E-02 -1.26047101E-02 -6.77053707E-02
  1.00225051E-02 -2.74721158E-03 -1.08501584E-03  1.17252812E-03  9.49342202E-04
  1.67481034E-01  1.17014268E-01 -9.69349745E-02 -2.49112036E-02  4.64892460E-02
  4.85678985E-02 -4.39991171E-02  7.40026026E-02  1.24657983E-02  2.05878413E-02
 -6.70072722E-03 -1.58397591E-02  6.33126698E-02 -2.49909279E-01 -1.53525666E-01
 -1.76172373E-01  1.91527926E-02 -6.01915620E-02 -4.66165546E-02 -7.86687462E-02
 -1.54149110E-02 -2.58395762E-03 -8.79503850E-04 -9.48983735E-03  6.36335958E-02
 -1.37638183E-01  4.11615035E-01  1.54456211E-01 -5.65158696E-02 -2.57566387E-01
  1.77108057E-01  6.72122536E-02 -4.48416694E-02 -8.04650161E-02  1.27254601E-02
  8.23699490E-03  3.16150777E-03 -1.04681935E-01 -8.10793625E-02 -7.79088688E-02
 -6.62136698E-02 -3.18978305E-02 -2.47855548E-02 -9.38923230E-02 -6.42686369E-02
 -5.21002888E-03  1.22422583E-02 -1.12629678E-01  1.42507327E-01  9.61308403E-02
  2.37578182E-02 -5.45323908E-02  6.86807581E-02  5.30925797E-02  1.16622197E-01
 -3.84239986E-02  2.60821031E-03  2.72256291E-03 -8.73535629E-03  1.74218491E-02
  7.79234100E-02 -5.02039444E-02  1.47934665E-01  2.32072435E-02  1.59824264E-02
 -3.21377181E-02  7.41734270E-02 -1.39392755E-01 -5.39556297E-03 -2.78532324E-02
  1.25150260E-02  8.28953017E-03 -7.65491488E-03 -1.86073493E-01 -5.35900473E-02
  2.91009070E-01 -4.31868552E-02 -5.70934452E-02 -1.04327766E-02  1.61591205E-01
  1.99036591E-02 -7.06562468E-03 -7.43301793E-03  2.29172120E-02  2.00609472E-02
 -4.37450903E-02  7.71292468E-02  5.97549450E-02  3.96662865E-01 -7.63618481E-02
  2.61962792E-02  2.59098960E-02  2.36068241E-01 -1.77241190E-02  1.15923397E-02
  6.05920446E-03  7.31527125E-03 -2.96469327E-02 -2.32779861E-02 -1.17242697E-01
 -8.42871347E-02  9.32730455E-02  6.33225709E-02  4.53492026E-02  2.90211635E-02
  1.23720975E-02 -2.84419538E-02 -3.05262959E-02  2.88012713E-01 -5.60794534E-02
 -1.63812334E-02 -3.96436616E-02  1.44283676E-01 -2.82497335E-02 -8.13550299E-02
  9.62428292E-03  3.39043969E-02 -4.32422836E-03 -1.36708244E-02  2.10547423E-02
 -2.48240114E-02 -2.79340192E-01 -4.78052124E-02  8.23046773E-02 -1.37393569E-02
 -1.46802365E-01 -2.36203075E-02  6.20135913E-02  3.93071188E-02 -2.32086687E-02
 -3.88471812E-03  2.32369033E-02 -5.24335895E-02 -1.14465875E-01  1.34385958E-01
 -1.44195927E-01 -5.92742999E-02 -4.24903761E-02  8.24607248E-02 -7.84364768E-02
  3.56578189E-02  3.19701967E-03  8.75000470E-03 -1.13827606E-02  5.28323148E-03
 -1.28319122E-02 -1.11580474E-02  1.68749123E-01 -1.67478566E-01 -2.16618665E-02
 -7.78189124E-03  9.18427531E-02 -1.03265554E-01 -3.70916760E-03  5.16560431E-04
  3.53741948E-03 -2.33885983E-03  4.14211350E-02  2.45639724E-02 -1.44099524E-01
 -9.25751232E-02  1.96164281E-01  1.47894620E-01  2.12147412E-01  1.31705625E-01
  9.78046979E-04 -2.88074112E-04  4.91021913E-02  2.31966886E-02  3.71155334E-01
 -9.67962388E-04  3.84330752E-02  1.09243027E-02  2.42545992E-01 -1.38817411E-01
  3.95120896E-02  1.22172322E-02  4.02019528E-02 -3.26342019E-03  7.40786332E-03
  2.32387116E-02  2.75707281E-02  3.61633836E-01  1.01350091E-02  1.53306854E-02
  1.45396209E-02  2.46019454E-01  2.08095777E-01  1.93652515E-02  3.50109552E-02
  2.27217500E-02  8.86661969E-04  1.99636527E-03  1.50229398E-03 -1.31261520E-02
 -5.88546360E-02 -2.28876420E-02  2.05681524E-02 -8.76666605E-04 -3.99774706E-02
 -7.64953806E-02 -1.12580890E-02  1.25026123E-02 -1.37778897E-02 -5.16380237E-04
  1.36499765E-03  6.30450976E-02  4.53054188E-02 -2.72100932E-01  1.16494373E-02
  4.45953571E-02  3.53091084E-02 -1.84428918E-01  1.66764989E-02  6.93659297E-03
  1.36010966E-03 -2.60863120E-02 -1.93538672E-02 -1.55590728E-02  4.43609496E-03
 -5.65307621E-04 -1.17262220E-03 -4.98019644E-04 -4.77058972E-03 -9.96037570E-03
  6.82349569E-03 -9.61733516E-03  6.40643874E-02  7.75657873E-03 -2.01007541E-02
 -1.00976072E-01  9.87559630E-02 -1.90103214E-02 -2.30759659E-02 -3.79779703E-01
  8.27064666E-02  2.07318244E-02 -2.01762670E-02 -3.78924204E-02  6.94636687E-02
 -1.90131060E-01  1.11958074E-01  3.19993796E-03  3.35786629E-01 -1.08403928E-01
  1.88165473E-01 -2.10095305E-03  4.34688949E-01  1.13722075E-01  1.00447114E-01
 -1.57716475E-03  6.98468540E-04  1.66143458E-02  6.20769752E-02 -1.35096652E-01
 -9.28001069E-03 -7.80611637E-02 -1.11797494E-01  2.07045369E-02 -2.53814652E-03
 -5.75540195E-02 -5.77498089E-02 -9.18943149E-03 -9.54399698E-03 -1.21085085E-03
  6.07892190E-03 -2.36317673E-01  5.37313789E-01  4.63766038E-02 -2.11257118E-02
 -1.69502317E-01  3.58755003E-01  2.68082557E-02 -4.13264971E-02 -2.51683413E-02