 Entering Gaussian System, Link 0=/opt/cluster/programs/g09_d.01/g09//g09
 Input=/home/unibas/boittier/RDKit_G2/L.pdb/SCAN_1_2_3_4_S_17_20.0/5_SCAN_1_2_3_4_F/5_SCAN_L.pdb.com
 Output=/scratch/boittier/5_SCAN_L.pdb/5_SCAN_L.pdb.out
 Initial command:
 /opt/cluster/programs/g09_d.01/g09/l1.exe "/scratch/boittier/5_SCAN_L.pdb/Gau-185913.inp" -scrdir="/scratch/boittier/5_SCAN_L.pdb/"
 Entering Link 1 = /opt/cluster/programs/g09_d.01/g09/l1.exe PID=    185914.
  
 Copyright (c) 1988,1990,1992,1993,1995,1998,2003,2009,2013,
            Gaussian, Inc.  All Rights Reserved.
  
 This is part of the Gaussian(R) 09 program.  It is based on
 the Gaussian(R) 03 system (copyright 2003, Gaussian, Inc.),
 the Gaussian(R) 98 system (copyright 1998, Gaussian, Inc.),
 the Gaussian(R) 94 system (copyright 1995, Gaussian, Inc.),
 the Gaussian 92(TM) system (copyright 1992, Gaussian, Inc.),
 the Gaussian 90(TM) system (copyright 1990, Gaussian, Inc.),
 the Gaussian 88(TM) system (copyright 1988, Gaussian, Inc.),
 the Gaussian 86(TM) system (copyright 1986, Carnegie Mellon
 University), and the Gaussian 82(TM) system (copyright 1983,
 Carnegie Mellon University). Gaussian is a federally registered
 trademark of Gaussian, Inc.
  
 This software contains proprietary and confidential information,
 including trade secrets, belonging to Gaussian, Inc.
  
 This software is provided under written license and may be
 used, copied, transmitted, or stored only in accord with that
 written license.
  
 The following legend is applicable only to US Government
 contracts under FAR:
  
                    RESTRICTED RIGHTS LEGEND
  
 Use, reproduction and disclosure by the US Government is
 subject to restrictions as set forth in subparagraphs (a)
 and (c) of the Commercial Computer Software - Restricted
 Rights clause in FAR 52.227-19.
  
 Gaussian, Inc.
 340 Quinnipiac St., Bldg. 40, Wallingford CT 06492
  
  
 ---------------------------------------------------------------
 Warning -- This program may not be used in any manner that
 competes with the business of Gaussian, Inc. or will provide
 assistance to any competitor of Gaussian, Inc.  The licensee
 of this program is prohibited from giving any competitor of
 Gaussian, Inc. access to this program.  By using this program,
 the user acknowledges that Gaussian, Inc. is engaged in the
 business of creating and licensing software in the field of
 computational chemistry and represents and warrants to the
 licensee that it is not a competitor of Gaussian, Inc. and that
 it will not use this program in any manner prohibited above.
 ---------------------------------------------------------------
  

 Cite this work as:
 Gaussian 09, Revision D.01,
 M. J. Frisch, G. W. Trucks, H. B. Schlegel, G. E. Scuseria, 
 M. A. Robb, J. R. Cheeseman, G. Scalmani, V. Barone, B. Mennucci, 
 G. A. Petersson, H. Nakatsuji, M. Caricato, X. Li, H. P. Hratchian, 
 A. F. Izmaylov, J. Bloino, G. Zheng, J. L. Sonnenberg, M. Hada, 
 M. Ehara, K. Toyota, R. Fukuda, J. Hasegawa, M. Ishida, T. Nakajima, 
 Y. Honda, O. Kitao, H. Nakai, T. Vreven, J. A. Montgomery, Jr., 
 J. E. Peralta, F. Ogliaro, M. Bearpark, J. J. Heyd, E. Brothers, 
 K. N. Kudin, V. N. Staroverov, T. Keith, R. Kobayashi, J. Normand, 
 K. Raghavachari, A. Rendell, J. C. Burant, S. S. Iyengar, J. Tomasi, 
 M. Cossi, N. Rega, J. M. Millam, M. Klene, J. E. Knox, J. B. Cross, 
 V. Bakken, C. Adamo, J. Jaramillo, R. Gomperts, R. E. Stratmann, 
 O. Yazyev, A. J. Austin, R. Cammi, C. Pomelli, J. W. Ochterski, 
 R. L. Martin, K. Morokuma, V. G. Zakrzewski, G. A. Voth, 
 P. Salvador, J. J. Dannenberg, S. Dapprich, A. D. Daniels, 
 O. Farkas, J. B. Foresman, J. V. Ortiz, J. Cioslowski, 
 and D. J. Fox, Gaussian, Inc., Wallingford CT, 2013.
 
 ******************************************
 Gaussian 09:  ES64L-G09RevD.01 24-Apr-2013
                12-May-2021 
 ******************************************
 %chk=/home/unibas/boittier/RDKit_G2/L.pdb/SCAN_1_2_3_4_S_17_20.0/5_SCAN_1_2_3_4_
 F/L.pdb.chk
 %nproc=8
 Will use up to    8 processors via shared memory.
 %mem=16GB
 -----------------------------
 #p wB97XD/6-31+G Opt=ModRedun
 -----------------------------
 1/14=-1,18=120,19=15,26=3,38=1/1,3;
 2/9=110,12=2,17=6,18=5,40=1/2;
 3/5=1,6=6,7=10,11=2,16=1,25=1,30=1,71=1,74=-58/1,2,3;
 4//1;
 5/5=2,38=5/2;
 6/7=2,8=2,9=2,10=2,28=1/1;
 7//1,2,3,16;
 1/14=-1,18=20,19=15,26=3/3(2);
 2/9=110/2;
 99//99;
 2/9=110/2;
 3/5=1,6=6,7=10,11=2,16=1,25=1,30=1,71=1,74=-58/1,2,3;
 4/5=5,16=3,69=1/1;
 5/5=2,38=5/2;
 7//1,2,3,16;
 1/14=-1,18=20,19=15,26=3/3(-5);
 2/9=110/2;
 6/7=2,8=2,9=2,10=2,19=2,28=1/1;
 99/9=1/99;
 Leave Link    1 at Wed May 12 11:58:23 2021, MaxMem=  2147483648 cpu:         0.2
 (Enter /opt/cluster/programs/g09_d.01/g09/l101.exe)
 -----
 L.pdb
 -----
 Symbolic Z-matrix:
 Charge =  0 Multiplicity = 1
 C                     1.6285    0.37715  -0.06935 
 C                     0.6346   -0.48447   0.18726 
 C                    -0.76488  -0.31399  -0.29421 
 O                    -1.60825   0.42647   0.23246 
 H                    -1.05918  -0.94666  -1.15192 
 H                     2.64516   0.18526   0.25968 
 H                     1.457     1.30731  -0.60485 
 H                     0.83371  -1.42974   0.69521 
 
 The following ModRedundant input section has been read:
 D       1       2       3       4 F                                           
 
 NAtoms=      8 NQM=        8 NQMF=       0 NMMI=      0 NMMIF=      0
                NMic=       0 NMicF=      0.
                    Isotopes and Nuclear Properties:
 (Nuclear quadrupole moments (NQMom) in fm**2, nuclear magnetic moments (NMagM)
  in nuclear magnetons)

  Atom         1           2           3           4           5           6           7           8
 IAtWgt=          12          12          12          16           1           1           1           1
 AtmWgt=  12.0000000  12.0000000  12.0000000  15.9949146   1.0078250   1.0078250   1.0078250   1.0078250
 NucSpn=           0           0           0           0           1           1           1           1
 AtZEff=   0.0000000   0.0000000   0.0000000   0.0000000   0.0000000   0.0000000   0.0000000   0.0000000
 NQMom=    0.0000000   0.0000000   0.0000000   0.0000000   0.0000000   0.0000000   0.0000000   0.0000000
 NMagM=    0.0000000   0.0000000   0.0000000   0.0000000   2.7928460   2.7928460   2.7928460   2.7928460
 AtZNuc=   6.0000000   6.0000000   6.0000000   8.0000000   1.0000000   1.0000000   1.0000000   1.0000000
 Leave Link  101 at Wed May 12 11:58:24 2021, MaxMem=  2147483648 cpu:         4.1
 (Enter /opt/cluster/programs/g09_d.01/g09/l103.exe)

 GradGradGradGradGradGradGradGradGradGradGradGradGradGradGradGradGradGrad
 Berny optimization.
 Initialization pass.
                           ----------------------------
                           !    Initial Parameters    !
                           ! (Angstroms and Degrees)  !
 --------------------------                            --------------------------
 ! Name  Definition              Value          Derivative Info.                !
 --------------------------------------------------------------------------------
 ! R1    R(1,2)                  1.3402         estimate D2E/DX2                !
 ! R2    R(1,6)                  1.0857         estimate D2E/DX2                !
 ! R3    R(1,7)                  1.0869         estimate D2E/DX2                !
 ! R4    R(2,3)                  1.4898         estimate D2E/DX2                !
 ! R5    R(2,8)                  1.0914         estimate D2E/DX2                !
 ! R6    R(3,4)                  1.2397         estimate D2E/DX2                !
 ! R7    R(3,5)                  1.1057         estimate D2E/DX2                !
 ! A1    A(2,1,6)              121.5208         estimate D2E/DX2                !
 ! A2    A(2,1,7)              121.8384         estimate D2E/DX2                !
 ! A3    A(6,1,7)              116.6364         estimate D2E/DX2                !
 ! A4    A(1,2,3)              124.1397         estimate D2E/DX2                !
 ! A5    A(1,2,8)              120.7072         estimate D2E/DX2                !
 ! A6    A(3,2,8)              114.891          estimate D2E/DX2                !
 ! A7    A(2,3,4)              124.7575         estimate D2E/DX2                !
 ! A8    A(2,3,5)              115.8023         estimate D2E/DX2                !
 ! A9    A(4,3,5)              119.3555         estimate D2E/DX2                !
 ! D1    D(6,1,2,3)           -176.7944         estimate D2E/DX2                !
 ! D2    D(6,1,2,8)             -2.982          estimate D2E/DX2                !
 ! D3    D(7,1,2,3)              3.9964         estimate D2E/DX2                !
 ! D4    D(7,1,2,8)            177.8088         estimate D2E/DX2                !
 ! D5    D(1,2,3,4)            -79.9991         Frozen                          !
 ! D6    D(1,2,3,5)            103.3822         estimate D2E/DX2                !
 ! D7    D(8,2,3,4)            105.8645         estimate D2E/DX2                !
 ! D8    D(8,2,3,5)            -70.7542         estimate D2E/DX2                !
 --------------------------------------------------------------------------------
 Trust Radius=3.00D-01 FncErr=1.00D-07 GrdErr=1.00D-06
 Number of steps in this run=     34 maximum allowed number of steps=    100.
 GradGradGradGradGradGradGradGradGradGradGradGradGradGradGradGradGradGrad

 Leave Link  103 at Wed May 12 11:58:24 2021, MaxMem=  2147483648 cpu:         0.1
 (Enter /opt/cluster/programs/g09_d.01/g09/l202.exe)
                          Input orientation:                          
 ---------------------------------------------------------------------
 Center     Atomic      Atomic             Coordinates (Angstroms)
 Number     Number       Type             X           Y           Z
 ---------------------------------------------------------------------
      1          6           0        1.628495    0.377150   -0.069354
      2          6           0        0.634602   -0.484472    0.187261
      3          6           0       -0.764875   -0.313993   -0.294211
      4          8           0       -1.608252    0.426466    0.232464
      5          1           0       -1.059184   -0.946664   -1.151920
      6          1           0        2.645160    0.185257    0.259678
      7          1           0        1.457003    1.307305   -0.604854
      8          1           0        0.833706   -1.429737    0.695209
 ---------------------------------------------------------------------
                    Distance matrix (angstroms):
                    1          2          3          4          5
     1  C    0.000000
     2  C    1.340174   0.000000
     3  C    2.501292   1.489770   0.000000
     4  O    3.251162   2.421207   1.239738   0.000000
     5  H    3.185601   2.208153   1.105692   2.025705   0.000000
     6  H    1.085676   2.120407   3.490613   4.260333   4.122623
     7  H    1.086903   2.124677   2.768004   3.297388   3.422113
     8  H    2.116858   1.091412   2.186161   3.102061   2.688546
                    6          7          8
     6  H    0.000000
     7  H    1.848817   0.000000
     8  H    2.465615   3.093552   0.000000
 Stoichiometry    C3H4O
 Framework group  C1[X(C3H4O)]
 Deg. of freedom    18
 Full point group                 C1      NOp   1
 Largest Abelian subgroup         C1      NOp   1
 Largest concise Abelian subgroup C1      NOp   1
                         Standard orientation:                         
 ---------------------------------------------------------------------
 Center     Atomic      Atomic             Coordinates (Angstroms)
 Number     Number       Type             X           Y           Z
 ---------------------------------------------------------------------
      1          6           0        1.628495   -0.377150    0.069354
      2          6           0        0.634602    0.484472   -0.187261
      3          6           0       -0.764875    0.313993    0.294211
      4          8           0       -1.608252   -0.426466   -0.232464
      5          1           0       -1.059184    0.946664    1.151920
      6          1           0        2.645160   -0.185257   -0.259678
      7          1           0        1.457003   -1.307305    0.604854
      8          1           0        0.833706    1.429737   -0.695209
 ---------------------------------------------------------------------
 Rotational constants (GHZ):     28.2767539      5.0309961      4.6282165
 Leave Link  202 at Wed May 12 11:58:24 2021, MaxMem=  2147483648 cpu:         0.0
 (Enter /opt/cluster/programs/g09_d.01/g09/l301.exe)
 Standard basis: 6-31+G (6D, 7F)
 Ernie: Thresh=  0.10000D-02 Tol=  0.10000D-05 Strict=F.
 There are    60 symmetry adapted cartesian basis functions of A   symmetry.
 There are    60 symmetry adapted basis functions of A   symmetry.
    60 basis functions,   120 primitive gaussians,    60 cartesian basis functions
    15 alpha electrons       15 beta electrons
       nuclear repulsion energy       102.3562007349 Hartrees.
 IExCor= 4639 DFT=T Ex+Corr=wB97XD ExCW=0 ScaHFX=  1.000000
 ScaDFX=  1.000000  1.000000  1.000000  1.000000 ScalE2=  1.000000  1.000000
 IRadAn=      0 IRanWt=     -1 IRanGd=            0 ICorTp=0 IEmpDi=121
  HFx wShort=  0.000000 wLong=  0.200000 cFull=  0.222036 cShort=  0.000000 cLong=  0.777964
  DFx wShort=  0.000000 wLong=  0.200000 cFull=  0.000000 cShort=  0.000000 cLong=  1.000000
 NAtoms=    8 NActive=    8 NUniq=    8 SFac= 1.00D+00 NAtFMM=   60 NAOKFM=F Big=F
 Integral buffers will be    131072 words long.
 Raffenetti 2 integral format.
 Two-electron integral symmetry is turned on.
 R6Disp:  Grimme-D2 Dispersion energy=       -0.0017834028 Hartrees.
 Nuclear repulsion after empirical dispersion term =      102.3544173321 Hartrees.
 Leave Link  301 at Wed May 12 11:58:24 2021, MaxMem=  2147483648 cpu:         0.3
 (Enter /opt/cluster/programs/g09_d.01/g09/l302.exe)
 NPDir=0 NMtPBC=     1 NCelOv=     1 NCel=       1 NClECP=     1 NCelD=      1
         NCelK=      1 NCelE2=     1 NClLst=     1 CellRange=     0.0.
 One-electron integrals computed using PRISM.
 NBasis=    60 RedAO= T EigKep=  1.30D-04  NBF=    60
 NBsUse=    60 1.00D-06 EigRej= -1.00D+00 NBFU=    60
 Precomputing XC quadrature grid using
 IXCGrd= 4 IRadAn=           0 IRanWt=          -1 IRanGd=           0 AccXCQ= 0.00D+00.
 Generated NRdTot=       0 NPtTot=           0 NUsed=           0 NTot=          32
 NSgBfM=    60    60    60    60    60 MxSgAt=     8 MxSgA2=     8.
 Leave Link  302 at Wed May 12 11:58:24 2021, MaxMem=  2147483648 cpu:         0.8
 (Enter /opt/cluster/programs/g09_d.01/g09/l303.exe)
 DipDrv:  MaxL=1.
 Leave Link  303 at Wed May 12 11:58:24 2021, MaxMem=  2147483648 cpu:         0.2
 (Enter /opt/cluster/programs/g09_d.01/g09/l401.exe)
 ExpMin= 4.38D-02 ExpMax= 5.48D+03 ExpMxC= 8.25D+02 IAcc=2 IRadAn=         4 AccDes= 0.00D+00
 Harris functional with IExCor= 4639 and IRadAn=       4 diagonalized for initial guess.
 HarFok:  IExCor= 4639 AccDes= 0.00D+00 IRadAn=         4 IDoV= 1 UseB2=F ITyADJ=14
 ICtDFT=  3500011 ScaDFX=  1.000000  1.000000  1.000000  1.000000
 FoFCou: FMM=F IPFlag=           0 FMFlag=      100000 FMFlg1=           0
         NFxFlg=           0 DoJE=T BraDBF=F KetDBF=T FulRan=T
         wScrn=  0.000000 ICntrl=     500 IOpCl=  0 I1Cent=   200000004 NGrid=           0
         NMat0=    1 NMatS0=      1 NMatT0=    0 NMatD0=    1 NMtDS0=    0 NMtDT0=    0
 Petite list used in FoFCou.
 Harris En= -183.740731031704    
 JPrj=0 DoOrth=F DoCkMO=F.
 Leave Link  401 at Wed May 12 11:58:24 2021, MaxMem=  2147483648 cpu:         1.0
 (Enter /opt/cluster/programs/g09_d.01/g09/l502.exe)
 Closed shell SCF:
 Using DIIS extrapolation, IDIIS=  1040.
 Integral symmetry usage will be decided dynamically.
 Keep R1 ints in memory in canonical form, NReq=4262490.
 IVT=       30290 IEndB=       30290 NGot=  2147483648 MDV=  2144102629
 LenX=  2144102629 LenY=  2144098588
 Requested convergence on RMS density matrix=1.00D-08 within 128 cycles.
 Requested convergence on MAX density matrix=1.00D-06.
 Requested convergence on             energy=1.00D-06.
 No special actions if energy rises.
 FoFCou: FMM=F IPFlag=           0 FMFlag=           0 FMFlg1=           0
         NFxFlg=           0 DoJE=F BraDBF=F KetDBF=F FulRan=T
         wScrn=  0.000000 ICntrl=     600 IOpCl=  0 I1Cent=           0 NGrid=           0
         NMat0=    1 NMatS0=   1830 NMatT0=    0 NMatD0=    1 NMtDS0=    0 NMtDT0=    0
 Symmetry not used in FoFCou.

 Cycle   1  Pass 1  IDiag  1:
 E= -191.741442029560    
 DIIS: error= 2.03D-02 at cycle   1 NSaved=   1.
 NSaved= 1 IEnMin= 1 EnMin= -191.741442029560     IErMin= 1 ErrMin= 2.03D-02
 ErrMax= 2.03D-02  0.00D+00 EMaxC= 1.00D-01 BMatC= 7.42D-02 BMatP= 7.42D-02
 IDIUse=3 WtCom= 7.97D-01 WtEn= 2.03D-01
 Coeff-Com:  0.100D+01
 Coeff-En:   0.100D+01
 Coeff:      0.100D+01
 Gap=     0.449 Goal=   None    Shift=    0.000
 GapD=    0.449 DampG=2.000 DampE=0.500 DampFc=1.0000 IDamp=-1.
 RMSDP=1.02D-02 MaxDP=1.00D-01              OVMax= 7.47D-02

 Cycle   2  Pass 1  IDiag  1:
 E= -191.756968217164     Delta-E=       -0.015526187605 Rises=F Damp=F
 DIIS: error= 2.06D-02 at cycle   2 NSaved=   2.
 NSaved= 2 IEnMin= 2 EnMin= -191.756968217164     IErMin= 1 ErrMin= 2.03D-02
 ErrMax= 2.06D-02  0.00D+00 EMaxC= 1.00D-01 BMatC= 3.11D-02 BMatP= 7.42D-02
 IDIUse=3 WtCom= 7.94D-01 WtEn= 2.06D-01
 Coeff-Com:  0.370D+00 0.630D+00
 Coeff-En:   0.346D+00 0.654D+00
 Coeff:      0.365D+00 0.635D+00
 Gap=     0.411 Goal=   None    Shift=    0.000
 RMSDP=3.71D-03 MaxDP=4.98D-02 DE=-1.55D-02 OVMax= 6.74D-02

 Cycle   3  Pass 1  IDiag  1:
 E= -191.777165822871     Delta-E=       -0.020197605706 Rises=F Damp=F
 DIIS: error= 8.19D-03 at cycle   3 NSaved=   3.
 NSaved= 3 IEnMin= 3 EnMin= -191.777165822871     IErMin= 3 ErrMin= 8.19D-03
 ErrMax= 8.19D-03  0.00D+00 EMaxC= 1.00D-01 BMatC= 7.34D-03 BMatP= 3.11D-02
 IDIUse=3 WtCom= 9.18D-01 WtEn= 8.19D-02
 Coeff-Com:  0.631D-01 0.334D+00 0.603D+00
 Coeff-En:   0.000D+00 0.142D+00 0.858D+00
 Coeff:      0.579D-01 0.318D+00 0.624D+00
 Gap=     0.374 Goal=   None    Shift=    0.000
 RMSDP=1.63D-03 MaxDP=2.01D-02 DE=-2.02D-02 OVMax= 3.21D-02

 Cycle   4  Pass 1  IDiag  1:
 E= -191.782155112235     Delta-E=       -0.004989289365 Rises=F Damp=F
 DIIS: error= 3.74D-03 at cycle   4 NSaved=   4.
 NSaved= 4 IEnMin= 4 EnMin= -191.782155112235     IErMin= 4 ErrMin= 3.74D-03
 ErrMax= 3.74D-03  0.00D+00 EMaxC= 1.00D-01 BMatC= 8.30D-04 BMatP= 7.34D-03
 IDIUse=3 WtCom= 9.63D-01 WtEn= 3.74D-02
 Coeff-Com: -0.377D-02 0.943D-01 0.327D+00 0.582D+00
 Coeff-En:   0.000D+00 0.000D+00 0.558D-01 0.944D+00
 Coeff:     -0.363D-02 0.908D-01 0.317D+00 0.596D+00
 Gap=     0.369 Goal=   None    Shift=    0.000
 RMSDP=6.15D-04 MaxDP=5.86D-03 DE=-4.99D-03 OVMax= 9.24D-03

 Cycle   5  Pass 1  IDiag  1:
 E= -191.782845407291     Delta-E=       -0.000690295055 Rises=F Damp=F
 DIIS: error= 9.67D-04 at cycle   5 NSaved=   5.
 NSaved= 5 IEnMin= 5 EnMin= -191.782845407291     IErMin= 5 ErrMin= 9.67D-04
 ErrMax= 9.67D-04  0.00D+00 EMaxC= 1.00D-01 BMatC= 2.67D-05 BMatP= 8.30D-04
 IDIUse=3 WtCom= 9.90D-01 WtEn= 9.67D-03
 Coeff-Com: -0.444D-02 0.235D-01 0.110D+00 0.261D+00 0.610D+00
 Coeff-En:   0.000D+00 0.000D+00 0.000D+00 0.000D+00 0.100D+01
 Coeff:     -0.440D-02 0.232D-01 0.109D+00 0.258D+00 0.614D+00
 Gap=     0.369 Goal=   None    Shift=    0.000
 RMSDP=1.60D-04 MaxDP=1.79D-03 DE=-6.90D-04 OVMax= 2.53D-03

 Cycle   6  Pass 1  IDiag  1:
 E= -191.782872421537     Delta-E=       -0.000027014246 Rises=F Damp=F
 DIIS: error= 1.54D-04 at cycle   6 NSaved=   6.
 NSaved= 6 IEnMin= 6 EnMin= -191.782872421537     IErMin= 6 ErrMin= 1.54D-04
 ErrMax= 1.54D-04  0.00D+00 EMaxC= 1.00D-01 BMatC= 1.44D-06 BMatP= 2.67D-05
 IDIUse=3 WtCom= 9.98D-01 WtEn= 1.54D-03
 Coeff-Com: -0.111D-03-0.120D-01-0.306D-01-0.379D-01 0.139D+00 0.941D+00
 Coeff-En:   0.000D+00 0.000D+00 0.000D+00 0.000D+00 0.000D+00 0.100D+01
 Coeff:     -0.110D-03-0.120D-01-0.305D-01-0.378D-01 0.139D+00 0.941D+00
 Gap=     0.369 Goal=   None    Shift=    0.000
 RMSDP=1.32D-04 MaxDP=1.73D-03 DE=-2.70D-05 OVMax= 8.51D-04

 Cycle   7  Pass 1  IDiag  1:
 E= -191.782874901440     Delta-E=       -0.000002479903 Rises=F Damp=F
 DIIS: error= 3.03D-05 at cycle   7 NSaved=   7.
 NSaved= 7 IEnMin= 7 EnMin= -191.782874901440     IErMin= 7 ErrMin= 3.03D-05
 ErrMax= 3.03D-05  0.00D+00 EMaxC= 1.00D-01 BMatC= 8.89D-08 BMatP= 1.44D-06
 IDIUse=1 WtCom= 1.00D+00 WtEn= 0.00D+00
 Coeff-Com:  0.275D-03-0.464D-02-0.153D-01-0.235D-01-0.609D-03 0.253D+00
 Coeff-Com:  0.791D+00
 Coeff:      0.275D-03-0.464D-02-0.153D-01-0.235D-01-0.609D-03 0.253D+00
 Coeff:      0.791D+00
 Gap=     0.369 Goal=   None    Shift=    0.000
 RMSDP=2.16D-05 MaxDP=2.86D-04 DE=-2.48D-06 OVMax= 1.71D-04

 Cycle   8  Pass 1  IDiag  1:
 E= -191.782875058036     Delta-E=       -0.000000156596 Rises=F Damp=F
 DIIS: error= 1.04D-05 at cycle   8 NSaved=   8.
 NSaved= 8 IEnMin= 8 EnMin= -191.782875058036     IErMin= 8 ErrMin= 1.04D-05
 ErrMax= 1.04D-05  0.00D+00 EMaxC= 1.00D-01 BMatC= 6.47D-09 BMatP= 8.89D-08
 IDIUse=1 WtCom= 1.00D+00 WtEn= 0.00D+00
 Coeff-Com:  0.442D-05 0.106D-02 0.226D-02 0.368D-02-0.173D-01-0.878D-01
 Coeff-Com:  0.352D-01 0.106D+01
 Coeff:      0.442D-05 0.106D-02 0.226D-02 0.368D-02-0.173D-01-0.878D-01
 Coeff:      0.352D-01 0.106D+01
 Gap=     0.369 Goal=   None    Shift=    0.000
 RMSDP=8.37D-06 MaxDP=1.09D-04 DE=-1.57D-07 OVMax= 9.82D-05

 Cycle   9  Pass 1  IDiag  1:
 E= -191.782875078217     Delta-E=       -0.000000020182 Rises=F Damp=F
 DIIS: error= 3.08D-06 at cycle   9 NSaved=   9.
 NSaved= 9 IEnMin= 9 EnMin= -191.782875078217     IErMin= 9 ErrMin= 3.08D-06
 ErrMax= 3.08D-06  0.00D+00 EMaxC= 1.00D-01 BMatC= 2.45D-10 BMatP= 6.47D-09
 IDIUse=1 WtCom= 1.00D+00 WtEn= 0.00D+00
 Coeff-Com: -0.172D-04 0.208D-03 0.784D-03 0.133D-02 0.219D-02-0.657D-02
 Coeff-Com: -0.599D-01-0.106D+00 0.117D+01
 Coeff:     -0.172D-04 0.208D-03 0.784D-03 0.133D-02 0.219D-02-0.657D-02
 Coeff:     -0.599D-01-0.106D+00 0.117D+01
 Gap=     0.369 Goal=   None    Shift=    0.000
 RMSDP=1.65D-06 MaxDP=1.53D-05 DE=-2.02D-08 OVMax= 3.16D-05

 Cycle  10  Pass 1  IDiag  1:
 E= -191.782875079768     Delta-E=       -0.000000001551 Rises=F Damp=F
 DIIS: error= 1.11D-06 at cycle  10 NSaved=  10.
 NSaved=10 IEnMin=10 EnMin= -191.782875079768     IErMin=10 ErrMin= 1.11D-06
 ErrMax= 1.11D-06  0.00D+00 EMaxC= 1.00D-01 BMatC= 2.08D-11 BMatP= 2.45D-10
 IDIUse=1 WtCom= 1.00D+00 WtEn= 0.00D+00
 Coeff-Com:  0.490D-05-0.110D-03-0.358D-03-0.556D-03 0.128D-03 0.651D-02
 Coeff-Com:  0.163D-01-0.149D-01-0.388D+00 0.138D+01
 Coeff:      0.490D-05-0.110D-03-0.358D-03-0.556D-03 0.128D-03 0.651D-02
 Coeff:      0.163D-01-0.149D-01-0.388D+00 0.138D+01
 Gap=     0.369 Goal=   None    Shift=    0.000
 RMSDP=5.92D-07 MaxDP=5.93D-06 DE=-1.55D-09 OVMax= 1.41D-05

 Cycle  11  Pass 1  IDiag  1:
 E= -191.782875079941     Delta-E=       -0.000000000173 Rises=F Damp=F
 DIIS: error= 3.49D-07 at cycle  11 NSaved=  11.
 NSaved=11 IEnMin=11 EnMin= -191.782875079941     IErMin=11 ErrMin= 3.49D-07
 ErrMax= 3.49D-07  0.00D+00 EMaxC= 1.00D-01 BMatC= 2.26D-12 BMatP= 2.08D-11
 IDIUse=1 WtCom= 1.00D+00 WtEn= 0.00D+00
 Coeff-Com: -0.938D-06 0.305D-04 0.927D-04 0.113D-03-0.196D-03-0.253D-02
 Coeff-Com: -0.234D-02 0.154D-01 0.754D-01-0.611D+00 0.152D+01
 Coeff:     -0.938D-06 0.305D-04 0.927D-04 0.113D-03-0.196D-03-0.253D-02
 Coeff:     -0.234D-02 0.154D-01 0.754D-01-0.611D+00 0.152D+01
 Gap=     0.369 Goal=   None    Shift=    0.000
 RMSDP=1.81D-07 MaxDP=1.54D-06 DE=-1.73D-10 OVMax= 6.25D-06

 Cycle  12  Pass 1  IDiag  1:
 E= -191.782875079961     Delta-E=       -0.000000000020 Rises=F Damp=F
 DIIS: error= 9.32D-08 at cycle  12 NSaved=  12.
 NSaved=12 IEnMin=12 EnMin= -191.782875079961     IErMin=12 ErrMin= 9.32D-08
 ErrMax= 9.32D-08  0.00D+00 EMaxC= 1.00D-01 BMatC= 1.55D-13 BMatP= 2.26D-12
 IDIUse=1 WtCom= 1.00D+00 WtEn= 0.00D+00
 Coeff-Com: -0.112D-06 0.249D-06 0.511D-05 0.141D-04 0.599D-04 0.255D-03
 Coeff-Com: -0.738D-03-0.377D-02 0.115D-01 0.713D-01-0.474D+00 0.140D+01
 Coeff:     -0.112D-06 0.249D-06 0.511D-05 0.141D-04 0.599D-04 0.255D-03
 Coeff:     -0.738D-03-0.377D-02 0.115D-01 0.713D-01-0.474D+00 0.140D+01
 Gap=     0.369 Goal=   None    Shift=    0.000
 RMSDP=4.44D-08 MaxDP=4.15D-07 DE=-2.03D-11 OVMax= 1.68D-06

 Cycle  13  Pass 1  IDiag  1:
 E= -191.782875079962     Delta-E=       -0.000000000001 Rises=F Damp=F
 DIIS: error= 1.63D-08 at cycle  13 NSaved=  13.
 NSaved=13 IEnMin=13 EnMin= -191.782875079962     IErMin=13 ErrMin= 1.63D-08
 ErrMax= 1.63D-08  0.00D+00 EMaxC= 1.00D-01 BMatC= 1.06D-14 BMatP= 1.55D-13
 IDIUse=1 WtCom= 1.00D+00 WtEn= 0.00D+00
 Coeff-Com:  0.811D-07-0.198D-05-0.729D-05-0.864D-05-0.637D-06 0.112D-03
 Coeff-Com:  0.312D-03-0.288D-03-0.696D-02 0.245D-01 0.367D-02-0.353D+00
 Coeff-Com:  0.133D+01
 Coeff:      0.811D-07-0.198D-05-0.729D-05-0.864D-05-0.637D-06 0.112D-03
 Coeff:      0.312D-03-0.288D-03-0.696D-02 0.245D-01 0.367D-02-0.353D+00
 Coeff:      0.133D+01
 Gap=     0.369 Goal=   None    Shift=    0.000
 RMSDP=1.37D-08 MaxDP=1.12D-07 DE=-8.53D-13 OVMax= 3.54D-07

 Cycle  14  Pass 1  IDiag  1:
 E= -191.782875079962     Delta-E=        0.000000000000 Rises=F Damp=F
 DIIS: error= 2.24D-09 at cycle  14 NSaved=  14.
 NSaved=14 IEnMin=13 EnMin= -191.782875079962     IErMin=14 ErrMin= 2.24D-09
 ErrMax= 2.24D-09  0.00D+00 EMaxC= 1.00D-01 BMatC= 4.01D-16 BMatP= 1.06D-14
 IDIUse=1 WtCom= 1.00D+00 WtEn= 0.00D+00
 Coeff-Com: -0.869D-08 0.266D-06 0.761D-06 0.745D-06-0.432D-05-0.304D-04
 Coeff-Com: -0.193D-04 0.232D-03 0.514D-03-0.764D-02 0.247D-01-0.211D-01
 Coeff-Com: -0.183D+00 0.119D+01
 Coeff:     -0.869D-08 0.266D-06 0.761D-06 0.745D-06-0.432D-05-0.304D-04
 Coeff:     -0.193D-04 0.232D-03 0.514D-03-0.764D-02 0.247D-01-0.211D-01
 Coeff:     -0.183D+00 0.119D+01
 Gap=     0.369 Goal=   None    Shift=    0.000
 RMSDP=1.96D-09 MaxDP=1.55D-08 DE= 3.98D-13 OVMax= 3.48D-08

 SCF Done:  E(RwB97XD) =  -191.782875080     A.U. after   14 cycles
            NFock= 14  Conv=0.20D-08     -V/T= 2.0061
 KE= 1.906254151652D+02 PE=-6.520744385363D+02 EE= 1.673117309591D+02
 Leave Link  502 at Wed May 12 11:58:25 2021, MaxMem=  2147483648 cpu:         9.3
 (Enter /opt/cluster/programs/g09_d.01/g09/l601.exe)
 Copying SCF densities to generalized density rwf, IOpCl= 0 IROHF=0.

 **********************************************************************

            Population analysis using the SCF density.

 **********************************************************************

 Orbital symmetries:
       Occupied  (A) (A) (A) (A) (A) (A) (A) (A) (A) (A) (A) (A)
                 (A) (A) (A)
       Virtual   (A) (A) (A) (A) (A) (A) (A) (A) (A) (A) (A) (A)
                 (A) (A) (A) (A) (A) (A) (A) (A) (A) (A) (A) (A)
                 (A) (A) (A) (A) (A) (A) (A) (A) (A) (A) (A) (A)
                 (A) (A) (A) (A) (A) (A) (A) (A) (A)
 The electronic state is 1-A.
 Alpha  occ. eigenvalues --  -19.29713 -10.41369 -10.33333 -10.32626  -1.17564
 Alpha  occ. eigenvalues --   -0.90968  -0.76668  -0.66270  -0.60472  -0.55804
 Alpha  occ. eigenvalues --   -0.54040  -0.48865  -0.46816  -0.37751  -0.35495
 Alpha virt. eigenvalues --    0.01396   0.04376   0.07574   0.08409   0.09412
 Alpha virt. eigenvalues --    0.11026   0.12441   0.13401   0.14680   0.16639
 Alpha virt. eigenvalues --    0.17151   0.17767   0.19437   0.22426   0.27252
 Alpha virt. eigenvalues --    0.28372   0.29706   0.31110   0.32960   0.33392
 Alpha virt. eigenvalues --    0.37094   0.38941   0.45109   0.45486   0.50152
 Alpha virt. eigenvalues --    0.69486   0.72140   0.75900   0.77671   0.80802
 Alpha virt. eigenvalues --    0.85032   0.89503   0.90506   1.01669   1.05142
 Alpha virt. eigenvalues --    1.09834   1.11816   1.13452   1.23506   1.27092
 Alpha virt. eigenvalues --    1.31320   1.31729   1.38626   1.47016   1.89055
          Condensed to atoms (all electrons):
               1          2          3          4          5          6
     1  C    5.077678   0.509473   0.013479  -0.007737   0.001903   0.375947
     2  C    0.509473   5.324930   0.231728  -0.121360  -0.086886  -0.028340
     3  C    0.013479   0.231728   5.073241   0.309309   0.349254   0.005803
     4  O   -0.007737  -0.121360   0.309309   8.269701  -0.072026  -0.000194
     5  H    0.001903  -0.086886   0.349254  -0.072026   0.621398  -0.000139
     6  H    0.375947  -0.028340   0.005803  -0.000194  -0.000139   0.471577
     7  H    0.392963  -0.056323   0.007457   0.000739   0.000140  -0.022967
     8  H    0.025566   0.324055  -0.032001   0.002904   0.001431  -0.004341
               7          8
     1  C    0.392963   0.025566
     2  C   -0.056323   0.324055
     3  C    0.007457  -0.032001
     4  O    0.000739   0.002904
     5  H    0.000140   0.001431
     6  H   -0.022967  -0.004341
     7  H    0.466482   0.002527
     8  H    0.002527   0.450265
 Mulliken charges:
               1
     1  C   -0.389272
     2  C   -0.097277
     3  C    0.041729
     4  O   -0.381336
     5  H    0.184924
     6  H    0.202654
     7  H    0.208983
     8  H    0.229594
 Sum of Mulliken charges =   0.00000
 Mulliken charges with hydrogens summed into heavy atoms:
               1
     1  C    0.022366
     2  C    0.132318
     3  C    0.226653
     4  O   -0.381336
 Electronic spatial extent (au):  <R**2>=            290.3408
 Charge=              0.0000 electrons
 Dipole moment (field-independent basis, Debye):
    X=              2.5842    Y=              1.6716    Z=              1.1021  Tot=              3.2691
 Quadrupole moment (field-independent basis, Debye-Ang):
   XX=            -26.6221   YY=            -22.8188   ZZ=            -24.5782
   XY=             -2.9466   XZ=             -2.1052   YZ=             -1.6247
 Traceless Quadrupole moment (field-independent basis, Debye-Ang):
   XX=             -1.9491   YY=              1.8542   ZZ=              0.0949
   XY=             -2.9466   XZ=             -2.1052   YZ=             -1.6247
 Octapole moment (field-independent basis, Debye-Ang**2):
  XXX=             10.8723  YYY=             -0.0183  ZZZ=              0.5690  XYY=             -0.2911
  XXY=              2.2927  XXZ=              0.0834  XZZ=             -3.4262  YZZ=              0.6326
  YYZ=              0.2558  XYZ=             -1.6817
 Hexadecapole moment (field-independent basis, Debye-Ang**3):
 XXXX=           -273.6368 YYYY=            -61.8115 ZZZZ=            -42.4115 XXXY=             -6.7172
 XXXZ=             -6.2053 YYYX=              0.5023 YYYZ=             -3.7513 ZZZX=             -0.6855
 ZZZY=             -0.8769 XXYY=            -56.4676 XXZZ=            -53.9912 YYZZ=            -16.6780
 XXYZ=             -2.5648 YYXZ=             -0.6620 ZZXY=             -0.4856
 N-N= 1.023544173321D+02 E-N=-6.520744385551D+02  KE= 1.906254151652D+02
 No NMR shielding tensors so no spin-rotation constants.
 Leave Link  601 at Wed May 12 11:58:25 2021, MaxMem=  2147483648 cpu:         0.6
 (Enter /opt/cluster/programs/g09_d.01/g09/l701.exe)
 Compute integral first derivatives.
 ... and contract with generalized density number  0.
 R6Disp: Adding Grimme-D2 dispersion energy 1st derivatives to the gradient.
 Leave Link  701 at Wed May 12 11:58:25 2021, MaxMem=  2147483648 cpu:         0.6
 (Enter /opt/cluster/programs/g09_d.01/g09/l702.exe)
 L702 exits ... SP integral derivatives will be done elsewhere.
 Leave Link  702 at Wed May 12 11:58:25 2021, MaxMem=  2147483648 cpu:         0.2
 (Enter /opt/cluster/programs/g09_d.01/g09/l703.exe)
 Compute integral first derivatives, UseDBF=F ICtDFT=           0.
 Integral derivatives from FoFJK, PRISM(SPDF).
 Calling FoFJK, ICntrl=      2127 FMM=F ISym2X=0 I1Cent= 0 IOpClX= 0 NMat=1 NMatS=1 NMatT=0.
 FoFJK:  IHMeth= 1 ICntrl=    2127 DoSepK=T KAlg= 0 I1Cent=   0 FoldK=F
 IRaf=         1 NMat=   1 IRICut=       1 DoRegI=T DoRafI=F ISym2E= 0.
 FoFCou: FMM=F IPFlag=           0 FMFlag=      100000 FMFlg1=         800
         NFxFlg=           0 DoJE=F BraDBF=F KetDBF=F FulRan=T
         wScrn=  0.000000 ICntrl=    2527 IOpCl=  0 I1Cent=           0 NGrid=           0
         NMat0=    1 NMatS0=      1 NMatT0=    0 NMatD0=    1 NMtDS0=    0 NMtDT0=    0
 Symmetry not used in FoFCou.
 Leave Link  703 at Wed May 12 11:58:26 2021, MaxMem=  2147483648 cpu:         2.4
 (Enter /opt/cluster/programs/g09_d.01/g09/l716.exe)
 Dipole        = 1.01670356D+00 6.57649778D-01 4.33588650D-01
 ***** Axes restored to original set *****
 -------------------------------------------------------------------
 Center     Atomic                   Forces (Hartrees/Bohr)
 Number     Number              X              Y              Z
 -------------------------------------------------------------------
      1        6          -0.004376442   -0.000576505    0.003577339
      2        6           0.004541610    0.000864585   -0.006497719
      3        6          -0.007074145    0.000531234    0.007273460
      4        8           0.007778134   -0.002393244   -0.005883622
      5        1           0.000462360    0.001311110    0.001347832
      6        1          -0.000779744   -0.000397517   -0.000035664
      7        1          -0.000368078   -0.000424519    0.000320061
      8        1          -0.000183695    0.001084856   -0.000101686
 -------------------------------------------------------------------
 Cartesian Forces:  Max     0.007778134 RMS     0.003571332
 Leave Link  716 at Wed May 12 11:58:26 2021, MaxMem=  2147483648 cpu:         0.2
 (Enter /opt/cluster/programs/g09_d.01/g09/l103.exe)

 GradGradGradGradGradGradGradGradGradGradGradGradGradGradGradGradGradGrad
 Berny optimization.
 FormGI is forming the generalized inverse of G from B-inverse, IUseBI=4.
 Internal  Forces:  Max     0.009218210 RMS     0.002648282
 Search for a local minimum.
 Step number   1 out of a maximum of   34
 All quantities printed in internal units (Hartrees-Bohrs-Radians)
 RMS Force = .23890D-02 SwitMx=.10000D-02 MixMth= 1
 Mixed Optimization -- RFO/linear search
 Second derivative matrix not updated -- first step.
 ITU=  0
     Eigenvalues ---    0.00908   0.01762   0.02880   0.02881   0.15948
     Eigenvalues ---    0.16000   0.16000   0.16000   0.22005   0.22013
     Eigenvalues ---    0.33060   0.33475   0.34650   0.35173   0.35317
     Eigenvalues ---    0.57166   0.871461000.000001000.000001000.00000
     Eigenvalues --- 1000.000001000.000001000.000001000.00000
 RFO step:  Lambda=-2.14011213D-04 EMin= 9.08473533D-03
 Linear search not attempted -- first point.
 Iteration  1 RMS(Cart)=  0.01078294 RMS(Int)=  0.00005790
 Iteration  2 RMS(Cart)=  0.00005379 RMS(Int)=  0.00001373
 Iteration  3 RMS(Cart)=  0.00000000 RMS(Int)=  0.00001373
 Iteration  1 RMS(Cart)=  0.00000023 RMS(Int)=  0.00000018
 ITry= 1 IFail=0 DXMaxC= 2.49D-02 DCOld= 1.00D+10 DXMaxT= 3.00D-01 DXLimC= 3.00D+00 Rises=F
 Variable       Old X    -DE/DX   Delta X   Delta X   Delta X     New X
                                 (Linear)    (Quad)   (Total)
    R1        2.53256  -0.00573   0.00000  -0.01002  -0.01002   2.52254
    R2        2.05163  -0.00067   0.00000  -0.00190  -0.00190   2.04973
    R3        2.05395  -0.00046   0.00000  -0.00131  -0.00131   2.05264
    R4        2.81526  -0.00205   0.00000  -0.00611  -0.00611   2.80915
    R5        2.06247  -0.00102   0.00000  -0.00295  -0.00295   2.05952
    R6        2.34277  -0.00922   0.00000  -0.01058  -0.01058   2.33219
    R7        2.08946  -0.00192   0.00000  -0.00581  -0.00581   2.08365
    A1        2.12094  -0.00047   0.00000  -0.00291  -0.00291   2.11803
    A2        2.12648  -0.00021   0.00000  -0.00131  -0.00131   2.12518
    A3        2.03569   0.00067   0.00000   0.00420   0.00420   2.03988
    A4        2.16665  -0.00102   0.00000  -0.00468  -0.00469   2.16195
    A5        2.10674   0.00061   0.00000   0.00215   0.00214   2.10887
    A6        2.00523   0.00059   0.00000   0.00329   0.00328   2.00851
    A7        2.17743  -0.00083   0.00000  -0.00385  -0.00389   2.17354
    A8        2.02113   0.00064   0.00000   0.00316   0.00312   2.02425
    A9        2.08315   0.00038   0.00000   0.00151   0.00147   2.08462
    D1       -3.08564  -0.00098   0.00000  -0.00231  -0.00231  -3.08796
    D2       -0.05205   0.00111   0.00000   0.00674   0.00674  -0.04531
    D3        0.06975  -0.00093   0.00000  -0.00065  -0.00065   0.06910
    D4        3.10335   0.00115   0.00000   0.00840   0.00840   3.11175
    D5       -1.39625   0.00479   0.00000   0.00000   0.00000  -1.39625
    D6        1.80436   0.00080   0.00000  -0.01639  -0.01639   1.78797
    D7        1.84768   0.00280   0.00000  -0.00855  -0.00855   1.83913
    D8       -1.23489  -0.00118   0.00000  -0.02494  -0.02494  -1.25983
         Item               Value     Threshold  Converged?
 Maximum Force            0.009218     0.000450     NO 
 RMS     Force            0.002389     0.000300     NO 
 Maximum Displacement     0.024868     0.001800     NO 
 RMS     Displacement     0.010794     0.001200     NO 
 Predicted change in Energy=-1.071430D-04
 Lowest energy point so far.  Saving SCF results.
 GradGradGradGradGradGradGradGradGradGradGradGradGradGradGradGradGradGrad

 Leave Link  103 at Wed May 12 11:58:26 2021, MaxMem=  2147483648 cpu:         0.0
 (Enter /opt/cluster/programs/g09_d.01/g09/l202.exe)
                          Input orientation:                          
 ---------------------------------------------------------------------
 Center     Atomic      Atomic             Coordinates (Angstroms)
 Number     Number       Type             X           Y           Z
 ---------------------------------------------------------------------
      1          6           0        1.622351    0.374032   -0.071086
      2          6           0        0.635571   -0.486841    0.187839
      3          6           0       -0.760631   -0.315668   -0.292904
      4          8           0       -1.596432    0.423643    0.234317
      5          1           0       -1.052722   -0.933504   -1.158194
      6          1           0        2.638038    0.184146    0.258811
      7          1           0        1.445700    1.301739   -0.607748
      8          1           0        0.834780   -1.426234    0.703238
 ---------------------------------------------------------------------
                    Distance matrix (angstroms):
                    1          2          3          4          5
     1  C    0.000000
     2  C    1.334870   0.000000
     3  C    2.490681   1.486537   0.000000
     4  O    3.233620   2.411012   1.234142   0.000000
     5  H    3.169775   2.204915   1.102618   2.019048   0.000000
     6  H    1.084670   2.113087   3.479246   4.241308   4.108377
     7  H    1.086211   2.118557   2.753730   3.276384   3.397266
     8  H    2.112061   1.089853   2.184260   3.090748   2.696364
                    6          7          8
     6  H    0.000000
     7  H    1.849759   0.000000
     8  H    2.458166   3.087676   0.000000
 Stoichiometry    C3H4O
 Framework group  C1[X(C3H4O)]
 Deg. of freedom    18
 Full point group                 C1      NOp   1
 RotChk:  IX=0 Diff= 6.45D-03
 Largest Abelian subgroup         C1      NOp   1
 Largest concise Abelian subgroup C1      NOp   1
                         Standard orientation:                         
 ---------------------------------------------------------------------
 Center     Atomic      Atomic             Coordinates (Angstroms)
 Number     Number       Type             X           Y           Z
 ---------------------------------------------------------------------
      1          6           0        1.619560   -0.377140    0.069158
      2          6           0        0.633170    0.485460   -0.185467
      3          6           0       -0.762926    0.312934    0.295098
      4          8           0       -1.599381   -0.423512   -0.235087
      5          1           0       -1.054291    0.927038    1.163285
      6          1           0        2.635217   -0.186360   -0.260316
      7          1           0        1.442598   -1.307151    0.601715
      8          1           0        0.832705    1.427048   -0.696719
 ---------------------------------------------------------------------
 Rotational constants (GHZ):     28.3368268      5.0777879      4.6728705
 Leave Link  202 at Wed May 12 11:58:26 2021, MaxMem=  2147483648 cpu:         0.0
 (Enter /opt/cluster/programs/g09_d.01/g09/l301.exe)
 Standard basis: 6-31+G (6D, 7F)
 Ernie: Thresh=  0.10000D-02 Tol=  0.10000D-05 Strict=F.
 There are    60 symmetry adapted cartesian basis functions of A   symmetry.
 There are    60 symmetry adapted basis functions of A   symmetry.
    60 basis functions,   120 primitive gaussians,    60 cartesian basis functions
    15 alpha electrons       15 beta electrons
       nuclear repulsion energy       102.7259212791 Hartrees.
 IExCor= 4639 DFT=T Ex+Corr=wB97XD ExCW=0 ScaHFX=  1.000000
 ScaDFX=  1.000000  1.000000  1.000000  1.000000 ScalE2=  1.000000  1.000000
 IRadAn=      0 IRanWt=     -1 IRanGd=            0 ICorTp=0 IEmpDi=121
  HFx wShort=  0.000000 wLong=  0.200000 cFull=  0.222036 cShort=  0.000000 cLong=  0.777964
  DFx wShort=  0.000000 wLong=  0.200000 cFull=  0.000000 cShort=  0.000000 cLong=  1.000000
 NAtoms=    8 NActive=    8 NUniq=    8 SFac= 1.00D+00 NAtFMM=   60 NAOKFM=F Big=F
 Integral buffers will be    131072 words long.
 Raffenetti 2 integral format.
 Two-electron integral symmetry is turned on.
 R6Disp:  Grimme-D2 Dispersion energy=       -0.0017852687 Hartrees.
 Nuclear repulsion after empirical dispersion term =      102.7241360105 Hartrees.
 Leave Link  301 at Wed May 12 11:58:26 2021, MaxMem=  2147483648 cpu:         0.3
 (Enter /opt/cluster/programs/g09_d.01/g09/l302.exe)
 NPDir=0 NMtPBC=     1 NCelOv=     1 NCel=       1 NClECP=     1 NCelD=      1
         NCelK=      1 NCelE2=     1 NClLst=     1 CellRange=     0.0.
 One-electron integrals computed using PRISM.
 NBasis=    60 RedAO= T EigKep=  1.27D-04  NBF=    60
 NBsUse=    60 1.00D-06 EigRej= -1.00D+00 NBFU=    60
 Precomputing XC quadrature grid using
 IXCGrd= 4 IRadAn=           0 IRanWt=          -1 IRanGd=           0 AccXCQ= 0.00D+00.
 Generated NRdTot=       0 NPtTot=           0 NUsed=           0 NTot=          32
 NSgBfM=    60    60    60    60    60 MxSgAt=     8 MxSgA2=     8.
 Leave Link  302 at Wed May 12 11:58:26 2021, MaxMem=  2147483648 cpu:         0.8
 (Enter /opt/cluster/programs/g09_d.01/g09/l303.exe)
 DipDrv:  MaxL=1.
 Leave Link  303 at Wed May 12 11:58:26 2021, MaxMem=  2147483648 cpu:         0.2
 (Enter /opt/cluster/programs/g09_d.01/g09/l401.exe)
 Initial guess from the checkpoint file:  "/home/unibas/boittier/RDKit_G2/L.pdb/SCAN_1_2_3_4_S_17_20.0/5_SCAN_1_2_3_4_F/L.pdb.chk"
 B after Tr=     0.000000    0.000000    0.000000
         Rot=    0.999997   -0.002334    0.000265    0.000215 Ang=  -0.27 deg.
 Guess basis will be translated and rotated to current coordinates.
 JPrj=2 DoOrth=T DoCkMO=T.
 Generating alternative initial guess.
 ExpMin= 4.38D-02 ExpMax= 5.48D+03 ExpMxC= 8.25D+02 IAcc=2 IRadAn=         4 AccDes= 0.00D+00
 Harris functional with IExCor= 4639 and IRadAn=       4 diagonalized for initial guess.
 HarFok:  IExCor= 4639 AccDes= 0.00D+00 IRadAn=         4 IDoV= 1 UseB2=F ITyADJ=14
 ICtDFT=  3500011 ScaDFX=  1.000000  1.000000  1.000000  1.000000
 FoFCou: FMM=F IPFlag=           0 FMFlag=      100000 FMFlg1=           0
         NFxFlg=           0 DoJE=T BraDBF=F KetDBF=T FulRan=T
         wScrn=  0.000000 ICntrl=     500 IOpCl=  0 I1Cent=   200000004 NGrid=           0
         NMat0=    1 NMatS0=      1 NMatT0=    0 NMatD0=    1 NMtDS0=    0 NMtDT0=    0
 Petite list used in FoFCou.
 Harris En= -183.738237982901    
 Leave Link  401 at Wed May 12 11:58:26 2021, MaxMem=  2147483648 cpu:         1.4
 (Enter /opt/cluster/programs/g09_d.01/g09/l502.exe)
 Closed shell SCF:
 Using DIIS extrapolation, IDIIS=  1040.
 Integral symmetry usage will be decided dynamically.
 Keep R1 ints in memory in canonical form, NReq=4262490.
 IVT=       30290 IEndB=       30290 NGot=  2147483648 MDV=  2144102629
 LenX=  2144102629 LenY=  2144098588
 Requested convergence on RMS density matrix=1.00D-08 within 128 cycles.
 Requested convergence on MAX density matrix=1.00D-06.
 Requested convergence on             energy=1.00D-06.
 No special actions if energy rises.
 FoFCou: FMM=F IPFlag=           0 FMFlag=           0 FMFlg1=           0
         NFxFlg=           0 DoJE=F BraDBF=F KetDBF=F FulRan=T
         wScrn=  0.000000 ICntrl=     600 IOpCl=  0 I1Cent=           0 NGrid=           0
         NMat0=    1 NMatS0=   1830 NMatT0=    0 NMatD0=    1 NMtDS0=    0 NMtDT0=    0
 Symmetry not used in FoFCou.

 Cycle   1  Pass 1  IDiag  1:
 E= -191.782904916828    
 DIIS: error= 6.35D-04 at cycle   1 NSaved=   1.
 NSaved= 1 IEnMin= 1 EnMin= -191.782904916828     IErMin= 1 ErrMin= 6.35D-04
 ErrMax= 6.35D-04  0.00D+00 EMaxC= 1.00D-01 BMatC= 3.90D-05 BMatP= 3.90D-05
 IDIUse=3 WtCom= 9.94D-01 WtEn= 6.35D-03
 Coeff-Com:  0.100D+01
 Coeff-En:   0.100D+01
 Coeff:      0.100D+01
 Gap=     0.606 Goal=   None    Shift=    0.000
 RMSDP=2.43D-04 MaxDP=2.29D-03              OVMax= 2.68D-03

 Cycle   2  Pass 1  IDiag  1:
 E= -191.782967342903     Delta-E=       -0.000062426074 Rises=F Damp=F
 DIIS: error= 1.83D-04 at cycle   2 NSaved=   2.
 NSaved= 2 IEnMin= 2 EnMin= -191.782967342903     IErMin= 2 ErrMin= 1.83D-04
 ErrMax= 1.83D-04  0.00D+00 EMaxC= 1.00D-01 BMatC= 3.84D-06 BMatP= 3.90D-05
 IDIUse=3 WtCom= 9.98D-01 WtEn= 1.83D-03
 Coeff-Com:  0.679D-01 0.932D+00
 Coeff-En:   0.000D+00 0.100D+01
 Coeff:      0.678D-01 0.932D+00
 Gap=     0.371 Goal=   None    Shift=    0.000
 RMSDP=7.67D-05 MaxDP=6.71D-04 DE=-6.24D-05 OVMax= 1.36D-03

 Cycle   3  Pass 1  IDiag  1:
 E= -191.782973561606     Delta-E=       -0.000006218703 Rises=F Damp=F
 DIIS: error= 1.22D-04 at cycle   3 NSaved=   3.
 NSaved= 3 IEnMin= 3 EnMin= -191.782973561606     IErMin= 3 ErrMin= 1.22D-04
 ErrMax= 1.22D-04  0.00D+00 EMaxC= 1.00D-01 BMatC= 2.00D-06 BMatP= 3.84D-06
 IDIUse=3 WtCom= 9.99D-01 WtEn= 1.22D-03
 Coeff-Com: -0.583D-01 0.396D+00 0.663D+00
 Coeff-En:   0.000D+00 0.000D+00 0.100D+01
 Coeff:     -0.582D-01 0.395D+00 0.663D+00
 Gap=     0.370 Goal=   None    Shift=    0.000
 RMSDP=3.67D-05 MaxDP=3.72D-04 DE=-6.22D-06 OVMax= 7.00D-04

 Cycle   4  Pass 1  IDiag  1:
 E= -191.782975879742     Delta-E=       -0.000002318136 Rises=F Damp=F
 DIIS: error= 7.53D-05 at cycle   4 NSaved=   4.
 NSaved= 4 IEnMin= 4 EnMin= -191.782975879742     IErMin= 4 ErrMin= 7.53D-05
 ErrMax= 7.53D-05  0.00D+00 EMaxC= 1.00D-01 BMatC= 5.87D-07 BMatP= 2.00D-06
 IDIUse=1 WtCom= 1.00D+00 WtEn= 0.00D+00
 Coeff-Com: -0.464D-01 0.101D+00 0.379D+00 0.566D+00
 Coeff:     -0.464D-01 0.101D+00 0.379D+00 0.566D+00
 Gap=     0.370 Goal=   None    Shift=    0.000
 RMSDP=1.54D-05 MaxDP=2.43D-04 DE=-2.32D-06 OVMax= 4.03D-04

 Cycle   5  Pass 1  IDiag  1:
 E= -191.782976621628     Delta-E=       -0.000000741886 Rises=F Damp=F
 DIIS: error= 4.63D-05 at cycle   5 NSaved=   5.
 NSaved= 5 IEnMin= 5 EnMin= -191.782976621628     IErMin= 5 ErrMin= 4.63D-05
 ErrMax= 4.63D-05  0.00D+00 EMaxC= 1.00D-01 BMatC= 3.67D-08 BMatP= 5.87D-07
 IDIUse=1 WtCom= 1.00D+00 WtEn= 0.00D+00
 Coeff-Com:  0.148D-01-0.951D-01-0.160D+00-0.137D-01 0.125D+01
 Coeff:      0.148D-01-0.951D-01-0.160D+00-0.137D-01 0.125D+01
 Gap=     0.370 Goal=   None    Shift=    0.000
 RMSDP=1.56D-05 MaxDP=1.03D-04 DE=-7.42D-07 OVMax= 5.59D-04

 Cycle   6  Pass 1  IDiag  1:
 E= -191.782976878040     Delta-E=       -0.000000256411 Rises=F Damp=F
 DIIS: error= 1.44D-05 at cycle   6 NSaved=   6.
 NSaved= 6 IEnMin= 6 EnMin= -191.782976878040     IErMin= 6 ErrMin= 1.44D-05
 ErrMax= 1.44D-05  0.00D+00 EMaxC= 1.00D-01 BMatC= 7.81D-09 BMatP= 3.67D-08
 IDIUse=1 WtCom= 1.00D+00 WtEn= 0.00D+00
 Coeff-Com:  0.914D-02-0.393D-01-0.885D-01-0.695D-01 0.399D+00 0.790D+00
 Coeff:      0.914D-02-0.393D-01-0.885D-01-0.695D-01 0.399D+00 0.790D+00
 Gap=     0.370 Goal=   None    Shift=    0.000
 RMSDP=4.58D-06 MaxDP=4.84D-05 DE=-2.56D-07 OVMax= 1.71D-04

 Cycle   7  Pass 1  IDiag  1:
 E= -191.782976910318     Delta-E=       -0.000000032278 Rises=F Damp=F
 DIIS: error= 7.30D-06 at cycle   7 NSaved=   7.
 NSaved= 7 IEnMin= 7 EnMin= -191.782976910318     IErMin= 7 ErrMin= 7.30D-06
 ErrMax= 7.30D-06  0.00D+00 EMaxC= 1.00D-01 BMatC= 1.93D-09 BMatP= 7.81D-09
 IDIUse=1 WtCom= 1.00D+00 WtEn= 0.00D+00
 Coeff-Com: -0.215D-02 0.210D-01 0.272D-01-0.220D-01-0.321D+00 0.264D+00
 Coeff-Com:  0.103D+01
 Coeff:     -0.215D-02 0.210D-01 0.272D-01-0.220D-01-0.321D+00 0.264D+00
 Coeff:      0.103D+01
 Gap=     0.370 Goal=   None    Shift=    0.000
 RMSDP=3.42D-06 MaxDP=3.44D-05 DE=-3.23D-08 OVMax= 1.39D-04

 Cycle   8  Pass 1  IDiag  1:
 E= -191.782976921239     Delta-E=       -0.000000010921 Rises=F Damp=F
 DIIS: error= 1.90D-06 at cycle   8 NSaved=   8.
 NSaved= 8 IEnMin= 8 EnMin= -191.782976921239     IErMin= 8 ErrMin= 1.90D-06
 ErrMax= 1.90D-06  0.00D+00 EMaxC= 1.00D-01 BMatC= 1.19D-10 BMatP= 1.93D-09
 IDIUse=1 WtCom= 1.00D+00 WtEn= 0.00D+00
 Coeff-Com: -0.118D-02 0.627D-02 0.116D-01 0.677D-02-0.788D-01-0.371D-01
 Coeff-Com:  0.957D-01 0.997D+00
 Coeff:     -0.118D-02 0.627D-02 0.116D-01 0.677D-02-0.788D-01-0.371D-01
 Coeff:      0.957D-01 0.997D+00
 Gap=     0.370 Goal=   None    Shift=    0.000
 RMSDP=7.83D-07 MaxDP=7.93D-06 DE=-1.09D-08 OVMax= 3.04D-05

 Cycle   9  Pass 1  IDiag  1:
 E= -191.782976921900     Delta-E=       -0.000000000661 Rises=F Damp=F
 DIIS: error= 5.98D-07 at cycle   9 NSaved=   9.
 NSaved= 9 IEnMin= 9 EnMin= -191.782976921900     IErMin= 9 ErrMin= 5.98D-07
 ErrMax= 5.98D-07  0.00D+00 EMaxC= 1.00D-01 BMatC= 2.41D-11 BMatP= 1.19D-10
 IDIUse=1 WtCom= 1.00D+00 WtEn= 0.00D+00
 Coeff-Com:  0.152D-03-0.246D-02-0.234D-02 0.603D-02 0.408D-01-0.545D-01
 Coeff-Com: -0.177D+00 0.270D+00 0.919D+00
 Coeff:      0.152D-03-0.246D-02-0.234D-02 0.603D-02 0.408D-01-0.545D-01
 Coeff:     -0.177D+00 0.270D+00 0.919D+00
 Gap=     0.370 Goal=   None    Shift=    0.000
 RMSDP=2.79D-07 MaxDP=1.97D-06 DE=-6.61D-10 OVMax= 9.38D-06

 Cycle  10  Pass 1  IDiag  1:
 E= -191.782976921985     Delta-E=       -0.000000000085 Rises=F Damp=F
 DIIS: error= 1.73D-07 at cycle  10 NSaved=  10.
 NSaved=10 IEnMin=10 EnMin= -191.782976921985     IErMin=10 ErrMin= 1.73D-07
 ErrMax= 1.73D-07  0.00D+00 EMaxC= 1.00D-01 BMatC= 7.32D-13 BMatP= 2.41D-11
 IDIUse=1 WtCom= 1.00D+00 WtEn= 0.00D+00
 Coeff-Com:  0.458D-04 0.991D-05-0.257D-03-0.187D-02-0.134D-02 0.112D-01
 Coeff-Com:  0.235D-01-0.107D+00-0.164D+00 0.124D+01
 Coeff:      0.458D-04 0.991D-05-0.257D-03-0.187D-02-0.134D-02 0.112D-01
 Coeff:      0.235D-01-0.107D+00-0.164D+00 0.124D+01
 Gap=     0.370 Goal=   None    Shift=    0.000
 RMSDP=8.36D-08 MaxDP=5.88D-07 DE=-8.52D-11 OVMax= 1.91D-06

 Cycle  11  Pass 1  IDiag  1:
 E= -191.782976921992     Delta-E=       -0.000000000006 Rises=F Damp=F
 DIIS: error= 2.42D-08 at cycle  11 NSaved=  11.
 NSaved=11 IEnMin=11 EnMin= -191.782976921992     IErMin=11 ErrMin= 2.42D-08
 ErrMax= 2.42D-08  0.00D+00 EMaxC= 1.00D-01 BMatC= 3.00D-14 BMatP= 7.32D-13
 IDIUse=1 WtCom= 1.00D+00 WtEn= 0.00D+00
 Coeff-Com: -0.131D-04 0.104D-03 0.130D-03 0.617D-04-0.169D-02 0.106D-02
 Coeff-Com:  0.405D-02 0.471D-02-0.243D-01-0.181D+00 0.120D+01
 Coeff:     -0.131D-04 0.104D-03 0.130D-03 0.617D-04-0.169D-02 0.106D-02
 Coeff:      0.405D-02 0.471D-02-0.243D-01-0.181D+00 0.120D+01
 Gap=     0.370 Goal=   None    Shift=    0.000
 RMSDP=2.62D-08 MaxDP=2.55D-07 DE=-6.14D-12 OVMax= 4.16D-07

 Cycle  12  Pass 1  IDiag  1:
 E= -191.782976921991     Delta-E=        0.000000000000 Rises=F Damp=F
 DIIS: error= 4.73D-09 at cycle  12 NSaved=  12.
 NSaved=12 IEnMin=11 EnMin= -191.782976921992     IErMin=12 ErrMin= 4.73D-09
 ErrMax= 4.73D-09  0.00D+00 EMaxC= 1.00D-01 BMatC= 1.03D-15 BMatP= 3.00D-14
 IDIUse=1 WtCom= 1.00D+00 WtEn= 0.00D+00
 Coeff-Com:  0.710D-06-0.196D-04-0.149D-04 0.553D-04 0.387D-03-0.655D-03
 Coeff-Com: -0.178D-02 0.350D-02 0.112D-01-0.762D-02-0.282D+00 0.128D+01
 Coeff:      0.710D-06-0.196D-04-0.149D-04 0.553D-04 0.387D-03-0.655D-03
 Coeff:     -0.178D-02 0.350D-02 0.112D-01-0.762D-02-0.282D+00 0.128D+01
 Gap=     0.370 Goal=   None    Shift=    0.000
 RMSDP=6.04D-09 MaxDP=6.17D-08 DE= 3.41D-13 OVMax= 8.14D-08

 SCF Done:  E(RwB97XD) =  -191.782976922     A.U. after   12 cycles
            NFock= 12  Conv=0.60D-08     -V/T= 2.0058
 KE= 1.906778050907D+02 PE=-6.528534791852D+02 EE= 1.676685611620D+02
 Leave Link  502 at Wed May 12 11:58:27 2021, MaxMem=  2147483648 cpu:         8.1
 (Enter /opt/cluster/programs/g09_d.01/g09/l701.exe)
 Compute integral first derivatives.
 ... and contract with generalized density number  0.
 R6Disp: Adding Grimme-D2 dispersion energy 1st derivatives to the gradient.
 Leave Link  701 at Wed May 12 11:58:27 2021, MaxMem=  2147483648 cpu:         0.6
 (Enter /opt/cluster/programs/g09_d.01/g09/l702.exe)
 L702 exits ... SP integral derivatives will be done elsewhere.
 Leave Link  702 at Wed May 12 11:58:27 2021, MaxMem=  2147483648 cpu:         0.2
 (Enter /opt/cluster/programs/g09_d.01/g09/l703.exe)
 Compute integral first derivatives, UseDBF=F ICtDFT=           0.
 Integral derivatives from FoFJK, PRISM(SPDF).
 Calling FoFJK, ICntrl=      2127 FMM=F ISym2X=0 I1Cent= 0 IOpClX= 0 NMat=1 NMatS=1 NMatT=0.
 FoFJK:  IHMeth= 1 ICntrl=    2127 DoSepK=T KAlg= 0 I1Cent=   0 FoldK=F
 IRaf=         1 NMat=   1 IRICut=       1 DoRegI=T DoRafI=F ISym2E= 0.
 FoFCou: FMM=F IPFlag=           0 FMFlag=      100000 FMFlg1=         800
         NFxFlg=           0 DoJE=F BraDBF=F KetDBF=F FulRan=T
         wScrn=  0.000000 ICntrl=    2527 IOpCl=  0 I1Cent=           0 NGrid=           0
         NMat0=    1 NMatS0=      1 NMatT0=    0 NMatD0=    1 NMtDS0=    0 NMtDT0=    0
 Symmetry not used in FoFCou.
 Leave Link  703 at Wed May 12 11:58:28 2021, MaxMem=  2147483648 cpu:         2.5
 (Enter /opt/cluster/programs/g09_d.01/g09/l716.exe)
 Dipole        = 1.00370831D+00 6.51003379D-01 4.34529462D-01
 ***** Axes restored to original set *****
 -------------------------------------------------------------------
 Center     Atomic                   Forces (Hartrees/Bohr)
 Number     Number              X              Y              Z
 -------------------------------------------------------------------
      1        6          -0.000247945    0.002508268    0.002757444
      2        6           0.001533347   -0.002789784   -0.004932453
      3        6          -0.002863494   -0.001677717    0.004275566
      4        8           0.001460625    0.002170829   -0.002193763
      5        1          -0.000068471   -0.000355490   -0.000004858
      6        1           0.000064559    0.000061499    0.000018736
      7        1           0.000044455    0.000009288   -0.000061511
      8        1           0.000076924    0.000073107    0.000140839
 -------------------------------------------------------------------
 Cartesian Forces:  Max     0.004932453 RMS     0.001931635
 Leave Link  716 at Wed May 12 11:58:28 2021, MaxMem=  2147483648 cpu:         0.2
 (Enter /opt/cluster/programs/g09_d.01/g09/l103.exe)

 GradGradGradGradGradGradGradGradGradGradGradGradGradGradGradGradGradGrad
 Berny optimization.
 Using GEDIIS/GDIIS optimizer.
 FormGI is forming the generalized inverse of G from B-inverse, IUseBI=4.
 Internal  Forces:  Max     0.004149777 RMS     0.001127527
 Search for a local minimum.
 Step number   2 out of a maximum of   34
 All quantities printed in internal units (Hartrees-Bohrs-Radians)
 RMS Force = .34046D-03 SwitMx=.10000D-02 MixMth= 2
 Mixed Optimization -- En-DIIS/RFO-DIIS
 Update second derivatives using D2CorX and points    1    2
 DE= -1.02D-04 DEPred=-1.07D-04 R= 9.51D-01
 TightC=F SS=  1.41D+00  RLast= 3.84D-02 DXNew= 5.0454D-01 1.1521D-01
 Trust test= 9.51D-01 RLast= 3.84D-02 DXMaxT set to 3.00D-01
 ITU=  1  0
 Use linear search instead of GDIIS.
     Eigenvalues ---    0.00999   0.01668   0.02881   0.02898   0.15897
     Eigenvalues ---    0.15993   0.16000   0.16098   0.21213   0.22049
     Eigenvalues ---    0.33026   0.34429   0.34912   0.35207   0.35458
     Eigenvalues ---    0.62337   0.802141000.000001000.000001000.00000
     Eigenvalues --- 1000.000001000.000001000.000001000.00000
 RFO step:  Lambda=-2.74388099D-05 EMin= 9.98601866D-03
 Quartic linear search produced a step of -0.05666.
 Iteration  1 RMS(Cart)=  0.00780660 RMS(Int)=  0.00010763
 Iteration  2 RMS(Cart)=  0.00009065 RMS(Int)=  0.00005428
 Iteration  3 RMS(Cart)=  0.00000000 RMS(Int)=  0.00005428
 Iteration  1 RMS(Cart)=  0.00000127 RMS(Int)=  0.00000101
 Iteration  2 RMS(Cart)=  0.00000048 RMS(Int)=  0.00000112
 ITry= 1 IFail=0 DXMaxC= 1.74D-02 DCOld= 1.00D+10 DXMaxT= 3.00D-01 DXLimC= 3.00D+00 Rises=F
 Variable       Old X    -DE/DX   Delta X   Delta X   Delta X     New X
                                 (Linear)    (Quad)   (Total)
    R1        2.52254   0.00104   0.00057  -0.00016   0.00040   2.52294
    R2        2.04973   0.00005   0.00011  -0.00021  -0.00011   2.04962
    R3        2.05264   0.00003   0.00007  -0.00015  -0.00008   2.05256
    R4        2.80915   0.00072   0.00035   0.00089   0.00124   2.81039
    R5        2.05952   0.00002   0.00017  -0.00051  -0.00034   2.05918
    R6        2.33219  -0.00062   0.00060  -0.00265  -0.00205   2.33014
    R7        2.08365   0.00022   0.00033  -0.00047  -0.00014   2.08351
    A1        2.11803   0.00007   0.00016  -0.00014   0.00002   2.11805
    A2        2.12518   0.00001   0.00007  -0.00021  -0.00013   2.12504
    A3        2.03988  -0.00007  -0.00024   0.00037   0.00013   2.04001
    A4        2.16195  -0.00036   0.00027  -0.00233  -0.00210   2.15985
    A5        2.10887   0.00023  -0.00012   0.00109   0.00094   2.10981
    A6        2.00851   0.00028  -0.00019   0.00250   0.00228   2.01079
    A7        2.17354  -0.00002   0.00022  -0.00127  -0.00120   2.17234
    A8        2.02425  -0.00002  -0.00018  -0.00029  -0.00062   2.02364
    A9        2.08462   0.00015  -0.00008   0.00040   0.00017   2.08479
    D1       -3.08796  -0.00099   0.00013  -0.00841  -0.00828  -3.09624
    D2       -0.04531   0.00095  -0.00038   0.00779   0.00741  -0.03790
    D3        0.06910  -0.00104   0.00004  -0.00964  -0.00961   0.05949
    D4        3.11175   0.00090  -0.00048   0.00656   0.00608   3.11783
    D5       -1.39625   0.00415   0.00000   0.00000   0.00000  -1.39625
    D6        1.78797   0.00120   0.00093   0.03179   0.03272   1.82069
    D7        1.83913   0.00231   0.00048  -0.01531  -0.01482   1.82431
    D8       -1.25983  -0.00064   0.00141   0.01649   0.01789  -1.24194
         Item               Value     Threshold  Converged?
 Maximum Force            0.001038     0.000450     NO 
 RMS     Force            0.000340     0.000300     NO 
 Maximum Displacement     0.017432     0.001800     NO 
 RMS     Displacement     0.007813     0.001200     NO 
 Predicted change in Energy=-1.427064D-05
 Lowest energy point so far.  Saving SCF results.
 GradGradGradGradGradGradGradGradGradGradGradGradGradGradGradGradGradGrad

 Leave Link  103 at Wed May 12 11:58:28 2021, MaxMem=  2147483648 cpu:         0.0
 (Enter /opt/cluster/programs/g09_d.01/g09/l202.exe)
                          Input orientation:                          
 ---------------------------------------------------------------------
 Center     Atomic      Atomic             Coordinates (Angstroms)
 Number     Number       Type             X           Y           Z
 ---------------------------------------------------------------------
      1          6           0        1.623528    0.375212   -0.070128
      2          6           0        0.636960   -0.488588    0.180838
      3          6           0       -0.759251   -0.310513   -0.299397
      4          8           0       -1.592675    0.424362    0.235194
      5          1           0       -1.060850   -0.942729   -1.150833
      6          1           0        2.637860    0.186138    0.264194
      7          1           0        1.447887    1.303823   -0.605471
      8          1           0        0.833196   -1.426393    0.699875
 ---------------------------------------------------------------------
                    Distance matrix (angstroms):
                    1          2          3          4          5
     1  C    0.000000
     2  C    1.335084   0.000000
     3  C    2.490064   1.487192   0.000000
     4  O    3.231038   2.409918   1.233056   0.000000
     5  H    3.179745   2.205029   1.102544   2.018130   0.000000
     6  H    1.084614   2.113245   3.479175   4.237336   4.117900
     7  H    1.086168   2.118636   2.751585   3.274934   3.411477
     8  H    2.112655   1.089673   2.186234   3.086434   2.691926
                    6          7          8
     6  H    0.000000
     7  H    1.849749   0.000000
     8  H    2.459042   3.088018   0.000000
 Stoichiometry    C3H4O
 Framework group  C1[X(C3H4O)]
 Deg. of freedom    18
 Full point group                 C1      NOp   1
 RotChk:  IX=0 Diff= 1.01D-02
 Largest Abelian subgroup         C1      NOp   1
 Largest concise Abelian subgroup C1      NOp   1
                         Standard orientation:                         
 ---------------------------------------------------------------------
 Center     Atomic      Atomic             Coordinates (Angstroms)
 Number     Number       Type             X           Y           Z
 ---------------------------------------------------------------------
      1          6           0        1.619270   -0.376470    0.069688
      2          6           0        0.632979    0.486978   -0.183562
      3          6           0       -0.763286    0.310629    0.297153
      4          8           0       -1.596952   -0.425394   -0.235480
      5          1           0       -1.064675    0.945199    1.146910
      6          1           0        2.633660   -0.188611   -0.265142
      7          1           0        1.443334   -1.303600    0.607495
      8          1           0        0.829513    1.423340   -0.705088
 ---------------------------------------------------------------------
 Rotational constants (GHZ):     28.2950270      5.0841180      4.6764850
 Leave Link  202 at Wed May 12 11:58:28 2021, MaxMem=  2147483648 cpu:         0.0
 (Enter /opt/cluster/programs/g09_d.01/g09/l301.exe)
 Standard basis: 6-31+G (6D, 7F)
 Ernie: Thresh=  0.10000D-02 Tol=  0.10000D-05 Strict=F.
 There are    60 symmetry adapted cartesian basis functions of A   symmetry.
 There are    60 symmetry adapted basis functions of A   symmetry.
    60 basis functions,   120 primitive gaussians,    60 cartesian basis functions
    15 alpha electrons       15 beta electrons
       nuclear repulsion energy       102.7494750997 Hartrees.
 IExCor= 4639 DFT=T Ex+Corr=wB97XD ExCW=0 ScaHFX=  1.000000
 ScaDFX=  1.000000  1.000000  1.000000  1.000000 ScalE2=  1.000000  1.000000
 IRadAn=      0 IRanWt=     -1 IRanGd=            0 ICorTp=0 IEmpDi=121
  HFx wShort=  0.000000 wLong=  0.200000 cFull=  0.222036 cShort=  0.000000 cLong=  0.777964
  DFx wShort=  0.000000 wLong=  0.200000 cFull=  0.000000 cShort=  0.000000 cLong=  1.000000
 NAtoms=    8 NActive=    8 NUniq=    8 SFac= 1.00D+00 NAtFMM=   60 NAOKFM=F Big=F
 Integral buffers will be    131072 words long.
 Raffenetti 2 integral format.
 Two-electron integral symmetry is turned on.
 R6Disp:  Grimme-D2 Dispersion energy=       -0.0017842614 Hartrees.
 Nuclear repulsion after empirical dispersion term =      102.7476908383 Hartrees.
 Leave Link  301 at Wed May 12 11:58:28 2021, MaxMem=  2147483648 cpu:         0.3
 (Enter /opt/cluster/programs/g09_d.01/g09/l302.exe)
 NPDir=0 NMtPBC=     1 NCelOv=     1 NCel=       1 NClECP=     1 NCelD=      1
         NCelK=      1 NCelE2=     1 NClLst=     1 CellRange=     0.0.
 One-electron integrals computed using PRISM.
 NBasis=    60 RedAO= T EigKep=  1.28D-04  NBF=    60
 NBsUse=    60 1.00D-06 EigRej= -1.00D+00 NBFU=    60
 Precomputing XC quadrature grid using
 IXCGrd= 4 IRadAn=           0 IRanWt=          -1 IRanGd=           0 AccXCQ= 0.00D+00.
 Generated NRdTot=       0 NPtTot=           0 NUsed=           0 NTot=          32
 NSgBfM=    60    60    60    60    60 MxSgAt=     8 MxSgA2=     8.
 Leave Link  302 at Wed May 12 11:58:28 2021, MaxMem=  2147483648 cpu:         0.8
 (Enter /opt/cluster/programs/g09_d.01/g09/l303.exe)
 DipDrv:  MaxL=1.
 Leave Link  303 at Wed May 12 11:58:28 2021, MaxMem=  2147483648 cpu:         0.2
 (Enter /opt/cluster/programs/g09_d.01/g09/l401.exe)
 Initial guess from the checkpoint file:  "/home/unibas/boittier/RDKit_G2/L.pdb/SCAN_1_2_3_4_S_17_20.0/5_SCAN_1_2_3_4_F/L.pdb.chk"
 B after Tr=     0.000000    0.000000    0.000000
         Rot=    0.999998    0.001964    0.000249   -0.000384 Ang=   0.23 deg.
 Guess basis will be translated and rotated to current coordinates.
 JPrj=2 DoOrth=T DoCkMO=T.
 Leave Link  401 at Wed May 12 11:58:28 2021, MaxMem=  2147483648 cpu:         0.6
 (Enter /opt/cluster/programs/g09_d.01/g09/l502.exe)
 Closed shell SCF:
 Using DIIS extrapolation, IDIIS=  1040.
 Integral symmetry usage will be decided dynamically.
 Keep R1 ints in memory in canonical form, NReq=4262490.
 IVT=       30290 IEndB=       30290 NGot=  2147483648 MDV=  2144102629
 LenX=  2144102629 LenY=  2144098588
 Requested convergence on RMS density matrix=1.00D-08 within 128 cycles.
 Requested convergence on MAX density matrix=1.00D-06.
 Requested convergence on             energy=1.00D-06.
 No special actions if energy rises.
 FoFCou: FMM=F IPFlag=           0 FMFlag=           0 FMFlg1=           0
         NFxFlg=           0 DoJE=F BraDBF=F KetDBF=F FulRan=T
         wScrn=  0.000000 ICntrl=     600 IOpCl=  0 I1Cent=           0 NGrid=           0
         NMat0=    1 NMatS0=   1830 NMatT0=    0 NMatD0=    1 NMtDS0=    0 NMtDT0=    0
 Symmetry not used in FoFCou.

 Cycle   1  Pass 1  IDiag  1:
 E= -191.782887818520    
 DIIS: error= 4.10D-04 at cycle   1 NSaved=   1.
 NSaved= 1 IEnMin= 1 EnMin= -191.782887818520     IErMin= 1 ErrMin= 4.10D-04
 ErrMax= 4.10D-04  0.00D+00 EMaxC= 1.00D-01 BMatC= 2.66D-05 BMatP= 2.66D-05
 IDIUse=3 WtCom= 9.96D-01 WtEn= 4.10D-03
 Coeff-Com:  0.100D+01
 Coeff-En:   0.100D+01
 Coeff:      0.100D+01
 Gap=     0.607 Goal=   None    Shift=    0.000
 RMSDP=2.84D-04 MaxDP=3.91D-03              OVMax= 2.74D-03

 Cycle   2  Pass 1  IDiag  1:
 E= -191.782947525774     Delta-E=       -0.000059707254 Rises=F Damp=F
 DIIS: error= 1.90D-04 at cycle   2 NSaved=   2.
 NSaved= 2 IEnMin= 2 EnMin= -191.782947525774     IErMin= 2 ErrMin= 1.90D-04
 ErrMax= 1.90D-04  0.00D+00 EMaxC= 1.00D-01 BMatC= 1.57D-06 BMatP= 2.66D-05
 IDIUse=3 WtCom= 9.98D-01 WtEn= 1.90D-03
 Coeff-Com: -0.207D+00 0.121D+01
 Coeff-En:   0.000D+00 0.100D+01
 Coeff:     -0.207D+00 0.121D+01
 Gap=     0.370 Goal=   None    Shift=    0.000
 RMSDP=6.70D-05 MaxDP=5.33D-04 DE=-5.97D-05 OVMax= 1.81D-03

 Cycle   3  Pass 1  IDiag  1:
 E= -191.782953894843     Delta-E=       -0.000006369069 Rises=F Damp=F
 DIIS: error= 9.19D-05 at cycle   3 NSaved=   3.
 NSaved= 3 IEnMin= 3 EnMin= -191.782953894843     IErMin= 3 ErrMin= 9.19D-05
 ErrMax= 9.19D-05  0.00D+00 EMaxC= 1.00D-01 BMatC= 3.70D-07 BMatP= 1.57D-06
 IDIUse=1 WtCom= 1.00D+00 WtEn= 0.00D+00
 Coeff-Com: -0.867D-01 0.377D+00 0.710D+00
 Coeff:     -0.867D-01 0.377D+00 0.710D+00
 Gap=     0.370 Goal=   None    Shift=    0.000
 RMSDP=2.04D-05 MaxDP=2.49D-04 DE=-6.37D-06 OVMax= 5.68D-04

 Cycle   4  Pass 1  IDiag  1:
 E= -191.782954586440     Delta-E=       -0.000000691597 Rises=F Damp=F
 DIIS: error= 6.14D-05 at cycle   4 NSaved=   4.
 NSaved= 4 IEnMin= 4 EnMin= -191.782954586440     IErMin= 4 ErrMin= 6.14D-05
 ErrMax= 6.14D-05  0.00D+00 EMaxC= 1.00D-01 BMatC= 2.04D-07 BMatP= 3.70D-07
 IDIUse=1 WtCom= 1.00D+00 WtEn= 0.00D+00
 Coeff-Com:  0.263D-01-0.228D+00 0.442D+00 0.760D+00
 Coeff:      0.263D-01-0.228D+00 0.442D+00 0.760D+00
 Gap=     0.370 Goal=   None    Shift=    0.000
 RMSDP=1.83D-05 MaxDP=2.08D-04 DE=-6.92D-07 OVMax= 5.92D-04

 Cycle   5  Pass 1  IDiag  1:
 E= -191.782955071430     Delta-E=       -0.000000484990 Rises=F Damp=F
 DIIS: error= 2.85D-05 at cycle   5 NSaved=   5.
 NSaved= 5 IEnMin= 5 EnMin= -191.782955071430     IErMin= 5 ErrMin= 2.85D-05
 ErrMax= 2.85D-05  0.00D+00 EMaxC= 1.00D-01 BMatC= 1.46D-08 BMatP= 2.04D-07
 IDIUse=1 WtCom= 1.00D+00 WtEn= 0.00D+00
 Coeff-Com:  0.137D-01-0.626D-01-0.119D+00 0.179D-01 0.115D+01
 Coeff:      0.137D-01-0.626D-01-0.119D+00 0.179D-01 0.115D+01
 Gap=     0.370 Goal=   None    Shift=    0.000
 RMSDP=1.05D-05 MaxDP=8.69D-05 DE=-4.85D-07 OVMax= 3.96D-04

 Cycle   6  Pass 1  IDiag  1:
 E= -191.782955180087     Delta-E=       -0.000000108657 Rises=F Damp=F
 DIIS: error= 9.96D-06 at cycle   6 NSaved=   6.
 NSaved= 6 IEnMin= 6 EnMin= -191.782955180087     IErMin= 6 ErrMin= 9.96D-06
 ErrMax= 9.96D-06  0.00D+00 EMaxC= 1.00D-01 BMatC= 4.66D-09 BMatP= 1.46D-08
 IDIUse=1 WtCom= 1.00D+00 WtEn= 0.00D+00
 Coeff-Com:  0.256D-03 0.210D-01-0.140D+00-0.158D+00 0.483D+00 0.794D+00
 Coeff:      0.256D-03 0.210D-01-0.140D+00-0.158D+00 0.483D+00 0.794D+00
 Gap=     0.370 Goal=   None    Shift=    0.000
 RMSDP=4.01D-06 MaxDP=3.73D-05 DE=-1.09D-07 OVMax= 1.59D-04

 Cycle   7  Pass 1  IDiag  1:
 E= -191.782955198951     Delta-E=       -0.000000018863 Rises=F Damp=F
 DIIS: error= 3.37D-06 at cycle   7 NSaved=   7.
 NSaved= 7 IEnMin= 7 EnMin= -191.782955198951     IErMin= 7 ErrMin= 3.37D-06
 ErrMax= 3.37D-06  0.00D+00 EMaxC= 1.00D-01 BMatC= 5.44D-10 BMatP= 4.66D-09
 IDIUse=1 WtCom= 1.00D+00 WtEn= 0.00D+00
 Coeff-Com: -0.245D-02 0.183D-01-0.204D-01-0.532D-01-0.598D-01 0.215D+00
 Coeff-Com:  0.902D+00
 Coeff:     -0.245D-02 0.183D-01-0.204D-01-0.532D-01-0.598D-01 0.215D+00
 Coeff:      0.902D+00
 Gap=     0.370 Goal=   None    Shift=    0.000
 RMSDP=1.59D-06 MaxDP=1.45D-05 DE=-1.89D-08 OVMax= 5.83D-05

 Cycle   8  Pass 1  IDiag  1:
 E= -191.782955201262     Delta-E=       -0.000000002311 Rises=F Damp=F
 DIIS: error= 9.78D-07 at cycle   8 NSaved=   8.
 NSaved= 8 IEnMin= 8 EnMin= -191.782955201262     IErMin= 8 ErrMin= 9.78D-07
 ErrMax= 9.78D-07  0.00D+00 EMaxC= 1.00D-01 BMatC= 6.61D-11 BMatP= 5.44D-10
 IDIUse=1 WtCom= 1.00D+00 WtEn= 0.00D+00
 Coeff-Com: -0.507D-03 0.279D-03 0.193D-01 0.152D-01-0.970D-01-0.874D-01
 Coeff-Com:  0.225D+00 0.925D+00
 Coeff:     -0.507D-03 0.279D-03 0.193D-01 0.152D-01-0.970D-01-0.874D-01
 Coeff:      0.225D+00 0.925D+00
 Gap=     0.370 Goal=   None    Shift=    0.000
 RMSDP=6.16D-07 MaxDP=5.93D-06 DE=-2.31D-09 OVMax= 1.68D-05

 Cycle   9  Pass 1  IDiag  1:
 E= -191.782955201489     Delta-E=       -0.000000000227 Rises=F Damp=F
 DIIS: error= 2.30D-07 at cycle   9 NSaved=   9.
 NSaved= 9 IEnMin= 9 EnMin= -191.782955201489     IErMin= 9 ErrMin= 2.30D-07
 ErrMax= 2.30D-07  0.00D+00 EMaxC= 1.00D-01 BMatC= 1.77D-12 BMatP= 6.61D-11
 IDIUse=1 WtCom= 1.00D+00 WtEn= 0.00D+00
 Coeff-Com:  0.174D-03-0.116D-02 0.382D-03 0.238D-02 0.960D-02-0.865D-02
 Coeff-Com: -0.704D-01-0.517D-01 0.112D+01
 Coeff:      0.174D-03-0.116D-02 0.382D-03 0.238D-02 0.960D-02-0.865D-02
 Coeff:     -0.704D-01-0.517D-01 0.112D+01
 Gap=     0.370 Goal=   None    Shift=    0.000
 RMSDP=1.57D-07 MaxDP=1.86D-06 DE=-2.27D-10 OVMax= 2.36D-06

 Cycle  10  Pass 1  IDiag  1:
 E= -191.782955201497     Delta-E=       -0.000000000008 Rises=F Damp=F
 DIIS: error= 5.05D-08 at cycle  10 NSaved=  10.
 NSaved=10 IEnMin=10 EnMin= -191.782955201497     IErMin=10 ErrMin= 5.05D-08
 ErrMax= 5.05D-08  0.00D+00 EMaxC= 1.00D-01 BMatC= 1.64D-13 BMatP= 1.77D-12
 IDIUse=1 WtCom= 1.00D+00 WtEn= 0.00D+00
 Coeff-Com:  0.523D-04-0.188D-03-0.956D-03-0.438D-03 0.651D-02 0.277D-02
 Coeff-Com: -0.199D-01-0.591D-01 0.166D+00 0.905D+00
 Coeff:      0.523D-04-0.188D-03-0.956D-03-0.438D-03 0.651D-02 0.277D-02
 Coeff:     -0.199D-01-0.591D-01 0.166D+00 0.905D+00
 Gap=     0.370 Goal=   None    Shift=    0.000
 RMSDP=2.62D-08 MaxDP=1.96D-07 DE=-8.30D-12 OVMax= 4.73D-07

 Cycle  11  Pass 1  IDiag  1:
 E= -191.782955201497     Delta-E=       -0.000000000001 Rises=F Damp=F
 DIIS: error= 1.62D-08 at cycle  11 NSaved=  11.
 NSaved=11 IEnMin=11 EnMin= -191.782955201497     IErMin=11 ErrMin= 1.62D-08
 ErrMax= 1.62D-08  0.00D+00 EMaxC= 1.00D-01 BMatC= 2.58D-14 BMatP= 1.64D-13
 IDIUse=1 WtCom= 1.00D+00 WtEn= 0.00D+00
 Coeff-Com: -0.770D-05 0.914D-04-0.301D-03-0.357D-03 0.443D-03 0.154D-02
 Coeff-Com:  0.425D-02-0.963D-02-0.975D-01 0.226D+00 0.875D+00
 Coeff:     -0.770D-05 0.914D-04-0.301D-03-0.357D-03 0.443D-03 0.154D-02
 Coeff:      0.425D-02-0.963D-02-0.975D-01 0.226D+00 0.875D+00
 Gap=     0.370 Goal=   None    Shift=    0.000
 RMSDP=1.43D-08 MaxDP=1.73D-07 DE=-5.68D-13 OVMax= 1.92D-07

 Cycle  12  Pass 1  IDiag  1:
 E= -191.782955201497     Delta-E=        0.000000000001 Rises=F Damp=F
 DIIS: error= 4.42D-09 at cycle  12 NSaved=  12.
 NSaved=12 IEnMin=11 EnMin= -191.782955201497     IErMin=12 ErrMin= 4.42D-09
 ErrMax= 4.42D-09  0.00D+00 EMaxC= 1.00D-01 BMatC= 8.62D-16 BMatP= 2.58D-14
 IDIUse=1 WtCom= 1.00D+00 WtEn= 0.00D+00
 Coeff-Com: -0.212D-05-0.288D-05 0.115D-03 0.110D-03-0.556D-03-0.458D-03
 Coeff-Com:  0.720D-03 0.587D-02 0.492D-02-0.101D+00-0.169D+00 0.126D+01
 Coeff:     -0.212D-05-0.288D-05 0.115D-03 0.110D-03-0.556D-03-0.458D-03
 Coeff:      0.720D-03 0.587D-02 0.492D-02-0.101D+00-0.169D+00 0.126D+01
 Gap=     0.370 Goal=   None    Shift=    0.000
 RMSDP=6.72D-09 MaxDP=8.62D-08 DE= 5.68D-13 OVMax= 6.80D-08

 SCF Done:  E(RwB97XD) =  -191.782955201     A.U. after   12 cycles
            NFock= 12  Conv=0.67D-08     -V/T= 2.0058
 KE= 1.906809580998D+02 PE=-6.529035080481D+02 EE= 1.676919039085D+02
 Leave Link  502 at Wed May 12 11:58:29 2021, MaxMem=  2147483648 cpu:         8.1
 (Enter /opt/cluster/programs/g09_d.01/g09/l701.exe)
 Compute integral first derivatives.
 ... and contract with generalized density number  0.
 R6Disp: Adding Grimme-D2 dispersion energy 1st derivatives to the gradient.
 Leave Link  701 at Wed May 12 11:58:29 2021, MaxMem=  2147483648 cpu:         0.6
 (Enter /opt/cluster/programs/g09_d.01/g09/l702.exe)
 L702 exits ... SP integral derivatives will be done elsewhere.
 Leave Link  702 at Wed May 12 11:58:29 2021, MaxMem=  2147483648 cpu:         0.2
 (Enter /opt/cluster/programs/g09_d.01/g09/l703.exe)
 Compute integral first derivatives, UseDBF=F ICtDFT=           0.
 Integral derivatives from FoFJK, PRISM(SPDF).
 Calling FoFJK, ICntrl=      2127 FMM=F ISym2X=0 I1Cent= 0 IOpClX= 0 NMat=1 NMatS=1 NMatT=0.
 FoFJK:  IHMeth= 1 ICntrl=    2127 DoSepK=T KAlg= 0 I1Cent=   0 FoldK=F
 IRaf=         1 NMat=   1 IRICut=       1 DoRegI=T DoRafI=F ISym2E= 0.
 FoFCou: FMM=F IPFlag=           0 FMFlag=      100000 FMFlg1=         800
         NFxFlg=           0 DoJE=F BraDBF=F KetDBF=F FulRan=T
         wScrn=  0.000000 ICntrl=    2527 IOpCl=  0 I1Cent=           0 NGrid=           0
         NMat0=    1 NMatS0=      1 NMatT0=    0 NMatD0=    1 NMtDS0=    0 NMtDT0=    0
 Symmetry not used in FoFCou.
 Leave Link  703 at Wed May 12 11:58:29 2021, MaxMem=  2147483648 cpu:         2.4
 (Enter /opt/cluster/programs/g09_d.01/g09/l716.exe)
 Dipole        = 9.98001784D-01 6.52892503D-01 4.27544473D-01
 ***** Axes restored to original set *****
 -------------------------------------------------------------------
 Center     Atomic                   Forces (Hartrees/Bohr)
 Number     Number              X              Y              Z
 -------------------------------------------------------------------
      1        6          -0.000141288    0.001986738    0.002690090
      2        6           0.001648705   -0.000701674   -0.005132877
      3        6          -0.002470470   -0.005876910    0.005855821
      4        8           0.000649750    0.004116537   -0.002263800
      5        1           0.000219073    0.000551414   -0.000881028
      6        1           0.000142721    0.000088282    0.000017367
      7        1           0.000040087    0.000018422   -0.000058304
      8        1          -0.000088579   -0.000182809   -0.000227268
 -------------------------------------------------------------------
 Cartesian Forces:  Max     0.005876910 RMS     0.002410398
 Leave Link  716 at Wed May 12 11:58:29 2021, MaxMem=  2147483648 cpu:         0.2
 (Enter /opt/cluster/programs/g09_d.01/g09/l103.exe)

 GradGradGradGradGradGradGradGradGradGradGradGradGradGradGradGradGradGrad
 Berny optimization.
 Using GEDIIS/GDIIS optimizer.
 FormGI is forming the generalized inverse of G from B-inverse, IUseBI=4.
 Internal  Forces:  Max     0.005208792 RMS     0.001424293
 Search for a local minimum.
 Step number   3 out of a maximum of   34
 All quantities printed in internal units (Hartrees-Bohrs-Radians)
 RMS Force = .45679D-03 SwitMx=.10000D-02 MixMth= 2
 Mixed Optimization -- En-DIIS/RFO-DIIS
 Swapping is turned off.
 Update second derivatives using D2CorX and points    1    2    3
 DE=  2.17D-05 DEPred=-1.43D-05 R=-1.52D+00
 Trust test=-1.52D+00 RLast= 4.34D-02 DXMaxT set to 1.50D-01
 ITU= -1  1  0
     Eigenvalues ---    0.01201   0.02878   0.02888   0.04653   0.15831
     Eigenvalues ---    0.15993   0.16043   0.16094   0.19476   0.22094
     Eigenvalues ---    0.32645   0.34281   0.34973   0.35209   0.35569
     Eigenvalues ---    0.61829   0.665701000.000001000.000001000.00000
     Eigenvalues --- 1000.000001000.000001000.000001000.00000
 En-DIIS/RFO-DIIS IScMMF=        0 using points:     3    2
 RFO step:  Lambda=-1.53283226D-05.
 NNeg= 0 NP= 2 Switch=  2.50D-03 Rises=F DC= -2.17D-05 SmlDif=  1.00D-05
 RMS Error=  0.1490571850D-02 NUsed= 2 EDIIS=F
 DidBck=T Rises=F RFO-DIIS coefs:    0.29151    0.70849
 Iteration  1 RMS(Cart)=  0.00680946 RMS(Int)=  0.00007147
 Iteration  2 RMS(Cart)=  0.00006165 RMS(Int)=  0.00000750
 Iteration  3 RMS(Cart)=  0.00000000 RMS(Int)=  0.00000750
 Iteration  1 RMS(Cart)=  0.00000011 RMS(Int)=  0.00000009
 ITry= 1 IFail=0 DXMaxC= 1.78D-02 DCOld= 1.00D+10 DXMaxT= 1.50D-01 DXLimC= 3.00D+00 Rises=F
 Variable       Old X    -DE/DX   Delta X   Delta X   Delta X     New X
                                 (Linear)    (Quad)   (Total)
    R1        2.52294   0.00089  -0.00029   0.00127   0.00099   2.52393
    R2        2.04962   0.00012   0.00007   0.00011   0.00018   2.04981
    R3        2.05256   0.00004   0.00006   0.00004   0.00009   2.05265
    R4        2.81039   0.00048  -0.00088   0.00170   0.00082   2.81121
    R5        2.05918   0.00003   0.00024  -0.00009   0.00015   2.05934
    R6        2.33014   0.00104   0.00145  -0.00077   0.00069   2.33082
    R7        2.08351   0.00030   0.00010   0.00044   0.00054   2.08405
    A1        2.11805   0.00013  -0.00001   0.00039   0.00038   2.11843
    A2        2.12504  -0.00003   0.00009  -0.00008   0.00002   2.12506
    A3        2.04001  -0.00010  -0.00009  -0.00030  -0.00039   2.03963
    A4        2.15985   0.00032   0.00149  -0.00122   0.00028   2.16014
    A5        2.10981   0.00012  -0.00066   0.00050  -0.00015   2.10966
    A6        2.01079  -0.00034  -0.00162   0.00100  -0.00060   2.01019
    A7        2.17234   0.00016   0.00085  -0.00029   0.00057   2.17291
    A8        2.02364   0.00011   0.00044  -0.00011   0.00034   2.02398
    A9        2.08479   0.00008  -0.00012   0.00057   0.00047   2.08526
    D1       -3.09624  -0.00080   0.00587  -0.00282   0.00304  -3.09319
    D2       -0.03790   0.00077  -0.00525   0.00152  -0.00373  -0.04163
    D3        0.05949  -0.00085   0.00681  -0.00441   0.00239   0.06189
    D4        3.11783   0.00072  -0.00431  -0.00007  -0.00438   3.11345
    D5       -1.39625   0.00521   0.00000   0.00000   0.00000  -1.39625
    D6        1.82069  -0.00018  -0.02318  -0.00265  -0.02583   1.79486
    D7        1.82431   0.00370   0.01050  -0.00410   0.00641   1.83072
    D8       -1.24194  -0.00169  -0.01268  -0.00675  -0.01942  -1.26136
         Item               Value     Threshold  Converged?
 Maximum Force            0.001180     0.000450     NO 
 RMS     Force            0.000457     0.000300     NO 
 Maximum Displacement     0.017771     0.001800     NO 
 RMS     Displacement     0.006811     0.001200     NO 
[...]

 Cycle  11  Pass 1  IDiag  1:
 E= -191.782983390453     Delta-E=        0.000000000000 Rises=F Damp=F
 DIIS: error= 2.02D-08 at cycle  11 NSaved=  11.
 NSaved=11 IEnMin=10 EnMin= -191.782983390453     IErMin=11 ErrMin= 2.02D-08
 ErrMax= 2.02D-08  0.00D+00 EMaxC= 1.00D-01 BMatC= 1.58D-14 BMatP= 3.17D-13
 IDIUse=1 WtCom= 1.00D+00 WtEn= 0.00D+00
 Coeff-Com: -0.105D-04 0.116D-03-0.190D-03-0.483D-03-0.182D-04 0.157D-02
 Coeff-Com:  0.477D-02-0.356D-02-0.861D-01-0.769D-01 0.116D+01
 Coeff:     -0.105D-04 0.116D-03-0.190D-03-0.483D-03-0.182D-04 0.157D-02
 Coeff:      0.477D-02-0.356D-02-0.861D-01-0.769D-01 0.116D+01
 Gap=     0.370 Goal=   None    Shift=    0.000
 RMSDP=1.78D-08 MaxDP=1.99D-07 DE= 1.71D-13 OVMax= 3.38D-07

 Cycle  12  Pass 1  IDiag  1:
 E= -191.782983390453     Delta-E=        0.000000000000 Rises=F Damp=F
 DIIS: error= 3.60D-09 at cycle  12 NSaved=  12.
 NSaved=12 IEnMin=10 EnMin= -191.782983390453     IErMin=12 ErrMin= 3.60D-09
 ErrMax= 3.60D-09  0.00D+00 EMaxC= 1.00D-01 BMatC= 7.32D-16 BMatP= 1.58D-14
 IDIUse=1 WtCom= 1.00D+00 WtEn= 0.00D+00
 Coeff-Com: -0.326D-05-0.945D-06 0.912D-04 0.131D-03-0.303D-03-0.801D-03
 Coeff-Com:  0.258D-05 0.601D-02 0.130D-01-0.350D-01-0.285D+00 0.130D+01
 Coeff:     -0.326D-05-0.945D-06 0.912D-04 0.131D-03-0.303D-03-0.801D-03
 Coeff:      0.258D-05 0.601D-02 0.130D-01-0.350D-01-0.285D+00 0.130D+01
 Gap=     0.370 Goal=   None    Shift=    0.000
 RMSDP=5.74D-09 MaxDP=6.42D-08 DE= 4.55D-13 OVMax= 8.30D-08

 SCF Done:  E(RwB97XD) =  -191.782983390     A.U. after   12 cycles
            NFock= 12  Conv=0.57D-08     -V/T= 2.0058
 KE= 1.906761138410D+02 PE=-6.528351343320D+02 EE= 1.676603120055D+02
 Leave Link  502 at Wed May 12 11:58:33 2021, MaxMem=  2147483648 cpu:         8.1
 (Enter /opt/cluster/programs/g09_d.01/g09/l701.exe)
 Compute integral first derivatives.
 ... and contract with generalized density number  0.
 R6Disp: Adding Grimme-D2 dispersion energy 1st derivatives to the gradient.
 Leave Link  701 at Wed May 12 11:58:33 2021, MaxMem=  2147483648 cpu:         0.6
 (Enter /opt/cluster/programs/g09_d.01/g09/l702.exe)
 L702 exits ... SP integral derivatives will be done elsewhere.
 Leave Link  702 at Wed May 12 11:58:33 2021, MaxMem=  2147483648 cpu:         0.2
 (Enter /opt/cluster/programs/g09_d.01/g09/l703.exe)
 Compute integral first derivatives, UseDBF=F ICtDFT=           0.
 Integral derivatives from FoFJK, PRISM(SPDF).
 Calling FoFJK, ICntrl=      2127 FMM=F ISym2X=0 I1Cent= 0 IOpClX= 0 NMat=1 NMatS=1 NMatT=0.
 FoFJK:  IHMeth= 1 ICntrl=    2127 DoSepK=T KAlg= 0 I1Cent=   0 FoldK=F
 IRaf=         1 NMat=   1 IRICut=       1 DoRegI=T DoRafI=F ISym2E= 0.
 FoFCou: FMM=F IPFlag=           0 FMFlag=      100000 FMFlg1=         800
         NFxFlg=           0 DoJE=F BraDBF=F KetDBF=F FulRan=T
         wScrn=  0.000000 ICntrl=    2527 IOpCl=  0 I1Cent=           0 NGrid=           0
         NMat0=    1 NMatS0=      1 NMatT0=    0 NMatD0=    1 NMtDS0=    0 NMtDT0=    0
 Symmetry not used in FoFCou.
 Leave Link  703 at Wed May 12 11:58:33 2021, MaxMem=  2147483648 cpu:         2.4
 (Enter /opt/cluster/programs/g09_d.01/g09/l716.exe)
 Dipole        = 1.00003082D+00 6.49960952D-01 4.33378398D-01
 ***** Axes restored to original set *****
 -------------------------------------------------------------------
 Center     Atomic                   Forces (Hartrees/Bohr)
 Number     Number              X              Y              Z
 -------------------------------------------------------------------
      1        6          -0.000714455    0.001740952    0.002722844
      2        6           0.001695781   -0.001409508   -0.005000062
      3        6          -0.001925271   -0.003245206    0.004296796
      4        8           0.000880316    0.002927024   -0.001943225
      5        1          -0.000005095   -0.000056024   -0.000104938
      6        1           0.000035432    0.000014985    0.000013454
      7        1           0.000004635    0.000036349    0.000018715
      8        1           0.000028658   -0.000008572   -0.000003584
 -------------------------------------------------------------------
 Cartesian Forces:  Max     0.005000062 RMS     0.001900172
 Leave Link  716 at Wed May 12 11:58:33 2021, MaxMem=  2147483648 cpu:         0.2
 (Enter /opt/cluster/programs/g09_d.01/g09/l103.exe)

 GradGradGradGradGradGradGradGradGradGradGradGradGradGradGradGradGradGrad
 Berny optimization.
 Using GEDIIS/GDIIS optimizer.
 FormGI is forming the generalized inverse of G from B-inverse, IUseBI=4.
 Internal  Forces:  Max     0.004299020 RMS     0.001119750
 Search for a local minimum.
 Step number   4 out of a maximum of   34
 All quantities printed in internal units (Hartrees-Bohrs-Radians)
 RMS Force = .94669D-04 SwitMx=.10000D-02 MixMth= 2
 Mixed Optimization -- En-DIIS/RFO-DIIS
 Swapping is turned off.
 Update second derivatives using D2CorX and points    1    2    3    4
 DE= -2.82D-05 DEPred=-2.66D-05 R= 1.06D+00
 TightC=F SS=  1.41D+00  RLast= 3.37D-02 DXNew= 2.5227D-01 1.0117D-01
 Trust test= 1.06D+00 RLast= 3.37D-02 DXMaxT set to 1.50D-01
 ITU=  1 -1  1  0
     Eigenvalues ---    0.01329   0.02880   0.02904   0.04717   0.15877
     Eigenvalues ---    0.15991   0.16039   0.16066   0.19911   0.22091
     Eigenvalues ---    0.32742   0.33272   0.34728   0.35185   0.35351
     Eigenvalues ---    0.62083   0.831721000.000001000.000001000.00000
     Eigenvalues --- 1000.000001000.000001000.000001000.00000
 En-DIIS/RFO-DIIS IScMMF=        0 using points:     4    3    2
 RFO step:  Lambda=-1.23411006D-06.
 NNeg= 0 NP= 3 Switch=  2.50D-03 Rises=F DC= -2.17D-05 SmlDif=  1.00D-05
 RMS Error=  0.1424046764D-03 NUsed= 3 EDIIS=F
 DidBck=F Rises=F RFO-DIIS coefs:    1.14093   -0.04068   -0.10025
 Iteration  1 RMS(Cart)=  0.00048825 RMS(Int)=  0.00000178
 Iteration  2 RMS(Cart)=  0.00000017 RMS(Int)=  0.00000178
 Iteration  1 RMS(Cart)=  0.00000033 RMS(Int)=  0.00000026
 ITry= 1 IFail=0 DXMaxC= 1.04D-03 DCOld= 1.00D+10 DXMaxT= 1.50D-01 DXLimC= 3.00D+00 Rises=F
 Variable       Old X    -DE/DX   Delta X   Delta X   Delta X     New X
                                 (Linear)    (Quad)   (Total)
    R1        2.52393   0.00013   0.00018   0.00001   0.00019   2.52412
    R2        2.04981   0.00003   0.00002   0.00008   0.00009   2.04990
    R3        2.05265   0.00002   0.00001   0.00006   0.00006   2.05272
    R4        2.81121   0.00021   0.00024   0.00045   0.00069   2.81189
    R5        2.05934   0.00001  -0.00001   0.00002   0.00001   2.05934
    R6        2.33082   0.00032  -0.00011   0.00042   0.00031   2.33114
    R7        2.08405   0.00011   0.00006   0.00027   0.00033   2.08438
    A1        2.11843   0.00002   0.00006   0.00008   0.00013   2.11856
    A2        2.12506   0.00000  -0.00001   0.00001   0.00000   2.12506
    A3        2.03963  -0.00002  -0.00004  -0.00009  -0.00013   2.03949
    A4        2.16014  -0.00007  -0.00017  -0.00043  -0.00060   2.15954
    A5        2.10966   0.00015   0.00007   0.00004   0.00011   2.10977
    A6        2.01019   0.00004   0.00014   0.00038   0.00052   2.01071
    A7        2.17291   0.00000  -0.00004  -0.00027  -0.00031   2.17259
    A8        2.02398   0.00005  -0.00001   0.00002   0.00000   2.02398
    A9        2.08526   0.00010   0.00008   0.00024   0.00032   2.08558
    D1       -3.09319  -0.00087  -0.00040   0.00002  -0.00038  -3.09358
    D2       -0.04163   0.00086   0.00022  -0.00015   0.00007  -0.04156
    D3        0.06189  -0.00086  -0.00063   0.00064   0.00002   0.06191
    D4        3.11345   0.00087  -0.00001   0.00048   0.00047   3.11392
    D5       -1.39625   0.00430   0.00000   0.00000   0.00000  -1.39625
    D6        1.79486   0.00083  -0.00036   0.00007  -0.00029   1.79457
    D7        1.83072   0.00265  -0.00058   0.00017  -0.00041   1.83030
    D8       -1.26136  -0.00083  -0.00094   0.00024  -0.00070  -1.26206
         Item               Value     Threshold  Converged?
 Maximum Force            0.000321     0.000450     YES
 RMS     Force            0.000095     0.000300     YES
 Maximum Displacement     0.001042     0.001800     YES
 RMS     Displacement     0.000488     0.001200     YES
 Predicted change in Energy=-2.313450D-07
 Optimization completed.
    -- Stationary point found.
                           ----------------------------
                           !   Optimized Parameters   !
                           ! (Angstroms and Degrees)  !
 --------------------------                            --------------------------
 ! Name  Definition              Value          Derivative Info.                !
 --------------------------------------------------------------------------------
 ! R1    R(1,2)                  1.3356         -DE/DX =    0.0001              !
 ! R2    R(1,6)                  1.0847         -DE/DX =    0.0                 !
 ! R3    R(1,7)                  1.0862         -DE/DX =    0.0                 !
 ! R4    R(2,3)                  1.4876         -DE/DX =    0.0002              !
 ! R5    R(2,8)                  1.0898         -DE/DX =    0.0                 !
 ! R6    R(3,4)                  1.2334         -DE/DX =    0.0003              !
 ! R7    R(3,5)                  1.1028         -DE/DX =    0.0001              !
 ! A1    A(2,1,6)              121.3769         -DE/DX =    0.0                 !
 ! A2    A(2,1,7)              121.7568         -DE/DX =    0.0                 !
 ! A3    A(6,1,7)              116.862          -DE/DX =    0.0                 !
 ! A4    A(1,2,3)              123.7668         -DE/DX =   -0.0001              !
 ! A5    A(1,2,8)              120.8748         -DE/DX =    0.0002              !
 ! A6    A(3,2,8)              115.1754         -DE/DX =    0.0                 !
 ! A7    A(2,3,4)              124.4984         -DE/DX =    0.0                 !
 ! A8    A(2,3,5)              115.9654         -DE/DX =    0.0001              !
 ! A9    A(4,3,5)              119.4763         -DE/DX =    0.0001              !
 ! D1    D(6,1,2,3)           -177.227          -DE/DX =   -0.0009              !
 ! D2    D(6,1,2,8)             -2.3853         -DE/DX =    0.0009              !
 ! D3    D(7,1,2,3)              3.5459         -DE/DX =   -0.0009              !
 ! D4    D(7,1,2,8)            178.3876         -DE/DX =    0.0009              !
 ! D5    D(1,2,3,4)            -79.9991         -DE/DX =    0.0043              !
 ! D6    D(1,2,3,5)            102.838          -DE/DX =    0.0008              !
 ! D7    D(8,2,3,4)            104.8923         -DE/DX =    0.0026              !
 ! D8    D(8,2,3,5)            -72.2705         -DE/DX =   -0.0008              !
 --------------------------------------------------------------------------------
 Lowest energy point so far.  Saving SCF results.
 GradGradGradGradGradGradGradGradGradGradGradGradGradGradGradGradGradGrad

 Largest change from initial coordinates is atom    5       0.007 Angstoms.
 Leave Link  103 at Wed May 12 11:58:33 2021, MaxMem=  2147483648 cpu:         0.0
 (Enter /opt/cluster/programs/g09_d.01/g09/l202.exe)
                          Input orientation:                          
 ---------------------------------------------------------------------
 Center     Atomic      Atomic             Coordinates (Angstroms)
 Number     Number       Type             X           Y           Z
 ---------------------------------------------------------------------
      1          6           0        1.622745    0.374249   -0.070812
      2          6           0        0.636321   -0.488895    0.185689
      3          6           0       -0.760793   -0.314395   -0.294581
      4          8           0       -1.595005    0.422954    0.236199
      5          1           0       -1.055228   -0.933325   -1.158564
      6          1           0        2.638129    0.186462    0.261347
      7          1           0        1.445964    1.300875   -0.609310
      8          1           0        0.834523   -1.426613    0.704307
 ---------------------------------------------------------------------
                    Distance matrix (angstroms):
                    1          2          3          4          5
     1  C    0.000000
     2  C    1.335606   0.000000
     3  C    2.491095   1.487628   0.000000
     4  O    3.232730   2.410982   1.233419   0.000000
     5  H    3.172459   2.205872   1.102830   2.018964   0.000000
     6  H    1.084711   2.114017   3.480313   4.239809   4.112293
     7  H    1.086217   2.119156   2.752804   3.276145   3.398425
     8  H    2.113104   1.089754   2.186285   3.089115   2.699034
                    6          7          8
     6  H    0.000000
     7  H    1.849654   0.000000
     8  H    2.459922   3.088469   0.000000
 Stoichiometry    C3H4O
 Framework group  C1[X(C3H4O)]
 Deg. of freedom    18
 Full point group                 C1      NOp   1
 RotChk:  IX=0 Diff= 7.43D-16
 Largest Abelian subgroup         C1      NOp   1
 Largest concise Abelian subgroup C1      NOp   1
                         Standard orientation:                         
 ---------------------------------------------------------------------
 Center     Atomic      Atomic             Coordinates (Angstroms)
 Number     Number       Type             X           Y           Z
 ---------------------------------------------------------------------
      1          6           0        1.619544   -0.377189    0.068983
      2          6           0        0.633293    0.487092   -0.184338
      3          6           0       -0.763586    0.311706    0.296291
      4          8           0       -1.598417   -0.423745   -0.236149
      5          1           0       -1.057240    0.928185    1.162289
      6          1           0        2.634792   -0.188808   -0.263256
      7          1           0        1.442743   -1.305339    0.604843
      8          1           0        0.831533    1.426267   -0.700299
 ---------------------------------------------------------------------
 Rotational constants (GHZ):     28.2924265      5.0784945      4.6738349
 Leave Link  202 at Wed May 12 11:58:33 2021, MaxMem=  2147483648 cpu:         0.0
 (Enter /opt/cluster/programs/g09_d.01/g09/l601.exe)
 Copying SCF densities to generalized density rwf, IOpCl= 0 IROHF=0.

 **********************************************************************

            Population analysis using the SCF density.

 **********************************************************************

 Orbital symmetries:
       Occupied  (A) (A) (A) (A) (A) (A) (A) (A) (A) (A) (A) (A)
                 (A) (A) (A)
       Virtual   (A) (A) (A) (A) (A) (A) (A) (A) (A) (A) (A) (A)
                 (A) (A) (A) (A) (A) (A) (A) (A) (A) (A) (A) (A)
                 (A) (A) (A) (A) (A) (A) (A) (A) (A) (A) (A) (A)
                 (A) (A) (A) (A) (A) (A) (A) (A) (A)
 The electronic state is 1-A.
 Alpha  occ. eigenvalues --  -19.29670 -10.41246 -10.33163 -10.32486  -1.17933
 Alpha  occ. eigenvalues --   -0.91054  -0.76600  -0.66314  -0.60582  -0.55867
 Alpha  occ. eigenvalues --   -0.54096  -0.48888  -0.46950  -0.37798  -0.35451
 Alpha virt. eigenvalues --    0.01590   0.04469   0.07578   0.08435   0.09402
 Alpha virt. eigenvalues --    0.11039   0.12453   0.13411   0.14686   0.16637
 Alpha virt. eigenvalues --    0.17191   0.17773   0.19424   0.22437   0.27408
 Alpha virt. eigenvalues --    0.28478   0.29791   0.31112   0.33054   0.33388
 Alpha virt. eigenvalues --    0.37175   0.39071   0.45323   0.45657   0.50427
 Alpha virt. eigenvalues --    0.69528   0.72148   0.75949   0.77890   0.80872
 Alpha virt. eigenvalues --    0.85275   0.89855   0.90392   1.01756   1.05300
 Alpha virt. eigenvalues --    1.10029   1.11933   1.13563   1.23311   1.27248
 Alpha virt. eigenvalues --    1.31271   1.31986   1.38668   1.47355   1.89343
          Condensed to atoms (all electrons):
               1          2          3          4          5          6
     1  C    5.074419   0.510976   0.014374  -0.007800   0.001445   0.377507
     2  C    0.510976   5.326925   0.233134  -0.123331  -0.089223  -0.029592
     3  C    0.014374   0.233134   5.070864   0.306894   0.352292   0.005721
     4  O   -0.007800  -0.123331   0.306894   8.274414  -0.073356  -0.000194
     5  H    0.001445  -0.089223   0.352292  -0.073356   0.623185  -0.000144
     6  H    0.377507  -0.029592   0.005721  -0.000194  -0.000144   0.471445
     7  H    0.393198  -0.056705   0.007524   0.000701   0.000153  -0.022715
     8  H    0.025646   0.324318  -0.031601   0.002877   0.001407  -0.004418
               7          8
     1  C    0.393198   0.025646
     2  C   -0.056705   0.324318
     3  C    0.007524  -0.031601
     4  O    0.000701   0.002877
     5  H    0.000153   0.001407
     6  H   -0.022715  -0.004418
     7  H    0.466552   0.002553
     8  H    0.002553   0.448914
 Mulliken charges:
               1
     1  C   -0.389765
     2  C   -0.096502
     3  C    0.040798
     4  O   -0.380204
     5  H    0.184241
     6  H    0.202390
     7  H    0.208739
     8  H    0.230303
 Sum of Mulliken charges =   0.00000
 Mulliken charges with hydrogens summed into heavy atoms:
               1
     1  C    0.021364
     2  C    0.133801
     3  C    0.225039
     4  O   -0.380204
 Electronic spatial extent (au):  <R**2>=            288.2760
 Charge=              0.0000 electrons
 Dipole moment (field-independent basis, Debye):
    X=              2.5418    Y=              1.6520    Z=              1.1015  Tot=              3.2254
 Quadrupole moment (field-independent basis, Debye-Ang):
   XX=            -26.5976   YY=            -22.8175   ZZ=            -24.5408
   XY=             -2.9136   XZ=             -2.1401   YZ=             -1.6433
 Traceless Quadrupole moment (field-independent basis, Debye-Ang):
   XX=             -1.9457   YY=              1.8345   ZZ=              0.1112
   XY=             -2.9136   XZ=             -2.1401   YZ=             -1.6433
 Octapole moment (field-independent basis, Debye-Ang**2):
  XXX=             10.5151  YYY=             -0.0669  ZZZ=              0.5461  XYY=             -0.3228
  XXY=              2.2917  XXZ=              0.0603  XZZ=             -3.3975  YZZ=              0.6393
  YYZ=              0.2072  XYZ=             -1.6439
 Hexadecapole moment (field-independent basis, Debye-Ang**3):
 XXXX=           -271.0843 YYYY=            -61.5688 ZZZZ=            -42.5173 XXXY=             -6.6067
 XXXZ=             -6.3130 YYYX=              0.5318 YYYZ=             -3.7748 ZZZX=             -0.7471
 ZZZY=             -0.9082 XXYY=            -56.0238 XXZZ=            -53.5245 YYZZ=            -16.6590
 XXYZ=             -2.5504 YYXZ=             -0.6530 ZZXY=             -0.4596
 N-N= 1.027157250951D+02 E-N=-6.528351342999D+02  KE= 1.906761138410D+02
 No NMR shielding tensors so no spin-rotation constants.
 Leave Link  601 at Wed May 12 11:58:33 2021, MaxMem=  2147483648 cpu:         0.6
 (Enter /opt/cluster/programs/g09_d.01/g09/l9999.exe)
 1\1\GINC-NODE16\FOpt\RwB97XD\6-31+G\C3H4O1\BOITTIER\12-May-2021\0\\#p 
 wB97XD/6-31+G Opt=ModRedun\\L.pdb\\0,1\C,1.6227447027,0.3742493427,-0.
 0708119685\C,0.6363207341,-0.4888952247,0.1856885399\C,-0.7607928379,-
 0.3143948811,-0.2945813435\O,-1.5950052292,0.4229538946,0.2361989107\H
 ,-1.0552283968,-0.9333247101,-1.1585644767\H,2.6381287304,0.1864615769
 ,0.2613472053\H,1.4459639436,1.3008753027,-0.6093104282\H,0.8345233531
 ,-1.4266133009,0.704306561\\Version=ES64L-G09RevD.01\State=1-A\HF=-191
 .7829834\RMSD=5.740e-09\RMSF=1.900e-03\Dipole=0.999508,-0.6516294,-0.4
 32077\Quadrupole=-1.4428756,1.3549698,0.0879058,2.1712476,1.5851613,-1
 .2275301\PG=C01 [X(C3H4O1)]\\@


 IF THERE IS ONE WAY BETTER THAN ANOTHER IT IS THE WAY OF NATURE.

                          -- ARISTOTLE
 Job cpu time:       0 days  0 hours  1 minutes  2.8 seconds.
 File lengths (MBytes):  RWF=      5 Int=      0 D2E=      0 Chk=      2 Scr=      1
 Normal termination of Gaussian 09 at Wed May 12 11:58:33 2021.
