 Entering Gaussian System, Link 0=/opt/cluster/programs/g09_d.01/g09//g09
 Input=/home/unibas/boittier/RDKit_G2/B.pdb/SCAN_1_2_3_4_S_17_20.0/2_SCAN_1_2_3_4_F/2_SCAN_B.pdb.com
 Output=/scratch/boittier/2_SCAN_B.pdb/2_SCAN_B.pdb.out
 Initial command:
 /opt/cluster/programs/g09_d.01/g09/l1.exe "/scratch/boittier/2_SCAN_B.pdb/Gau-187689.inp" -scrdir="/scratch/boittier/2_SCAN_B.pdb/"
 Entering Link 1 = /opt/cluster/programs/g09_d.01/g09/l1.exe PID=    187690.
  
 Copyright (c) 1988,1990,1992,1993,1995,1998,2003,2009,2013,
            Gaussian, Inc.  All Rights Reserved.
  
 This is part of the Gaussian(R) 09 program.  It is based on
 the Gaussian(R) 03 system (copyright 2003, Gaussian, Inc.),
 the Gaussian(R) 98 system (copyright 1998, Gaussian, Inc.),
 the Gaussian(R) 94 system (copyright 1995, Gaussian, Inc.),
 the Gaussian 92(TM) system (copyright 1992, Gaussian, Inc.),
 the Gaussian 90(TM) system (copyright 1990, Gaussian, Inc.),
 the Gaussian 88(TM) system (copyright 1988, Gaussian, Inc.),
 the Gaussian 86(TM) system (copyright 1986, Carnegie Mellon
 University), and the Gaussian 82(TM) system (copyright 1983,
 Carnegie Mellon University). Gaussian is a federally registered
 trademark of Gaussian, Inc.
  
 This software contains proprietary and confidential information,
 including trade secrets, belonging to Gaussian, Inc.
  
 This software is provided under written license and may be
 used, copied, transmitted, or stored only in accord with that
 written license.
  
 The following legend is applicable only to US Government
 contracts under FAR:
  
                    RESTRICTED RIGHTS LEGEND
  
 Use, reproduction and disclosure by the US Government is
 subject to restrictions as set forth in subparagraphs (a)
 and (c) of the Commercial Computer Software - Restricted
 Rights clause in FAR 52.227-19.
  
 Gaussian, Inc.
 340 Quinnipiac St., Bldg. 40, Wallingford CT 06492
  
  
 ---------------------------------------------------------------
 Warning -- This program may not be used in any manner that
 competes with the business of Gaussian, Inc. or will provide
 assistance to any competitor of Gaussian, Inc.  The licensee
 of this program is prohibited from giving any competitor of
 Gaussian, Inc. access to this program.  By using this program,
 the user acknowledges that Gaussian, Inc. is engaged in the
 business of creating and licensing software in the field of
 computational chemistry and represents and warrants to the
 licensee that it is not a competitor of Gaussian, Inc. and that
 it will not use this program in any manner prohibited above.
 ---------------------------------------------------------------
  

 Cite this work as:
 Gaussian 09, Revision D.01,
 M. J. Frisch, G. W. Trucks, H. B. Schlegel, G. E. Scuseria, 
 M. A. Robb, J. R. Cheeseman, G. Scalmani, V. Barone, B. Mennucci, 
 G. A. Petersson, H. Nakatsuji, M. Caricato, X. Li, H. P. Hratchian, 
 A. F. Izmaylov, J. Bloino, G. Zheng, J. L. Sonnenberg, M. Hada, 
 M. Ehara, K. Toyota, R. Fukuda, J. Hasegawa, M. Ishida, T. Nakajima, 
 Y. Honda, O. Kitao, H. Nakai, T. Vreven, J. A. Montgomery, Jr., 
 J. E. Peralta, F. Ogliaro, M. Bearpark, J. J. Heyd, E. Brothers, 
 K. N. Kudin, V. N. Staroverov, T. Keith, R. Kobayashi, J. Normand, 
 K. Raghavachari, A. Rendell, J. C. Burant, S. S. Iyengar, J. Tomasi, 
 M. Cossi, N. Rega, J. M. Millam, M. Klene, J. E. Knox, J. B. Cross, 
 V. Bakken, C. Adamo, J. Jaramillo, R. Gomperts, R. E. Stratmann, 
 O. Yazyev, A. J. Austin, R. Cammi, C. Pomelli, J. W. Ochterski, 
 R. L. Martin, K. Morokuma, V. G. Zakrzewski, G. A. Voth, 
 P. Salvador, J. J. Dannenberg, S. Dapprich, A. D. Daniels, 
 O. Farkas, J. B. Foresman, J. V. Ortiz, J. Cioslowski, 
 and D. J. Fox, Gaussian, Inc., Wallingford CT, 2013.
 
 ******************************************
 Gaussian 09:  ES64L-G09RevD.01 24-Apr-2013
                12-May-2021 
 ******************************************
 %chk=/home/unibas/boittier/RDKit_G2/B.pdb/SCAN_1_2_3_4_S_17_20.0/2_SCAN_1_2_3_4_
 F/B.pdb.chk
 %nproc=8
 Will use up to    8 processors via shared memory.
 %mem=16GB
 -----------------------------
 #p wB97XD/6-31+G Opt=ModRedun
 -----------------------------
 1/14=-1,18=120,19=15,26=3,38=1/1,3;
 2/9=110,12=2,17=6,18=5,40=1/2;
 3/5=1,6=6,7=10,11=2,16=1,25=1,30=1,71=1,74=-58/1,2,3;
 4//1;
 5/5=2,38=5/2;
 6/7=2,8=2,9=2,10=2,28=1/1;
 7//1,2,3,16;
 1/14=-1,18=20,19=15,26=3/3(2);
 2/9=110/2;
 99//99;
 2/9=110/2;
 3/5=1,6=6,7=10,11=2,16=1,25=1,30=1,71=1,74=-58/1,2,3;
 4/5=5,16=3,69=1/1;
 5/5=2,38=5/2;
 7//1,2,3,16;
 1/14=-1,18=20,19=15,26=3/3(-5);
 2/9=110/2;
 6/7=2,8=2,9=2,10=2,19=2,28=1/1;
 99/9=1/99;
 Leave Link    1 at Wed May 12 11:55:58 2021, MaxMem=  2147483648 cpu:         0.2
 (Enter /opt/cluster/programs/g09_d.01/g09/l101.exe)
 -----
 B.pdb
 -----
 Symbolic Z-matrix:
 Charge =  0 Multiplicity = 1
 C                    -1.65493  -0.73692   0.18265 
 C                    -0.52009  -0.09105  -0.09993 
 C                     0.83402  -0.62368  -0.24732 
 C                     1.944    -0.0188    0.20956 
 H                    -2.58144  -0.20143   0.3477 
 H                    -1.66983  -1.81929   0.23425 
 F                    -0.56521   1.33312  -0.10798 
 H                     0.89016  -1.62952  -0.65922 
 H                     1.91577   0.97255   0.65057 
 H                     2.91422  -0.49765   0.12871 
 
 The following ModRedundant input section has been read:
 D       1       2       3       4 F                                           
 
 NAtoms=     10 NQM=       10 NQMF=       0 NMMI=      0 NMMIF=      0
                NMic=       0 NMicF=      0.
                    Isotopes and Nuclear Properties:
 (Nuclear quadrupole moments (NQMom) in fm**2, nuclear magnetic moments (NMagM)
  in nuclear magnetons)

  Atom         1           2           3           4           5           6           7           8           9          10
 IAtWgt=          12          12          12          12           1           1          19           1           1           1
 AtmWgt=  12.0000000  12.0000000  12.0000000  12.0000000   1.0078250   1.0078250  18.9984033   1.0078250   1.0078250   1.0078250
 NucSpn=           0           0           0           0           1           1           1           1           1           1
 AtZEff=   0.0000000   0.0000000   0.0000000   0.0000000   0.0000000   0.0000000   0.0000000   0.0000000   0.0000000   0.0000000
 NQMom=    0.0000000   0.0000000   0.0000000   0.0000000   0.0000000   0.0000000   0.0000000   0.0000000   0.0000000   0.0000000
 NMagM=    0.0000000   0.0000000   0.0000000   0.0000000   2.7928460   2.7928460   2.6288670   2.7928460   2.7928460   2.7928460
 AtZNuc=   6.0000000   6.0000000   6.0000000   6.0000000   1.0000000   1.0000000   9.0000000   1.0000000   1.0000000   1.0000000
 Leave Link  101 at Wed May 12 11:55:58 2021, MaxMem=  2147483648 cpu:         4.1
 (Enter /opt/cluster/programs/g09_d.01/g09/l103.exe)

 GradGradGradGradGradGradGradGradGradGradGradGradGradGradGradGradGradGrad
 Berny optimization.
 Initialization pass.
                           ----------------------------
                           !    Initial Parameters    !
                           ! (Angstroms and Degrees)  !
 --------------------------                            --------------------------
 ! Name  Definition              Value          Derivative Info.                !
 --------------------------------------------------------------------------------
 ! R1    R(1,2)                  1.336          estimate D2E/DX2                !
 ! R2    R(1,5)                  1.0828         estimate D2E/DX2                !
 ! R3    R(1,6)                  1.0837         estimate D2E/DX2                !
 ! R4    R(2,3)                  1.4625         estimate D2E/DX2                !
 ! R5    R(2,7)                  1.4249         estimate D2E/DX2                !
 ! R6    R(3,4)                  1.3441         estimate D2E/DX2                !
 ! R7    R(3,8)                  1.0884         estimate D2E/DX2                !
 ! R8    R(4,9)                  1.0854         estimate D2E/DX2                !
 ! R9    R(4,10)                 1.085          estimate D2E/DX2                !
 ! A1    A(2,1,5)              121.3322         estimate D2E/DX2                !
 ! A2    A(2,1,6)              120.3044         estimate D2E/DX2                !
 ! A3    A(5,1,6)              118.3545         estimate D2E/DX2                !
 ! A4    A(1,2,3)              129.1766         estimate D2E/DX2                !
 ! A5    A(1,2,7)              117.2252         estimate D2E/DX2                !
 ! A6    A(3,2,7)              113.1254         estimate D2E/DX2                !
 ! A7    A(2,3,4)              124.5019         estimate D2E/DX2                !
 ! A8    A(2,3,8)              114.9907         estimate D2E/DX2                !
 ! A9    A(4,3,8)              120.1283         estimate D2E/DX2                !
 ! A10   A(3,4,9)              121.8472         estimate D2E/DX2                !
 ! A11   A(3,4,10)             120.9655         estimate D2E/DX2                !
 ! A12   A(9,4,10)             117.171          estimate D2E/DX2                !
 ! D1    D(5,1,2,3)            174.6017         estimate D2E/DX2                !
 ! D2    D(5,1,2,7)              3.1038         estimate D2E/DX2                !
 ! D3    D(6,1,2,3)             -6.5013         estimate D2E/DX2                !
 ! D4    D(6,1,2,7)           -177.9992         estimate D2E/DX2                !
 ! D5    D(1,2,3,4)           -139.989          Frozen                          !
 ! D6    D(1,2,3,8)             32.9209         estimate D2E/DX2                !
 ! D7    D(7,2,3,4)             31.7923         estimate D2E/DX2                !
 ! D8    D(7,2,3,8)           -155.2979         estimate D2E/DX2                !
 ! D9    D(2,3,4,9)             -5.7324         estimate D2E/DX2                !
 ! D10   D(2,3,4,10)           175.7782         estimate D2E/DX2                !
 ! D11   D(8,3,4,9)           -178.3004         estimate D2E/DX2                !
 ! D12   D(8,3,4,10)             3.2102         estimate D2E/DX2                !
 --------------------------------------------------------------------------------
 Trust Radius=3.00D-01 FncErr=1.00D-07 GrdErr=1.00D-06
 Number of steps in this run=     43 maximum allowed number of steps=    100.
 GradGradGradGradGradGradGradGradGradGradGradGradGradGradGradGradGradGrad

 Leave Link  103 at Wed May 12 11:55:58 2021, MaxMem=  2147483648 cpu:         0.1
 (Enter /opt/cluster/programs/g09_d.01/g09/l202.exe)
                          Input orientation:                          
 ---------------------------------------------------------------------
 Center     Atomic      Atomic             Coordinates (Angstroms)
 Number     Number       Type             X           Y           Z
 ---------------------------------------------------------------------
      1          6           0       -1.654934   -0.736920    0.182651
      2          6           0       -0.520089   -0.091045   -0.099928
      3          6           0        0.834018   -0.623682   -0.247317
      4          6           0        1.944003   -0.018804    0.209558
      5          1           0       -2.581444   -0.201430    0.347699
      6          1           0       -1.669829   -1.819289    0.234249
      7          9           0       -0.565208    1.333117   -0.107976
      8          1           0        0.890159   -1.629520   -0.659224
      9          1           0        1.915772    0.972551    0.650566
     10          1           0        2.914223   -0.497653    0.128708
 ---------------------------------------------------------------------
                    Distance matrix (angstroms):
                    1          2          3          4          5
     1  C    0.000000
     2  C    1.335993   0.000000
     3  C    2.528355   1.462543   0.000000
     4  C    3.669981   2.484502   1.344128   0.000000
     5  H    1.082779   2.112283   3.492524   4.531237   0.000000
     6  H    1.083701   2.102476   2.816138   4.037591   1.860479
     7  F    2.357333   1.424899   2.409629   2.867866   2.574428
     8  H    2.825418   2.160675   1.088361   2.111818   3.886562
     9  H    3.986374   2.761865   2.127051   1.085389   4.657780
    10  H    4.575735   3.465848   2.117671   1.084970   5.508000
                    6          7          8          9         10
     6  H    0.000000
     7  F    3.357822   0.000000
     8  H    2.718059   3.346518   0.000000
     9  H    4.563357   2.619285   3.088399   0.000000
    10  H    4.771938   3.938804   2.449244   1.852226   0.000000
 Stoichiometry    C4H5F
 Framework group  C1[X(C4H5F)]
 Deg. of freedom    24
 Full point group                 C1      NOp   1
 Largest Abelian subgroup         C1      NOp   1
 Largest concise Abelian subgroup C1      NOp   1
                         Standard orientation:                         
 ---------------------------------------------------------------------
 Center     Atomic      Atomic             Coordinates (Angstroms)
 Number     Number       Type             X           Y           Z
 ---------------------------------------------------------------------
      1          6           0       -1.654934   -0.736920    0.182651
      2          6           0       -0.520089   -0.091045   -0.099928
      3          6           0        0.834018   -0.623682   -0.247317
      4          6           0        1.944003   -0.018804    0.209558
      5          1           0       -2.581444   -0.201430    0.347699
      6          1           0       -1.669829   -1.819289    0.234249
      7          9           0       -0.565208    1.333117   -0.107976
      8          1           0        0.890159   -1.629520   -0.659224
      9          1           0        1.915772    0.972551    0.650566
     10          1           0        2.914223   -0.497653    0.128708
 ---------------------------------------------------------------------
 Rotational constants (GHZ):      9.1999508      4.1570211      2.9647287
 Leave Link  202 at Wed May 12 11:55:58 2021, MaxMem=  2147483648 cpu:         0.0
 (Enter /opt/cluster/programs/g09_d.01/g09/l301.exe)
 Standard basis: 6-31+G (6D, 7F)
 Ernie: Thresh=  0.10000D-02 Tol=  0.10000D-05 Strict=F.
 There are    75 symmetry adapted cartesian basis functions of A   symmetry.
 There are    75 symmetry adapted basis functions of A   symmetry.
    75 basis functions,   150 primitive gaussians,    75 cartesian basis functions
    19 alpha electrons       19 beta electrons
       nuclear repulsion energy       157.1072307811 Hartrees.
 IExCor= 4639 DFT=T Ex+Corr=wB97XD ExCW=0 ScaHFX=  1.000000
 ScaDFX=  1.000000  1.000000  1.000000  1.000000 ScalE2=  1.000000  1.000000
 IRadAn=      0 IRanWt=     -1 IRanGd=            0 ICorTp=0 IEmpDi=121
  HFx wShort=  0.000000 wLong=  0.200000 cFull=  0.222036 cShort=  0.000000 cLong=  0.777964
  DFx wShort=  0.000000 wLong=  0.200000 cFull=  0.000000 cShort=  0.000000 cLong=  1.000000
 NAtoms=   10 NActive=   10 NUniq=   10 SFac= 1.00D+00 NAtFMM=   60 NAOKFM=F Big=F
 Integral buffers will be    131072 words long.
 Raffenetti 2 integral format.
 Two-electron integral symmetry is turned on.
 R6Disp:  Grimme-D2 Dispersion energy=       -0.0029679959 Hartrees.
 Nuclear repulsion after empirical dispersion term =      157.1042627852 Hartrees.
 Leave Link  301 at Wed May 12 11:55:58 2021, MaxMem=  2147483648 cpu:         0.3
 (Enter /opt/cluster/programs/g09_d.01/g09/l302.exe)
 NPDir=0 NMtPBC=     1 NCelOv=     1 NCel=       1 NClECP=     1 NCelD=      1
         NCelK=      1 NCelE2=     1 NClLst=     1 CellRange=     0.0.
 One-electron integrals computed using PRISM.
 NBasis=    75 RedAO= T EigKep=  6.77D-05  NBF=    75
 NBsUse=    75 1.00D-06 EigRej= -1.00D+00 NBFU=    75
 Precomputing XC quadrature grid using
 IXCGrd= 4 IRadAn=           0 IRanWt=          -1 IRanGd=           0 AccXCQ= 0.00D+00.
 Generated NRdTot=       0 NPtTot=           0 NUsed=           0 NTot=          32
 NSgBfM=    75    75    75    75    75 MxSgAt=    10 MxSgA2=    10.
 Leave Link  302 at Wed May 12 11:55:59 2021, MaxMem=  2147483648 cpu:         0.9
 (Enter /opt/cluster/programs/g09_d.01/g09/l303.exe)
 DipDrv:  MaxL=1.
 Leave Link  303 at Wed May 12 11:55:59 2021, MaxMem=  2147483648 cpu:         0.2
 (Enter /opt/cluster/programs/g09_d.01/g09/l401.exe)
 ExpMin= 4.38D-02 ExpMax= 7.00D+03 ExpMxC= 1.05D+03 IAcc=2 IRadAn=         4 AccDes= 0.00D+00
 Harris functional with IExCor= 4639 and IRadAn=       4 diagonalized for initial guess.
 HarFok:  IExCor= 4639 AccDes= 0.00D+00 IRadAn=         4 IDoV= 1 UseB2=F ITyADJ=14
 ICtDFT=  3500011 ScaDFX=  1.000000  1.000000  1.000000  1.000000
 FoFCou: FMM=F IPFlag=           0 FMFlag=      100000 FMFlg1=           0
         NFxFlg=           0 DoJE=T BraDBF=F KetDBF=T FulRan=T
         wScrn=  0.000000 ICntrl=     500 IOpCl=  0 I1Cent=   200000004 NGrid=           0
         NMat0=    1 NMatS0=      1 NMatT0=    0 NMatD0=    1 NMtDS0=    0 NMtDT0=    0
 Petite list used in FoFCou.
 Harris En= -244.786120647246    
 JPrj=0 DoOrth=F DoCkMO=F.
 Leave Link  401 at Wed May 12 11:55:59 2021, MaxMem=  2147483648 cpu:         1.3
 (Enter /opt/cluster/programs/g09_d.01/g09/l502.exe)
 Closed shell SCF:
 Using DIIS extrapolation, IDIIS=  1040.
 Integral symmetry usage will be decided dynamically.
 Keep R1 ints in memory in canonical form, NReq=9056162.
 IVT=       36600 IEndB=       36600 NGot=  2147483648 MDV=  2139321699
 LenX=  2139321699 LenY=  2139315633
 Requested convergence on RMS density matrix=1.00D-08 within 128 cycles.
 Requested convergence on MAX density matrix=1.00D-06.
 Requested convergence on             energy=1.00D-06.
 No special actions if energy rises.
 FoFCou: FMM=F IPFlag=           0 FMFlag=           0 FMFlg1=           0
         NFxFlg=           0 DoJE=F BraDBF=F KetDBF=F FulRan=T
         wScrn=  0.000000 ICntrl=     600 IOpCl=  0 I1Cent=           0 NGrid=           0
         NMat0=    1 NMatS0=   2850 NMatT0=    0 NMatD0=    1 NMtDS0=    0 NMtDT0=    0
 Symmetry not used in FoFCou.

 Cycle   1  Pass 1  IDiag  1:
 E= -254.932767425489    
 DIIS: error= 5.32D-02 at cycle   1 NSaved=   1.
 NSaved= 1 IEnMin= 1 EnMin= -254.932767425489     IErMin= 1 ErrMin= 5.32D-02
 ErrMax= 5.32D-02  0.00D+00 EMaxC= 1.00D-01 BMatC= 2.58D-01 BMatP= 2.58D-01
 IDIUse=3 WtCom= 4.68D-01 WtEn= 5.32D-01
 Coeff-Com:  0.100D+01
 Coeff-En:   0.100D+01
 Coeff:      0.100D+01
 Gap=     0.430 Goal=   None    Shift=    0.000
 GapD=    0.430 DampG=2.000 DampE=0.500 DampFc=1.0000 IDamp=-1.
 RMSDP=2.26D-02 MaxDP=6.02D-01              OVMax= 1.70D-01

 Cycle   2  Pass 1  IDiag  1:
 E= -254.892974423673     Delta-E=        0.039793001816 Rises=F Damp=F
 DIIS: error= 5.22D-02 at cycle   2 NSaved=   2.
 NSaved= 2 IEnMin= 1 EnMin= -254.932767425489     IErMin= 2 ErrMin= 5.22D-02
 ErrMax= 5.22D-02  0.00D+00 EMaxC= 1.00D-01 BMatC= 2.99D-01 BMatP= 2.58D-01
 IDIUse=2 WtCom= 0.00D+00 WtEn= 1.00D+00
 Coeff-En:   0.552D+00 0.448D+00
 Coeff:      0.552D+00 0.448D+00
 Gap=     0.400 Goal=   None    Shift=    0.000
 RMSDP=7.46D-03 MaxDP=1.12D-01 DE= 3.98D-02 OVMax= 9.31D-02

 Cycle   3  Pass 1  IDiag  1:
 E= -255.096652091202     Delta-E=       -0.203677667529 Rises=F Damp=F
 DIIS: error= 2.46D-03 at cycle   3 NSaved=   3.
 NSaved= 3 IEnMin= 3 EnMin= -255.096652091202     IErMin= 3 ErrMin= 2.46D-03
 ErrMax= 2.46D-03  0.00D+00 EMaxC= 1.00D-01 BMatC= 7.38D-04 BMatP= 2.58D-01
 IDIUse=3 WtCom= 9.75D-01 WtEn= 2.46D-02
 Coeff-Com: -0.351D-02-0.439D-01 0.105D+01
 Coeff-En:   0.000D+00 0.000D+00 0.100D+01
 Coeff:     -0.342D-02-0.428D-01 0.105D+01
 Gap=     0.348 Goal=   None    Shift=    0.000
 RMSDP=2.53D-03 MaxDP=5.51D-02 DE=-2.04D-01 OVMax= 1.19D-02

 Cycle   4  Pass 1  IDiag  1:
 E= -255.097263843706     Delta-E=       -0.000611752503 Rises=F Damp=F
 DIIS: error= 1.15D-03 at cycle   4 NSaved=   4.
 NSaved= 4 IEnMin= 4 EnMin= -255.097263843706     IErMin= 4 ErrMin= 1.15D-03
 ErrMax= 1.15D-03  0.00D+00 EMaxC= 1.00D-01 BMatC= 1.84D-04 BMatP= 7.38D-04
 IDIUse=3 WtCom= 9.88D-01 WtEn= 1.15D-02
 Coeff-Com: -0.867D-02-0.292D-01 0.457D+00 0.581D+00
 Coeff-En:   0.000D+00 0.000D+00 0.000D+00 0.100D+01
 Coeff:     -0.857D-02-0.289D-01 0.452D+00 0.586D+00
 Gap=     0.349 Goal=   None    Shift=    0.000
 RMSDP=4.19D-04 MaxDP=8.60D-03 DE=-6.12D-04 OVMax= 5.83D-03

 Cycle   5  Pass 1  IDiag  1:
 E= -255.097468240741     Delta-E=       -0.000204397035 Rises=F Damp=F
 DIIS: error= 3.14D-04 at cycle   5 NSaved=   5.
 NSaved= 5 IEnMin= 5 EnMin= -255.097468240741     IErMin= 5 ErrMin= 3.14D-04
 ErrMax= 3.14D-04  0.00D+00 EMaxC= 1.00D-01 BMatC= 6.98D-06 BMatP= 1.84D-04
 IDIUse=3 WtCom= 9.97D-01 WtEn= 3.14D-03
 Coeff-Com: -0.141D-02-0.287D-02-0.280D-01 0.572D-01 0.975D+00
 Coeff-En:   0.000D+00 0.000D+00 0.000D+00 0.000D+00 0.100D+01
 Coeff:     -0.141D-02-0.286D-02-0.279D-01 0.570D-01 0.975D+00
 Gap=     0.348 Goal=   None    Shift=    0.000
 RMSDP=3.08D-04 MaxDP=7.50D-03 DE=-2.04D-04 OVMax= 1.99D-03

 Cycle   6  Pass 1  IDiag  1:
 E= -255.097480126209     Delta-E=       -0.000011885468 Rises=F Damp=F
 DIIS: error= 2.11D-04 at cycle   6 NSaved=   6.
 NSaved= 6 IEnMin= 6 EnMin= -255.097480126209     IErMin= 6 ErrMin= 2.11D-04
 ErrMax= 2.11D-04  0.00D+00 EMaxC= 1.00D-01 BMatC= 2.19D-06 BMatP= 6.98D-06
 IDIUse=3 WtCom= 9.98D-01 WtEn= 2.11D-03
 Coeff-Com:  0.674D-03 0.273D-02-0.826D-01-0.657D-01 0.456D+00 0.689D+00
 Coeff-En:   0.000D+00 0.000D+00 0.000D+00 0.000D+00 0.000D+00 0.100D+01
 Coeff:      0.673D-03 0.272D-02-0.824D-01-0.656D-01 0.455D+00 0.690D+00
 Gap=     0.349 Goal=   None    Shift=    0.000
 RMSDP=8.29D-05 MaxDP=1.74D-03 DE=-1.19D-05 OVMax= 7.07D-04

 Cycle   7  Pass 1  IDiag  1:
 E= -255.097482964323     Delta-E=       -0.000002838114 Rises=F Damp=F
 DIIS: error= 2.42D-05 at cycle   7 NSaved=   7.
 NSaved= 7 IEnMin= 7 EnMin= -255.097482964323     IErMin= 7 ErrMin= 2.42D-05
 ErrMax= 2.42D-05  0.00D+00 EMaxC= 1.00D-01 BMatC= 3.59D-08 BMatP= 2.19D-06
 IDIUse=1 WtCom= 1.00D+00 WtEn= 0.00D+00
 Coeff-Com:  0.129D-03 0.188D-03-0.990D-03-0.561D-02-0.347D-01 0.154D-01
 Coeff-Com:  0.103D+01
 Coeff:      0.129D-03 0.188D-03-0.990D-03-0.561D-02-0.347D-01 0.154D-01
 Coeff:      0.103D+01
 Gap=     0.349 Goal=   None    Shift=    0.000
 RMSDP=1.58D-05 MaxDP=2.24D-04 DE=-2.84D-06 OVMax= 1.34D-04

 Cycle   8  Pass 1  IDiag  1:
 E= -255.097483031100     Delta-E=       -0.000000066776 Rises=F Damp=F
 DIIS: error= 1.24D-05 at cycle   8 NSaved=   8.
 NSaved= 8 IEnMin= 8 EnMin= -255.097483031100     IErMin= 8 ErrMin= 1.24D-05
 ErrMax= 1.24D-05  0.00D+00 EMaxC= 1.00D-01 BMatC= 1.61D-08 BMatP= 3.59D-08
 IDIUse=1 WtCom= 1.00D+00 WtEn= 0.00D+00
 Coeff-Com: -0.211D-04-0.237D-03 0.813D-02 0.439D-02-0.568D-01-0.628D-01
 Coeff-Com:  0.489D+00 0.618D+00
 Coeff:     -0.211D-04-0.237D-03 0.813D-02 0.439D-02-0.568D-01-0.628D-01
 Coeff:      0.489D+00 0.618D+00
 Gap=     0.349 Goal=   None    Shift=    0.000
 RMSDP=7.44D-06 MaxDP=1.63D-04 DE=-6.68D-08 OVMax= 7.61D-05

 Cycle   9  Pass 1  IDiag  1:
 E= -255.097483050265     Delta-E=       -0.000000019166 Rises=F Damp=F
 DIIS: error= 4.10D-06 at cycle   9 NSaved=   9.
 NSaved= 9 IEnMin= 9 EnMin= -255.097483050265     IErMin= 9 ErrMin= 4.10D-06
 ErrMax= 4.10D-06  0.00D+00 EMaxC= 1.00D-01 BMatC= 8.73D-10 BMatP= 1.61D-08
 IDIUse=1 WtCom= 1.00D+00 WtEn= 0.00D+00
 Coeff-Com: -0.116D-04-0.495D-04 0.155D-02 0.915D-03-0.691D-02-0.173D-01
 Coeff-Com: -0.178D-01 0.148D+00 0.892D+00
 Coeff:     -0.116D-04-0.495D-04 0.155D-02 0.915D-03-0.691D-02-0.173D-01
 Coeff:     -0.178D-01 0.148D+00 0.892D+00
 Gap=     0.349 Goal=   None    Shift=    0.000
 RMSDP=2.52D-06 MaxDP=4.11D-05 DE=-1.92D-08 OVMax= 1.70D-05

 Cycle  10  Pass 1  IDiag  1:
 E= -255.097483051435     Delta-E=       -0.000000001170 Rises=F Damp=F
 DIIS: error= 5.49D-07 at cycle  10 NSaved=  10.
 NSaved=10 IEnMin=10 EnMin= -255.097483051435     IErMin=10 ErrMin= 5.49D-07
 ErrMax= 5.49D-07  0.00D+00 EMaxC= 1.00D-01 BMatC= 4.91D-11 BMatP= 8.73D-10
 IDIUse=1 WtCom= 1.00D+00 WtEn= 0.00D+00
 Coeff-Com:  0.157D-05 0.159D-04-0.443D-03-0.319D-03 0.411D-02 0.114D-02
 Coeff-Com: -0.500D-01-0.303D-02 0.223D+00 0.826D+00
 Coeff:      0.157D-05 0.159D-04-0.443D-03-0.319D-03 0.411D-02 0.114D-02
 Coeff:     -0.500D-01-0.303D-02 0.223D+00 0.826D+00
 Gap=     0.349 Goal=   None    Shift=    0.000
 RMSDP=5.89D-07 MaxDP=7.67D-06 DE=-1.17D-09 OVMax= 5.41D-06

 Cycle  11  Pass 1  IDiag  1:
 E= -255.097483051521     Delta-E=       -0.000000000086 Rises=F Damp=F
 DIIS: error= 1.36D-07 at cycle  11 NSaved=  11.
 NSaved=11 IEnMin=11 EnMin= -255.097483051521     IErMin=11 ErrMin= 1.36D-07
 ErrMax= 1.36D-07  0.00D+00 EMaxC= 1.00D-01 BMatC= 1.60D-12 BMatP= 4.91D-11
 IDIUse=1 WtCom= 1.00D+00 WtEn= 0.00D+00
 Coeff-Com:  0.510D-06 0.111D-05-0.607D-04-0.385D-04 0.274D-03 0.640D-03
 Coeff-Com:  0.335D-02-0.592D-02-0.651D-01-0.586D-01 0.113D+01
 Coeff:      0.510D-06 0.111D-05-0.607D-04-0.385D-04 0.274D-03 0.640D-03
 Coeff:      0.335D-02-0.592D-02-0.651D-01-0.586D-01 0.113D+01
 Gap=     0.349 Goal=   None    Shift=    0.000
 RMSDP=1.39D-07 MaxDP=2.07D-06 DE=-8.58D-11 OVMax= 1.81D-06

 Cycle  12  Pass 1  IDiag  1:
 E= -255.097483051530     Delta-E=       -0.000000000009 Rises=F Damp=F
 DIIS: error= 4.76D-08 at cycle  12 NSaved=  12.
 NSaved=12 IEnMin=12 EnMin= -255.097483051530     IErMin=12 ErrMin= 4.76D-08
 ErrMax= 4.76D-08  0.00D+00 EMaxC= 1.00D-01 BMatC= 9.42D-14 BMatP= 1.60D-12
 IDIUse=1 WtCom= 1.00D+00 WtEn= 0.00D+00
 Coeff-Com: -0.383D-07-0.871D-06 0.200D-04 0.999D-05-0.139D-03-0.152D-03
 Coeff-Com:  0.190D-02 0.309D-03-0.475D-02-0.331D-01-0.958D-01 0.113D+01
 Coeff:     -0.383D-07-0.871D-06 0.200D-04 0.999D-05-0.139D-03-0.152D-03
 Coeff:      0.190D-02 0.309D-03-0.475D-02-0.331D-01-0.958D-01 0.113D+01
 Gap=     0.349 Goal=   None    Shift=    0.000
 RMSDP=3.68D-08 MaxDP=4.92D-07 DE=-8.53D-12 OVMax= 3.70D-07

 Cycle  13  Pass 1  IDiag  1:
 E= -255.097483051528     Delta-E=        0.000000000001 Rises=F Damp=F
 DIIS: error= 4.82D-09 at cycle  13 NSaved=  13.
 NSaved=13 IEnMin=12 EnMin= -255.097483051530     IErMin=13 ErrMin= 4.82D-09
 ErrMax= 4.82D-09  0.00D+00 EMaxC= 1.00D-01 BMatC= 1.82D-15 BMatP= 9.42D-14
 IDIUse=1 WtCom= 1.00D+00 WtEn= 0.00D+00
 Coeff-Com: -0.142D-07 0.626D-07 0.905D-06-0.547D-06-0.569D-06-0.214D-04
 Coeff-Com: -0.227D-03 0.218D-03 0.254D-02 0.556D-02-0.306D-01-0.105D+00
 Coeff-Com:  0.113D+01
 Coeff:     -0.142D-07 0.626D-07 0.905D-06-0.547D-06-0.569D-06-0.214D-04
 Coeff:     -0.227D-03 0.218D-03 0.254D-02 0.556D-02-0.306D-01-0.105D+00
 Coeff:      0.113D+01
 Gap=     0.349 Goal=   None    Shift=    0.000
 RMSDP=6.87D-09 MaxDP=1.24D-07 DE= 1.48D-12 OVMax= 5.62D-08

 SCF Done:  E(RwB97XD) =  -255.097483052     A.U. after   13 cycles
            NFock= 13  Conv=0.69D-08     -V/T= 2.0059
 KE= 2.536119519877D+02 PE=-9.118553636168D+02 EE= 2.460416657924D+02
 Leave Link  502 at Wed May 12 11:56:00 2021, MaxMem=  2147483648 cpu:        12.8
 (Enter /opt/cluster/programs/g09_d.01/g09/l601.exe)
 Copying SCF densities to generalized density rwf, IOpCl= 0 IROHF=0.

 **********************************************************************

            Population analysis using the SCF density.

 **********************************************************************

 Orbital symmetries:
       Occupied  (A) (A) (A) (A) (A) (A) (A) (A) (A) (A) (A) (A)
                 (A) (A) (A) (A) (A) (A) (A)
       Virtual   (A) (A) (A) (A) (A) (A) (A) (A) (A) (A) (A) (A)
                 (A) (A) (A) (A) (A) (A) (A) (A) (A) (A) (A) (A)
                 (A) (A) (A) (A) (A) (A) (A) (A) (A) (A) (A) (A)
                 (A) (A) (A) (A) (A) (A) (A) (A) (A) (A) (A) (A)
                 (A) (A) (A) (A) (A) (A) (A) (A)
 The electronic state is 1-A.
 Alpha  occ. eigenvalues --  -24.82888 -10.40439 -10.33098 -10.31702 -10.31238
 Alpha  occ. eigenvalues --   -1.30505  -0.92752  -0.86339  -0.73307  -0.66268
 Alpha  occ. eigenvalues --   -0.60062  -0.58489  -0.54821  -0.52527  -0.50572
 Alpha  occ. eigenvalues --   -0.48201  -0.45646  -0.40526  -0.33038
 Alpha virt. eigenvalues --    0.01820   0.06763   0.08119   0.09546   0.10219
 Alpha virt. eigenvalues --    0.11525   0.12068   0.12995   0.14007   0.14661
 Alpha virt. eigenvalues --    0.15930   0.16807   0.18342   0.19371   0.20012
 Alpha virt. eigenvalues --    0.21391   0.23035   0.24577   0.25178   0.28434
 Alpha virt. eigenvalues --    0.29472   0.30771   0.32209   0.38793   0.41091
 Alpha virt. eigenvalues --    0.42166   0.43380   0.45550   0.48744   0.50072
 Alpha virt. eigenvalues --    0.52173   0.68005   0.74355   0.77081   0.78717
 Alpha virt. eigenvalues --    0.81126   0.82945   0.84733   0.88610   0.92618
 Alpha virt. eigenvalues --    0.98823   1.02691   1.04007   1.09395   1.13535
 Alpha virt. eigenvalues --    1.15460   1.17031   1.23797   1.30271   1.31704
 Alpha virt. eigenvalues --    1.39426   1.41407   1.66754   1.81567   1.85225
 Alpha virt. eigenvalues --    2.37563
          Condensed to atoms (all electrons):
               1          2          3          4          5          6
     1  C    6.117283   0.063567  -0.271423  -0.054318   0.373373   0.336932
     2  C    0.063567   5.446522  -0.017328   0.081271  -0.034934  -0.016963
     3  C   -0.271423  -0.017328   6.088587   0.175209   0.013910   0.017357
     4  C   -0.054318   0.081271   0.175209   5.456289   0.001168   0.000704
     5  H    0.373373  -0.034934   0.013910   0.001168   0.447936  -0.019497
     6  H    0.336932  -0.016963   0.017357   0.000704  -0.019497   0.468549
     7  F   -0.149409   0.288842  -0.145361   0.003214  -0.003224   0.004080
     8  H    0.007801  -0.014915   0.328731  -0.013409   0.000050   0.000345
     9  H   -0.002588   0.003645  -0.051084   0.395099   0.000002  -0.000002
    10  H    0.003115   0.018368  -0.030447   0.358257   0.000001  -0.000001
               7          8          9         10
     1  C   -0.149409   0.007801  -0.002588   0.003115
     2  C    0.288842  -0.014915   0.003645   0.018368
     3  C   -0.145361   0.328731  -0.051084  -0.030447
     4  C    0.003214  -0.013409   0.395099   0.358257
     5  H   -0.003224   0.000050   0.000002   0.000001
     6  H    0.004080   0.000345  -0.000002  -0.000001
     7  F    9.311690   0.003738  -0.000088   0.000262
     8  H    0.003738   0.470512   0.002507  -0.003714
     9  H   -0.000088   0.002507   0.454152  -0.023277
    10  H    0.000262  -0.003714  -0.023277   0.479348
 Mulliken charges:
               1
     1  C   -0.424333
     2  C    0.181927
     3  C   -0.108151
     4  C   -0.403485
     5  H    0.221215
     6  H    0.208495
     7  F   -0.313744
     8  H    0.218353
     9  H    0.221634
    10  H    0.198089
 Sum of Mulliken charges =   0.00000
 Mulliken charges with hydrogens summed into heavy atoms:
               1
     1  C    0.005377
     2  C    0.181927
     3  C    0.110201
     4  C    0.016239
     7  F   -0.313744
 Electronic spatial extent (au):  <R**2>=            425.7280
 Charge=              0.0000 electrons
 Dipole moment (field-independent basis, Debye):
    X=              0.5392    Y=             -2.1709    Z=              0.2767  Tot=              2.2539
 Quadrupole moment (field-independent basis, Debye-Ang):
   XX=            -25.0654   YY=            -30.0201   ZZ=            -32.0710
   XY=              1.3405   XZ=             -0.2374   YZ=              1.4061
 Traceless Quadrupole moment (field-independent basis, Debye-Ang):
   XX=              3.9868   YY=             -0.9680   ZZ=             -3.0188
   XY=              1.3405   XZ=             -0.2374   YZ=              1.4061
 Octapole moment (field-independent basis, Debye-Ang**2):
  XXX=             -2.4868  YYY=              1.5852  ZZZ=             -0.9241  XYY=              0.2101
  XXY=              1.2845  XXZ=              3.4135  XZZ=             -1.2909  YZZ=              4.6299
  YYZ=             -0.3162  XYZ=              2.2612
 Hexadecapole moment (field-independent basis, Debye-Ang**3):
 XXXX=           -325.6747 YYYY=           -137.8190 ZZZZ=            -46.2704 XXXY=             -9.6513
 XXXZ=             -1.7358 YYYX=              1.2924 YYYZ=              2.4829 ZZZX=              1.0215
 ZZZY=              0.6214 XXYY=            -81.9464 XXZZ=            -75.8697 YYZZ=            -31.8883
 XXYZ=              1.7751 YYXZ=             -1.3653 ZZXY=             -2.2855
 N-N= 1.571042627852D+02 E-N=-9.118553638038D+02  KE= 2.536119519877D+02
 No NMR shielding tensors so no spin-rotation constants.
 Leave Link  601 at Wed May 12 11:56:01 2021, MaxMem=  2147483648 cpu:         0.6
 (Enter /opt/cluster/programs/g09_d.01/g09/l701.exe)
 Compute integral first derivatives.
 ... and contract with generalized density number  0.
 R6Disp: Adding Grimme-D2 dispersion energy 1st derivatives to the gradient.
 Leave Link  701 at Wed May 12 11:56:01 2021, MaxMem=  2147483648 cpu:         0.6
 (Enter /opt/cluster/programs/g09_d.01/g09/l702.exe)
 L702 exits ... SP integral derivatives will be done elsewhere.
 Leave Link  702 at Wed May 12 11:56:01 2021, MaxMem=  2147483648 cpu:         0.2
 (Enter /opt/cluster/programs/g09_d.01/g09/l703.exe)
 Compute integral first derivatives, UseDBF=F ICtDFT=           0.
 Integral derivatives from FoFJK, PRISM(SPDF).
 Calling FoFJK, ICntrl=      2127 FMM=F ISym2X=0 I1Cent= 0 IOpClX= 0 NMat=1 NMatS=1 NMatT=0.
 FoFJK:  IHMeth= 1 ICntrl=    2127 DoSepK=T KAlg= 0 I1Cent=   0 FoldK=F
 IRaf=         1 NMat=   1 IRICut=       1 DoRegI=T DoRafI=F ISym2E= 0.
 FoFCou: FMM=F IPFlag=           0 FMFlag=      100000 FMFlg1=         800
         NFxFlg=           0 DoJE=F BraDBF=F KetDBF=F FulRan=T
         wScrn=  0.000000 ICntrl=    2527 IOpCl=  0 I1Cent=           0 NGrid=           0
         NMat0=    1 NMatS0=      1 NMatT0=    0 NMatD0=    1 NMtDS0=    0 NMtDT0=    0
 Symmetry not used in FoFCou.
 Leave Link  703 at Wed May 12 11:56:01 2021, MaxMem=  2147483648 cpu:         3.3
 (Enter /opt/cluster/programs/g09_d.01/g09/l716.exe)
 Dipole        = 2.12134459D-01-8.54087518D-01 1.08865219D-01
 ***** Axes restored to original set *****
 -------------------------------------------------------------------
 Center     Atomic                   Forces (Hartrees/Bohr)
 Number     Number              X              Y              Z
 -------------------------------------------------------------------
      1        6           0.003985196    0.001702780   -0.007347444
      2        6          -0.004407281    0.007361881    0.009168091
      3        6           0.004554191   -0.004066759    0.005979580
      4        6          -0.004465036    0.000659332   -0.006686084
      5        1           0.000601128    0.000087090   -0.000183561
      6        1           0.000546358    0.000404116   -0.000006666
      7        9           0.000222215   -0.006452825   -0.000363456
      8        1           0.000072616    0.000751865   -0.000229666
      9        1          -0.000381465   -0.000352853   -0.000092146
     10        1          -0.000727923   -0.000094629   -0.000238647
 -------------------------------------------------------------------
 Cartesian Forces:  Max     0.009168091 RMS     0.003709149
 Leave Link  716 at Wed May 12 11:56:01 2021, MaxMem=  2147483648 cpu:         0.2
 (Enter /opt/cluster/programs/g09_d.01/g09/l103.exe)

 GradGradGradGradGradGradGradGradGradGradGradGradGradGradGradGradGradGrad
 Berny optimization.
 FormGI is forming the generalized inverse of G from B-inverse, IUseBI=4.
 Internal  Forces:  Max     0.007013311 RMS     0.002548276
 Search for a local minimum.
 Step number   1 out of a maximum of   43
 All quantities printed in internal units (Hartrees-Bohrs-Radians)
 RMS Force = .21267D-02 SwitMx=.10000D-02 MixMth= 1
 Mixed Optimization -- RFO/linear search
 Second derivative matrix not updated -- first step.
 ITU=  0
     Eigenvalues ---    0.01710   0.02144   0.02828   0.02830   0.02935
     Eigenvalues ---    0.02937   0.15923   0.16000   0.16000   0.16000
     Eigenvalues ---    0.16000   0.22019   0.24864   0.25000   0.35003
     Eigenvalues ---    0.35351   0.35400   0.35551   0.35661   0.36648
     Eigenvalues ---    0.41731   0.56290   0.581121000.000001000.00000
     Eigenvalues --- 1000.000001000.000001000.000001000.000001000.00000
     Eigenvalues --- 1000.000001000.000001000.00000
 RFO step:  Lambda=-3.29746801D-04 EMin= 1.71046400D-02
 Linear search not attempted -- first point.
 Iteration  1 RMS(Cart)=  0.01237880 RMS(Int)=  0.00007711
 Iteration  2 RMS(Cart)=  0.00007359 RMS(Int)=  0.00001371
 Iteration  3 RMS(Cart)=  0.00000000 RMS(Int)=  0.00001371
 Iteration  1 RMS(Cart)=  0.00000010 RMS(Int)=  0.00000007
 ITry= 1 IFail=0 DXMaxC= 2.52D-02 DCOld= 1.00D+10 DXMaxT= 3.00D-01 DXLimC= 3.00D+00 Rises=F
 Variable       Old X    -DE/DX   Delta X   Delta X   Delta X     New X
                                 (Linear)    (Quad)   (Total)
    R1        2.52466  -0.00701   0.00000  -0.01206  -0.01206   2.51260
    R2        2.04616  -0.00050   0.00000  -0.00140  -0.00140   2.04476
    R3        2.04790  -0.00041   0.00000  -0.00115  -0.00115   2.04674
    R4        2.76381   0.00038   0.00000   0.00103   0.00103   2.76483
    R5        2.69267  -0.00646   0.00000  -0.01546  -0.01546   2.67721
    R6        2.54003  -0.00689   0.00000  -0.01223  -0.01223   2.52780
    R7        2.05670  -0.00060   0.00000  -0.00172  -0.00172   2.05498
    R8        2.05109  -0.00035   0.00000  -0.00098  -0.00098   2.05011
    R9        2.05030  -0.00059   0.00000  -0.00168  -0.00168   2.04862
    A1        2.11765  -0.00017   0.00000  -0.00108  -0.00108   2.11657
    A2        2.09971  -0.00045   0.00000  -0.00278  -0.00278   2.09692
    A3        2.06568   0.00062   0.00000   0.00390   0.00390   2.06957
    A4        2.25456  -0.00064   0.00000  -0.00234  -0.00238   2.25218
    A5        2.04597   0.00081   0.00000   0.00259   0.00255   2.04852
    A6        1.97441   0.00020   0.00000   0.00170   0.00166   1.97607
    A7        2.17297  -0.00115   0.00000  -0.00529  -0.00532   2.16765
    A8        2.00697   0.00061   0.00000   0.00378   0.00375   2.01072
    A9        2.09663   0.00086   0.00000   0.00294   0.00292   2.09955
   A10        2.12664  -0.00019   0.00000  -0.00121  -0.00121   2.12543
   A11        2.11125  -0.00040   0.00000  -0.00248  -0.00248   2.10877
   A12        2.04502   0.00059   0.00000   0.00369   0.00369   2.04871
    D1        3.04737   0.00169   0.00000   0.01067   0.01067   3.05805
    D2        0.05417  -0.00158   0.00000  -0.00697  -0.00697   0.04720
    D3       -0.11347   0.00176   0.00000   0.01305   0.01305  -0.10042
    D4       -3.10667  -0.00151   0.00000  -0.00459  -0.00459  -3.11126
    D5       -2.44327  -0.00584   0.00000   0.00000   0.00000  -2.44327
    D6        0.57458  -0.00278   0.00000   0.01354   0.01354   0.58812
    D7        0.55488  -0.00264   0.00000   0.01713   0.01712   0.57200
    D8       -2.71046   0.00042   0.00000   0.03067   0.03067  -2.67979
    D9       -0.10005   0.00167   0.00000   0.00992   0.00992  -0.09013
   D10        3.06791   0.00166   0.00000   0.00942   0.00942   3.07732
   D11       -3.11193  -0.00151   0.00000  -0.00429  -0.00429  -3.11622
   D12        0.05603  -0.00152   0.00000  -0.00479  -0.00479   0.05124
         Item               Value     Threshold  Converged?
 Maximum Force            0.007013     0.000450     NO 
 RMS     Force            0.002127     0.000300     NO 
 Maximum Displacement     0.025172     0.001800     NO 
 RMS     Displacement     0.012390     0.001200     NO 
 Predicted change in Energy=-1.653218D-04
 Lowest energy point so far.  Saving SCF results.
 GradGradGradGradGradGradGradGradGradGradGradGradGradGradGradGradGradGrad

 Leave Link  103 at Wed May 12 11:56:01 2021, MaxMem=  2147483648 cpu:         0.0
 (Enter /opt/cluster/programs/g09_d.01/g09/l202.exe)
                          Input orientation:                          
 ---------------------------------------------------------------------
 Center     Atomic      Atomic             Coordinates (Angstroms)
 Number     Number       Type             X           Y           Z
 ---------------------------------------------------------------------
      1          6           0       -1.648341   -0.732850    0.185669
      2          6           0       -0.519141   -0.089506   -0.095189
      3          6           0        0.833931   -0.625446   -0.245467
      4          6           0        1.936647   -0.022193    0.212164
      5          1           0       -2.575342   -0.197588    0.343691
      6          1           0       -1.657856   -1.814258    0.245255
      7          9           0       -0.565271    1.326219   -0.121297
      8          1           0        0.891758   -1.624201   -0.671720
      9          1           0        1.903083    0.963974    0.663048
     10          1           0        2.907203   -0.496826    0.122831
 ---------------------------------------------------------------------
                    Distance matrix (angstroms):
                    1          2          3          4          5
     1  C    0.000000
     2  C    1.329611   0.000000
     3  C    2.521723   1.463086   0.000000
     4  C    3.654842   2.475862   1.337655   0.000000
     5  H    1.082039   2.105293   3.486160   4.517312   0.000000
     6  H    1.083090   2.094598   2.804119   4.016596   1.861476
     7  F    2.346706   1.416717   2.404616   2.861644   2.564875
     8  H    2.825194   2.162940   1.087450   2.107006   3.884207
     9  H    3.964809   2.748074   2.120080   1.084872   4.637618
    10  H    4.562086   3.457351   2.109654   1.084083   5.495145
                    6          7          8          9         10
     6  H    0.000000
     7  F    3.345249   0.000000
     8  H    2.716154   3.336296   0.000000
     9  H    4.535792   2.615185   3.082699   0.000000
    10  H    4.752933   3.929525   2.442192   1.853113   0.000000
 Stoichiometry    C4H5F
 Framework group  C1[X(C4H5F)]
 Deg. of freedom    24
 Full point group                 C1      NOp   1
 RotChk:  IX=0 Diff= 1.02D-02
 Largest Abelian subgroup         C1      NOp   1
 Largest concise Abelian subgroup C1      NOp   1
                         Standard orientation:                         
 ---------------------------------------------------------------------
 Center     Atomic      Atomic             Coordinates (Angstroms)
 Number     Number       Type             X           Y           Z
 ---------------------------------------------------------------------
      1          6           0       -1.645552   -0.738590    0.183354
      2          6           0       -0.518877   -0.089419   -0.094215
      3          6           0        0.836037   -0.619494   -0.248640
      4          6           0        1.936846   -0.015077    0.212034
      5          1           0       -2.574390   -0.207690    0.345256
      6          1           0       -1.651100   -1.820373    0.236254
      7          9           0       -0.570167    1.326264   -0.111535
      8          1           0        0.897219   -1.615377   -0.681099
      9          1           0        1.899988    0.968154    0.669032
     10          1           0        2.909062   -0.485615    0.119168
 ---------------------------------------------------------------------
 Rotational constants (GHZ):      9.2617305      4.1802951      2.9855730
 Leave Link  202 at Wed May 12 11:56:01 2021, MaxMem=  2147483648 cpu:         0.0
 (Enter /opt/cluster/programs/g09_d.01/g09/l301.exe)
 Standard basis: 6-31+G (6D, 7F)
 Ernie: Thresh=  0.10000D-02 Tol=  0.10000D-05 Strict=F.
 There are    75 symmetry adapted cartesian basis functions of A   symmetry.
 There are    75 symmetry adapted basis functions of A   symmetry.
    75 basis functions,   150 primitive gaussians,    75 cartesian basis functions
    19 alpha electrons       19 beta electrons
       nuclear repulsion energy       157.6099807912 Hartrees.
 IExCor= 4639 DFT=T Ex+Corr=wB97XD ExCW=0 ScaHFX=  1.000000
 ScaDFX=  1.000000  1.000000  1.000000  1.000000 ScalE2=  1.000000  1.000000
 IRadAn=      0 IRanWt=     -1 IRanGd=            0 ICorTp=0 IEmpDi=121
  HFx wShort=  0.000000 wLong=  0.200000 cFull=  0.222036 cShort=  0.000000 cLong=  0.777964
  DFx wShort=  0.000000 wLong=  0.200000 cFull=  0.000000 cShort=  0.000000 cLong=  1.000000
 NAtoms=   10 NActive=   10 NUniq=   10 SFac= 1.00D+00 NAtFMM=   60 NAOKFM=F Big=F
 Integral buffers will be    131072 words long.
 Raffenetti 2 integral format.
 Two-electron integral symmetry is turned on.
 R6Disp:  Grimme-D2 Dispersion energy=       -0.0029682814 Hartrees.
 Nuclear repulsion after empirical dispersion term =      157.6070125098 Hartrees.
 Leave Link  301 at Wed May 12 11:56:01 2021, MaxMem=  2147483648 cpu:         0.3
 (Enter /opt/cluster/programs/g09_d.01/g09/l302.exe)
 NPDir=0 NMtPBC=     1 NCelOv=     1 NCel=       1 NClECP=     1 NCelD=      1
         NCelK=      1 NCelE2=     1 NClLst=     1 CellRange=     0.0.
 One-electron integrals computed using PRISM.
 NBasis=    75 RedAO= T EigKep=  6.53D-05  NBF=    75
 NBsUse=    75 1.00D-06 EigRej= -1.00D+00 NBFU=    75
 Precomputing XC quadrature grid using
 IXCGrd= 4 IRadAn=           0 IRanWt=          -1 IRanGd=           0 AccXCQ= 0.00D+00.
 Generated NRdTot=       0 NPtTot=           0 NUsed=           0 NTot=          32
 NSgBfM=    75    75    75    75    75 MxSgAt=    10 MxSgA2=    10.
 Leave Link  302 at Wed May 12 11:56:01 2021, MaxMem=  2147483648 cpu:         0.9
 (Enter /opt/cluster/programs/g09_d.01/g09/l303.exe)
 DipDrv:  MaxL=1.
 Leave Link  303 at Wed May 12 11:56:01 2021, MaxMem=  2147483648 cpu:         0.2
 (Enter /opt/cluster/programs/g09_d.01/g09/l401.exe)
 Initial guess from the checkpoint file:  "/home/unibas/boittier/RDKit_G2/B.pdb/SCAN_1_2_3_4_S_17_20.0/2_SCAN_1_2_3_4_F/B.pdb.chk"
 B after Tr=     0.000000    0.000000    0.000000
         Rot=    0.999998   -0.000352    0.000090   -0.001704 Ang=  -0.20 deg.
 Guess basis will be translated and rotated to current coordinates.
 JPrj=2 DoOrth=T DoCkMO=T.
 Generating alternative initial guess.
 ExpMin= 4.38D-02 ExpMax= 7.00D+03 ExpMxC= 1.05D+03 IAcc=2 IRadAn=         4 AccDes= 0.00D+00
 Harris functional with IExCor= 4639 and IRadAn=       4 diagonalized for initial guess.
 HarFok:  IExCor= 4639 AccDes= 0.00D+00 IRadAn=         4 IDoV= 1 UseB2=F ITyADJ=14
 ICtDFT=  3500011 ScaDFX=  1.000000  1.000000  1.000000  1.000000
 FoFCou: FMM=F IPFlag=           0 FMFlag=      100000 FMFlg1=           0
         NFxFlg=           0 DoJE=T BraDBF=F KetDBF=T FulRan=T
         wScrn=  0.000000 ICntrl=     500 IOpCl=  0 I1Cent=   200000004 NGrid=           0
         NMat0=    1 NMatS0=      1 NMatT0=    0 NMatD0=    1 NMtDS0=    0 NMtDT0=    0
 Petite list used in FoFCou.
 Harris En= -244.783942030308    
 Leave Link  401 at Wed May 12 11:56:02 2021, MaxMem=  2147483648 cpu:         1.7
 (Enter /opt/cluster/programs/g09_d.01/g09/l502.exe)
 Closed shell SCF:
 Using DIIS extrapolation, IDIIS=  1040.
 Integral symmetry usage will be decided dynamically.
 Keep R1 ints in memory in canonical form, NReq=9056162.
 IVT=       36600 IEndB=       36600 NGot=  2147483648 MDV=  2139321699
 LenX=  2139321699 LenY=  2139315633
 Requested convergence on RMS density matrix=1.00D-08 within 128 cycles.
 Requested convergence on MAX density matrix=1.00D-06.
 Requested convergence on             energy=1.00D-06.
 No special actions if energy rises.
 FoFCou: FMM=F IPFlag=           0 FMFlag=           0 FMFlg1=           0
         NFxFlg=           0 DoJE=F BraDBF=F KetDBF=F FulRan=T
         wScrn=  0.000000 ICntrl=     600 IOpCl=  0 I1Cent=           0 NGrid=           0
         NMat0=    1 NMatS0=   2850 NMatT0=    0 NMatD0=    1 NMtDS0=    0 NMtDT0=    0
 Symmetry not used in FoFCou.

 Cycle   1  Pass 1  IDiag  1:
 E= -255.097477926831    
 DIIS: error= 6.89D-04 at cycle   1 NSaved=   1.
 NSaved= 1 IEnMin= 1 EnMin= -255.097477926831     IErMin= 1 ErrMin= 6.89D-04
 ErrMax= 6.89D-04  0.00D+00 EMaxC= 1.00D-01 BMatC= 8.42D-05 BMatP= 8.42D-05
 IDIUse=3 WtCom= 9.93D-01 WtEn= 6.89D-03
 Coeff-Com:  0.100D+01
 Coeff-En:   0.100D+01
 Coeff:      0.100D+01
 Gap=     0.573 Goal=   None    Shift=    0.000
 RMSDP=6.77D-04 MaxDP=1.46D-02              OVMax= 3.93D-03

 Cycle   2  Pass 1  IDiag  1:
 E= -255.097639235167     Delta-E=       -0.000161308336 Rises=F Damp=F
 DIIS: error= 2.45D-04 at cycle   2 NSaved=   2.
 NSaved= 2 IEnMin= 2 EnMin= -255.097639235167     IErMin= 2 ErrMin= 2.45D-04
 ErrMax= 2.45D-04  0.00D+00 EMaxC= 1.00D-01 BMatC= 6.37D-06 BMatP= 8.42D-05
 IDIUse=3 WtCom= 9.98D-01 WtEn= 2.45D-03
 Coeff-Com: -0.421D-01 0.104D+01
 Coeff-En:   0.000D+00 0.100D+01
 Coeff:     -0.420D-01 0.104D+01
 Gap=     0.351 Goal=   None    Shift=    0.000
 RMSDP=1.67D-04 MaxDP=3.82D-03 DE=-1.61D-04 OVMax= 1.70D-03

 Cycle   3  Pass 1  IDiag  1:
 E= -255.097654355651     Delta-E=       -0.000015120484 Rises=F Damp=F
 DIIS: error= 1.20D-04 at cycle   3 NSaved=   3.
 NSaved= 3 IEnMin= 3 EnMin= -255.097654355651     IErMin= 3 ErrMin= 1.20D-04
 ErrMax= 1.20D-04  0.00D+00 EMaxC= 1.00D-01 BMatC= 1.91D-06 BMatP= 6.37D-06
 IDIUse=3 WtCom= 9.99D-01 WtEn= 1.20D-03
 Coeff-Com: -0.868D-01 0.329D+00 0.758D+00
 Coeff-En:   0.000D+00 0.000D+00 0.100D+01
 Coeff:     -0.867D-01 0.328D+00 0.758D+00
 Gap=     0.352 Goal=   None    Shift=    0.000
 RMSDP=4.59D-05 MaxDP=7.20D-04 DE=-1.51D-05 OVMax= 6.04D-04

 Cycle   4  Pass 1  IDiag  1:
 E= -255.097657114454     Delta-E=       -0.000002758803 Rises=F Damp=F
 DIIS: error= 4.79D-05 at cycle   4 NSaved=   4.
 NSaved= 4 IEnMin= 4 EnMin= -255.097657114454     IErMin= 4 ErrMin= 4.79D-05
 ErrMax= 4.79D-05  0.00D+00 EMaxC= 1.00D-01 BMatC= 2.38D-07 BMatP= 1.91D-06
 IDIUse=1 WtCom= 1.00D+00 WtEn= 0.00D+00
 Coeff-Com: -0.195D-01-0.521D-02 0.228D+00 0.797D+00
 Coeff:     -0.195D-01-0.521D-02 0.228D+00 0.797D+00
 Gap=     0.352 Goal=   None    Shift=    0.000
 RMSDP=1.97D-05 MaxDP=2.40D-04 DE=-2.76D-06 OVMax= 2.81D-04

 Cycle   5  Pass 1  IDiag  1:
 E= -255.097657472647     Delta-E=       -0.000000358193 Rises=F Damp=F
 DIIS: error= 2.29D-05 at cycle   5 NSaved=   5.
 NSaved= 5 IEnMin= 5 EnMin= -255.097657472647     IErMin= 5 ErrMin= 2.29D-05
 ErrMax= 2.29D-05  0.00D+00 EMaxC= 1.00D-01 BMatC= 6.83D-08 BMatP= 2.38D-07
 IDIUse=1 WtCom= 1.00D+00 WtEn= 0.00D+00
 Coeff-Com:  0.120D-01-0.811D-01-0.866D-01 0.384D+00 0.772D+00
 Coeff:      0.120D-01-0.811D-01-0.866D-01 0.384D+00 0.772D+00
 Gap=     0.352 Goal=   None    Shift=    0.000
 RMSDP=1.25D-05 MaxDP=2.76D-04 DE=-3.58D-07 OVMax= 1.48D-04

 Cycle   6  Pass 1  IDiag  1:
 E= -255.097657570386     Delta-E=       -0.000000097739 Rises=F Damp=F
 DIIS: error= 3.14D-06 at cycle   6 NSaved=   6.
 NSaved= 6 IEnMin= 6 EnMin= -255.097657570386     IErMin= 6 ErrMin= 3.14D-06
 ErrMax= 3.14D-06  0.00D+00 EMaxC= 1.00D-01 BMatC= 7.37D-10 BMatP= 6.83D-08
 IDIUse=1 WtCom= 1.00D+00 WtEn= 0.00D+00
 Coeff-Com:  0.580D-03 0.144D-02-0.105D-01-0.333D-01-0.357D-01 0.108D+01
 Coeff:      0.580D-03 0.144D-02-0.105D-01-0.333D-01-0.357D-01 0.108D+01
 Gap=     0.352 Goal=   None    Shift=    0.000
 RMSDP=3.44D-06 MaxDP=7.10D-05 DE=-9.77D-08 OVMax= 3.37D-05

 Cycle   7  Pass 1  IDiag  1:
 E= -255.097657572727     Delta-E=       -0.000000002341 Rises=F Damp=F
 DIIS: error= 2.63D-06 at cycle   7 NSaved=   7.
 NSaved= 7 IEnMin= 7 EnMin= -255.097657572727     IErMin= 7 ErrMin= 2.63D-06
 ErrMax= 2.63D-06  0.00D+00 EMaxC= 1.00D-01 BMatC= 4.52D-10 BMatP= 7.37D-10
 IDIUse=1 WtCom= 1.00D+00 WtEn= 0.00D+00
 Coeff-Com: -0.635D-03 0.756D-02 0.140D-02-0.495D-01-0.823D-01 0.556D+00
 Coeff-Com:  0.568D+00
 Coeff:     -0.635D-03 0.756D-02 0.140D-02-0.495D-01-0.823D-01 0.556D+00
 Coeff:      0.568D+00
 Gap=     0.352 Goal=   None    Shift=    0.000
 RMSDP=9.16D-07 MaxDP=2.10D-05 DE=-2.34D-09 OVMax= 8.57D-06

 Cycle   8  Pass 1  IDiag  1:
 E= -255.097657573251     Delta-E=       -0.000000000524 Rises=F Damp=F
 DIIS: error= 3.00D-07 at cycle   8 NSaved=   8.
 NSaved= 8 IEnMin= 8 EnMin= -255.097657573251     IErMin= 8 ErrMin= 3.00D-07
 ErrMax= 3.00D-07  0.00D+00 EMaxC= 1.00D-01 BMatC= 6.80D-12 BMatP= 4.52D-10
 IDIUse=1 WtCom= 1.00D+00 WtEn= 0.00D+00
 Coeff-Com: -0.712D-04-0.140D-03 0.136D-02 0.263D-02 0.382D-02-0.109D+00
 Coeff-Com: -0.371D-02 0.110D+01
 Coeff:     -0.712D-04-0.140D-03 0.136D-02 0.263D-02 0.382D-02-0.109D+00
 Coeff:     -0.371D-02 0.110D+01
 Gap=     0.352 Goal=   None    Shift=    0.000
 RMSDP=2.71D-07 MaxDP=4.64D-06 DE=-5.24D-10 OVMax= 3.31D-06

 Cycle   9  Pass 1  IDiag  1:
 E= -255.097657573272     Delta-E=       -0.000000000021 Rises=F Damp=F
 DIIS: error= 1.20D-07 at cycle   9 NSaved=   9.
 NSaved= 9 IEnMin= 9 EnMin= -255.097657573272     IErMin= 9 ErrMin= 1.20D-07
 ErrMax= 1.20D-07  0.00D+00 EMaxC= 1.00D-01 BMatC= 6.25D-13 BMatP= 6.80D-12
 IDIUse=1 WtCom= 1.00D+00 WtEn= 0.00D+00
 Coeff-Com:  0.126D-04-0.352D-03 0.212D-03 0.285D-02 0.408D-02-0.482D-01
 Coeff-Com: -0.244D-01 0.245D+00 0.821D+00
 Coeff:      0.126D-04-0.352D-03 0.212D-03 0.285D-02 0.408D-02-0.482D-01
 Coeff:     -0.244D-01 0.245D+00 0.821D+00
 Gap=     0.352 Goal=   None    Shift=    0.000
 RMSDP=5.76D-08 MaxDP=8.79D-07 DE=-2.14D-11 OVMax= 5.21D-07

 Cycle  10  Pass 1  IDiag  1:
 E= -255.097657573272     Delta-E=        0.000000000000 Rises=F Damp=F
 DIIS: error= 5.71D-08 at cycle  10 NSaved=  10.
 NSaved=10 IEnMin= 9 EnMin= -255.097657573272     IErMin=10 ErrMin= 5.71D-08
 ErrMax= 5.71D-08  0.00D+00 EMaxC= 1.00D-01 BMatC= 1.69D-13 BMatP= 6.25D-13
 IDIUse=1 WtCom= 1.00D+00 WtEn= 0.00D+00
 Coeff-Com:  0.147D-04-0.118D-03-0.113D-03 0.802D-03 0.103D-02-0.365D-02
 Coeff-Com: -0.878D-02-0.634D-01 0.359D+00 0.716D+00
 Coeff:      0.147D-04-0.118D-03-0.113D-03 0.802D-03 0.103D-02-0.365D-02
 Coeff:     -0.878D-02-0.634D-01 0.359D+00 0.716D+00
 Gap=     0.352 Goal=   None    Shift=    0.000
 RMSDP=2.12D-08 MaxDP=3.09D-07 DE= 1.14D-13 OVMax= 3.19D-07

 Cycle  11  Pass 1  IDiag  1:
 E= -255.097657573273     Delta-E=       -0.000000000001 Rises=F Damp=F
 DIIS: error= 7.69D-09 at cycle  11 NSaved=  11.
 NSaved=11 IEnMin=11 EnMin= -255.097657573273     IErMin=11 ErrMin= 7.69D-09
 ErrMax= 7.69D-09  0.00D+00 EMaxC= 1.00D-01 BMatC= 4.89D-15 BMatP= 1.69D-13
 IDIUse=1 WtCom= 1.00D+00 WtEn= 0.00D+00
 Coeff-Com: -0.173D-05 0.346D-04-0.128D-04-0.285D-03-0.392D-03 0.441D-02
 Coeff-Com:  0.286D-02-0.201D-01-0.981D-01-0.171D-01 0.113D+01
 Coeff:     -0.173D-05 0.346D-04-0.128D-04-0.285D-03-0.392D-03 0.441D-02
 Coeff:      0.286D-02-0.201D-01-0.981D-01-0.171D-01 0.113D+01
 Gap=     0.352 Goal=   None    Shift=    0.000
 RMSDP=9.19D-09 MaxDP=1.55D-07 DE=-1.36D-12 OVMax= 9.23D-08

 SCF Done:  E(RwB97XD) =  -255.097657573     A.U. after   11 cycles
            NFock= 11  Conv=0.92D-08     -V/T= 2.0056
 KE= 2.536728156448D+02 PE=-9.129047196719D+02 EE= 2.465272339440D+02
 Leave Link  502 at Wed May 12 11:56:03 2021, MaxMem=  2147483648 cpu:        11.1
 (Enter /opt/cluster/programs/g09_d.01/g09/l701.exe)
 Compute integral first derivatives.
 ... and contract with generalized density number  0.
 R6Disp: Adding Grimme-D2 dispersion energy 1st derivatives to the gradient.
 Leave Link  701 at Wed May 12 11:56:03 2021, MaxMem=  2147483648 cpu:         0.6
 (Enter /opt/cluster/programs/g09_d.01/g09/l702.exe)
 L702 exits ... SP integral derivatives will be done elsewhere.
 Leave Link  702 at Wed May 12 11:56:03 2021, MaxMem=  2147483648 cpu:         0.2
 (Enter /opt/cluster/programs/g09_d.01/g09/l703.exe)
 Compute integral first derivatives, UseDBF=F ICtDFT=           0.
 Integral derivatives from FoFJK, PRISM(SPDF).
 Calling FoFJK, ICntrl=      2127 FMM=F ISym2X=0 I1Cent= 0 IOpClX= 0 NMat=1 NMatS=1 NMatT=0.
 FoFJK:  IHMeth= 1 ICntrl=    2127 DoSepK=T KAlg= 0 I1Cent=   0 FoldK=F
 IRaf=         1 NMat=   1 IRICut=       1 DoRegI=T DoRafI=F ISym2E= 0.
 FoFCou: FMM=F IPFlag=           0 FMFlag=      100000 FMFlg1=         800
         NFxFlg=           0 DoJE=F BraDBF=F KetDBF=F FulRan=T
         wScrn=  0.000000 ICntrl=    2527 IOpCl=  0 I1Cent=           0 NGrid=           0
         NMat0=    1 NMatS0=      1 NMatT0=    0 NMatD0=    1 NMtDS0=    0 NMtDT0=    0
 Symmetry not used in FoFCou.
 Leave Link  703 at Wed May 12 11:56:04 2021, MaxMem=  2147483648 cpu:         3.3
 (Enter /opt/cluster/programs/g09_d.01/g09/l716.exe)
 Dipole        = 2.16754854D-01-8.38187684D-01 1.03272124D-01
 ***** Axes restored to original set *****
 -------------------------------------------------------------------
 Center     Atomic                   Forces (Hartrees/Bohr)
 Number     Number              X              Y              Z
 -------------------------------------------------------------------
      1        6          -0.001533659   -0.001863817   -0.005560392
      2        6           0.000924053    0.006229153    0.006426588
      3        6          -0.000936429   -0.005881699    0.003526463
      4        6           0.001117666    0.003064142   -0.004477295
      5        1          -0.000090124   -0.000065363   -0.000023243
      6        1           0.000003094    0.000019577    0.000154404
      7        9           0.000418132   -0.001702162   -0.000034385
      8        1          -0.000111726    0.000124708   -0.000162991
      9        1           0.000073920   -0.000006108    0.000074342
     10        1           0.000135073    0.000081569    0.000076509
 -------------------------------------------------------------------
 Cartesian Forces:  Max     0.006426588 RMS     0.002578757
 Leave Link  716 at Wed May 12 11:56:04 2021, MaxMem=  2147483648 cpu:         0.2
 (Enter /opt/cluster/programs/g09_d.01/g09/l103.exe)

 GradGradGradGradGradGradGradGradGradGradGradGradGradGradGradGradGradGrad
 Berny optimization.
 Using GEDIIS/GDIIS optimizer.
 FormGI is forming the generalized inverse of G from B-inverse, IUseBI=4.
 Internal  Forces:  Max     0.005514187 RMS     0.001464803
 Search for a local minimum.
 Step number   2 out of a maximum of   43
 All quantities printed in internal units (Hartrees-Bohrs-Radians)
 RMS Force = .52452D-03 SwitMx=.10000D-02 MixMth= 2
 Mixed Optimization -- En-DIIS/RFO-DIIS
 Update second derivatives using D2CorX and points    1    2
 DE= -1.75D-04 DEPred=-1.65D-04 R= 1.06D+00
 TightC=F SS=  1.41D+00  RLast= 5.15D-02 DXNew= 5.0454D-01 1.5460D-01
 Trust test= 1.06D+00 RLast= 5.15D-02 DXMaxT set to 3.00D-01
 ITU=  1  0
 Use linear search instead of GDIIS.
     Eigenvalues ---    0.01616   0.02140   0.02823   0.02831   0.02915
     Eigenvalues ---    0.02936   0.15926   0.15978   0.16000   0.16000
     Eigenvalues ---    0.16151   0.21553   0.24171   0.24940   0.34082
     Eigenvalues ---    0.35091   0.35360   0.35446   0.35581   0.35719
     Eigenvalues ---    0.38745   0.57085   0.702091000.000001000.00000
     Eigenvalues --- 1000.000001000.000001000.000001000.000001000.00000
     Eigenvalues --- 1000.000001000.000001000.00000
 RFO step:  Lambda=-2.83817988D-05 EMin= 1.61641475D-02
 Quartic linear search produced a step of  0.04552.
 Iteration  1 RMS(Cart)=  0.00438285 RMS(Int)=  0.00001295
 Iteration  2 RMS(Cart)=  0.00001269 RMS(Int)=  0.00000271
 Iteration  3 RMS(Cart)=  0.00000000 RMS(Int)=  0.00000271
 Iteration  1 RMS(Cart)=  0.00000063 RMS(Int)=  0.00000043
 ITry= 1 IFail=0 DXMaxC= 1.24D-02 DCOld= 1.00D+10 DXMaxT= 3.00D-01 DXLimC= 3.00D+00 Rises=F
 Variable       Old X    -DE/DX   Delta X   Delta X   Delta X     New X
                                 (Linear)    (Quad)   (Total)
    R1        2.51260   0.00116  -0.00055   0.00160   0.00105   2.51365
    R2        2.04476   0.00004  -0.00006   0.00006   0.00000   2.04476
    R3        2.04674  -0.00001  -0.00005  -0.00007  -0.00013   2.04662
    R4        2.76483   0.00131   0.00005   0.00378   0.00383   2.76866
    R5        2.67721  -0.00172  -0.00070  -0.00491  -0.00562   2.67159
    R6        2.52780   0.00103  -0.00056   0.00143   0.00087   2.52868
    R7        2.05498  -0.00006  -0.00008  -0.00023  -0.00031   2.05467
    R8        2.05011   0.00003  -0.00004   0.00004   0.00000   2.05011
    R9        2.04862   0.00008  -0.00008   0.00016   0.00008   2.04870
    A1        2.11657   0.00011  -0.00005   0.00069   0.00064   2.11721
    A2        2.09692  -0.00002  -0.00013  -0.00024  -0.00037   2.09656
    A3        2.06957  -0.00009   0.00018  -0.00040  -0.00022   2.06935
    A4        2.25218  -0.00074  -0.00011  -0.00346  -0.00357   2.24861
    A5        2.04852   0.00117   0.00012   0.00393   0.00404   2.05256
    A6        1.97607  -0.00015   0.00008  -0.00018  -0.00011   1.97596
    A7        2.16765  -0.00010  -0.00024  -0.00092  -0.00117   2.16648
    A8        2.01072  -0.00011   0.00017  -0.00007   0.00009   2.01081
    A9        2.09955   0.00048   0.00013   0.00155   0.00168   2.10123
   A10        2.12543   0.00000  -0.00006  -0.00004  -0.00010   2.12532
   A11        2.10877   0.00017  -0.00011   0.00101   0.00090   2.10967
   A12        2.04871  -0.00016   0.00017  -0.00092  -0.00075   2.04796
    D1        3.05805   0.00144   0.00049   0.00311   0.00360   3.06164
    D2        0.04720  -0.00135  -0.00032   0.00013  -0.00019   0.04701
    D3       -0.10042   0.00154   0.00059   0.00687   0.00747  -0.09295
    D4       -3.11126  -0.00125  -0.00021   0.00390   0.00368  -3.10758
    D5       -2.44327  -0.00551   0.00000   0.00000   0.00000  -2.44327
    D6        0.58812  -0.00274   0.00062   0.00593   0.00654   0.59466
    D7        0.57200  -0.00273   0.00078   0.00314   0.00392   0.57593
    D8       -2.67979   0.00004   0.00140   0.00907   0.01046  -2.66933
    D9       -0.09013   0.00148   0.00045   0.00464   0.00509  -0.08504
   D10        3.07732   0.00142   0.00043   0.00248   0.00291   3.08023
   D11       -3.11622  -0.00140  -0.00020  -0.00147  -0.00166  -3.11788
   D12        0.05124  -0.00146  -0.00022  -0.00363  -0.00385   0.04739
         Item               Value     Threshold  Converged?
 Maximum Force            0.001717     0.000450     NO 
 RMS     Force            0.000525     0.000300     NO 
 Maximum Displacement     0.012382     0.001800     NO 
 RMS     Displacement     0.004382     0.001200     NO 
 Predicted change in Energy=-1.472429D-05
 Lowest energy point so far.  Saving SCF results.
 GradGradGradGradGradGradGradGradGradGradGradGradGradGradGradGradGradGrad

 Leave Link  103 at Wed May 12 11:56:04 2021, MaxMem=  2147483648 cpu:         0.1
 (Enter /opt/cluster/programs/g09_d.01/g09/l202.exe)
                          Input orientation:                          
 ---------------------------------------------------------------------
 Center     Atomic      Atomic             Coordinates (Angstroms)
 Number     Number       Type             X           Y           Z
 ---------------------------------------------------------------------
      1          6           0       -1.648726   -0.732484    0.186084
      2          6           0       -0.520293   -0.086751   -0.095006
      3          6           0        0.833723   -0.625805   -0.245380
      4          6           0        1.936967   -0.023088    0.213037
      5          1           0       -2.577594   -0.199747    0.341661
      6          1           0       -1.654468   -1.813496    0.251807
      7          9           0       -0.564314    1.325964   -0.126169
      8          1           0        0.890289   -1.621958   -0.677428
      9          1           0        1.903046    0.961205    0.667965
     10          1           0        2.908042   -0.496514    0.122415
 ---------------------------------------------------------------------
                    Distance matrix (angstroms):
                    1          2          3          4          5
     1  C    0.000000
     2  C    1.330167   0.000000
     3  C    2.521923   1.465111   0.000000
     4  C    3.655292   2.477311   1.338118   0.000000
     5  H    1.082039   2.106165   3.487581   4.519846   0.000000
     6  H    1.083023   2.094822   2.801589   4.013161   1.861295
     7  F    2.347480   1.413745   2.403772   2.862064   2.569038
     8  H    2.825493   2.164675   1.087284   2.108281   3.884255
     9  H    3.964325   2.748256   2.120436   1.084870   4.640088
    10  H    4.563318   3.459575   2.110636   1.084127   5.498030
                    6          7          8          9         10
     6  H    0.000000
     7  F    3.344774   0.000000
     8  H    2.715870   3.333167   0.000000
     9  H    4.530790   2.617549   3.083584   0.000000
    10  H    4.750545   3.929437   2.444933   1.852724   0.000000
 Stoichiometry    C4H5F
 Framework group  C1[X(C4H5F)]
 Deg. of freedom    24
 Full point group                 C1      NOp   1
 RotChk:  IX=0 Diff= 3.47D-03
 Largest Abelian subgroup         C1      NOp   1
 Largest concise Abelian subgroup C1      NOp   1
                         Standard orientation:                         
 ---------------------------------------------------------------------
 Center     Atomic      Atomic             Coordinates (Angstroms)
 Number     Number       Type             X           Y           Z
 ---------------------------------------------------------------------
      1          6           0       -1.645681   -0.739291    0.183533
      2          6           0       -0.520070   -0.086777   -0.093177
      3          6           0        0.835870   -0.619240   -0.249583
      4          6           0        1.937254   -0.016185    0.212843
      5          1           0       -2.576445   -0.211531    0.344645
      6          1           0       -1.647150   -1.820841    0.239977
      7          9           0       -0.569616    1.325972   -0.112163
      8          1           0        0.895843   -1.611420   -0.690228
      9          1           0        1.899995    0.964028    0.676240
     10          1           0        2.910064   -0.485029    0.117148
 ---------------------------------------------------------------------
 Rotational constants (GHZ):      9.2610040      4.1782845      2.9856562
 Leave Link  202 at Wed May 12 11:56:04 2021, MaxMem=  2147483648 cpu:         0.0
 (Enter /opt/cluster/programs/g09_d.01/g09/l301.exe)
 Standard basis: 6-31+G (6D, 7F)
 Ernie: Thresh=  0.10000D-02 Tol=  0.10000D-05 Strict=F.
 There are    75 symmetry adapted cartesian basis functions of A   symmetry.
 There are    75 symmetry adapted basis functions of A   symmetry.
    75 basis functions,   150 primitive gaussians,    75 cartesian basis functions
    19 alpha electrons       19 beta electrons
       nuclear repulsion energy       157.6099683786 Hartrees.
 IExCor= 4639 DFT=T Ex+Corr=wB97XD ExCW=0 ScaHFX=  1.000000
 ScaDFX=  1.000000  1.000000  1.000000  1.000000 ScalE2=  1.000000  1.000000
 IRadAn=      0 IRanWt=     -1 IRanGd=            0 ICorTp=0 IEmpDi=121
  HFx wShort=  0.000000 wLong=  0.200000 cFull=  0.222036 cShort=  0.000000 cLong=  0.777964
  DFx wShort=  0.000000 wLong=  0.200000 cFull=  0.000000 cShort=  0.000000 cLong=  1.000000
 NAtoms=   10 NActive=   10 NUniq=   10 SFac= 1.00D+00 NAtFMM=   60 NAOKFM=F Big=F
 Integral buffers will be    131072 words long.
 Raffenetti 2 integral format.
 Two-electron integral symmetry is turned on.
 R6Disp:  Grimme-D2 Dispersion energy=       -0.0029693964 Hartrees.
 Nuclear repulsion after empirical dispersion term =      157.6069989821 Hartrees.
 Leave Link  301 at Wed May 12 11:56:04 2021, MaxMem=  2147483648 cpu:         0.3
 (Enter /opt/cluster/programs/g09_d.01/g09/l302.exe)
 NPDir=0 NMtPBC=     1 NCelOv=     1 NCel=       1 NClECP=     1 NCelD=      1
         NCelK=      1 NCelE2=     1 NClLst=     1 CellRange=     0.0.
 One-electron integrals computed using PRISM.
 NBasis=    75 RedAO= T EigKep=  6.56D-05  NBF=    75
 NBsUse=    75 1.00D-06 EigRej= -1.00D+00 NBFU=    75
 Precomputing XC quadrature grid using
 IXCGrd= 4 IRadAn=           0 IRanWt=          -1 IRanGd=           0 AccXCQ= 0.00D+00.
 Generated NRdTot=       0 NPtTot=           0 NUsed=           0 NTot=          32
 NSgBfM=    75    75    75    75    75 MxSgAt=    10 MxSgA2=    10.
 Leave Link  302 at Wed May 12 11:56:04 2021, MaxMem=  2147483648 cpu:         0.9
 (Enter /opt/cluster/programs/g09_d.01/g09/l303.exe)
 DipDrv:  MaxL=1.
 Leave Link  303 at Wed May 12 11:56:04 2021, MaxMem=  2147483648 cpu:         0.2
 (Enter /opt/cluster/programs/g09_d.01/g09/l401.exe)
 Initial guess from the checkpoint file:  "/home/unibas/boittier/RDKit_G2/B.pdb/SCAN_1_2_3_4_S_17_20.0/2_SCAN_1_2_3_4_F/B.pdb.chk"
 B after Tr=     0.000000    0.000000    0.000000
         Rot=    1.000000   -0.000346   -0.000028    0.000034 Ang=  -0.04 deg.
 Guess basis will be translated and rotated to current coordinates.
 JPrj=2 DoOrth=T DoCkMO=T.
 Leave Link  401 at Wed May 12 11:56:04 2021, MaxMem=  2147483648 cpu:         0.6
 (Enter /opt/cluster/programs/g09_d.01/g09/l502.exe)
 Closed shell SCF:
 Using DIIS extrapolation, IDIIS=  1040.
 Integral symmetry usage will be decided dynamically.
 Keep R1 ints in memory in canonical form, NReq=9056162.
 IVT=       36600 IEndB=       36600 NGot=  2147483648 MDV=  2139321699
 LenX=  2139321699 LenY=  2139315633
 Requested convergence on RMS density matrix=1.00D-08 within 128 cycles.
 Requested convergence on MAX density matrix=1.00D-06.
 Requested convergence on             energy=1.00D-06.
 No special actions if energy rises.
 FoFCou: FMM=F IPFlag=           0 FMFlag=           0 FMFlg1=           0
         NFxFlg=           0 DoJE=F BraDBF=F KetDBF=F FulRan=T
         wScrn=  0.000000 ICntrl=     600 IOpCl=  0 I1Cent=           0 NGrid=           0
         NMat0=    1 NMatS0=   2850 NMatT0=    0 NMatD0=    1 NMtDS0=    0 NMtDT0=    0
 Symmetry not used in FoFCou.

 Cycle   1  Pass 1  IDiag  1:
 E= -255.097652307167    
 DIIS: error= 2.49D-04 at cycle   1 NSaved=   1.
 NSaved= 1 IEnMin= 1 EnMin= -255.097652307167     IErMin= 1 ErrMin= 2.49D-04
 ErrMax= 2.49D-04  0.00D+00 EMaxC= 1.00D-01 BMatC= 1.20D-05 BMatP= 1.20D-05
 IDIUse=3 WtCom= 9.98D-01 WtEn= 2.49D-03
 Coeff-Com:  0.100D+01
 Coeff-En:   0.100D+01
 Coeff:      0.100D+01
 Gap=     0.574 Goal=   None    Shift=    0.000
 RMSDP=1.49D-04 MaxDP=1.80D-03              OVMax= 1.26D-03

 Cycle   2  Pass 1  IDiag  1:
 E= -255.097673687383     Delta-E=       -0.000021380216 Rises=F Damp=F
 DIIS: error= 1.43D-04 at cycle   2 NSaved=   2.
 NSaved= 2 IEnMin= 2 EnMin= -255.097673687383     IErMin= 2 ErrMin= 1.43D-04
 ErrMax= 1.43D-04  0.00D+00 EMaxC= 1.00D-01 BMatC= 1.96D-06 BMatP= 1.20D-05
 IDIUse=3 WtCom= 9.99D-01 WtEn= 1.43D-03
 Coeff-Com:  0.930D-01 0.907D+00
 Coeff-En:   0.000D+00 0.100D+01
 Coeff:      0.929D-01 0.907D+00
 Gap=     0.352 Goal=   None    Shift=    0.000
 RMSDP=5.29D-05 MaxDP=1.04D-03 DE=-2.14D-05 OVMax= 5.10D-04

 Cycle   3  Pass 1  IDiag  1:
 E= -255.097675255550     Delta-E=       -0.000001568167 Rises=F Damp=F
 DIIS: error= 1.36D-04 at cycle   3 NSaved=   3.
 NSaved= 3 IEnMin= 3 EnMin= -255.097675255550     IErMin= 3 ErrMin= 1.36D-04
 ErrMax= 1.36D-04  0.00D+00 EMaxC= 1.00D-01 BMatC= 1.63D-06 BMatP= 1.96D-06
 IDIUse=3 WtCom= 9.99D-01 WtEn= 1.36D-03
 Coeff-Com: -0.123D+00 0.511D+00 0.612D+00
 Coeff-En:   0.000D+00 0.643D-01 0.936D+00
 Coeff:     -0.122D+00 0.510D+00 0.612D+00
 Gap=     0.352 Goal=   None    Shift=    0.000
 RMSDP=3.15D-05 MaxDP=8.49D-04 DE=-1.57D-06 OVMax= 2.60D-04

 Cycle   4  Pass 1  IDiag  1:
 E= -255.097676564916     Delta-E=       -0.000001309366 Rises=F Damp=F
 DIIS: error= 1.59D-05 at cycle   4 NSaved=   4.
 NSaved= 4 IEnMin= 4 EnMin= -255.097676564916     IErMin= 4 ErrMin= 1.59D-05
 ErrMax= 1.59D-05  0.00D+00 EMaxC= 1.00D-01 BMatC= 1.61D-08 BMatP= 1.63D-06
 IDIUse=1 WtCom= 1.00D+00 WtEn= 0.00D+00
 Coeff-Com:  0.688D-02-0.986D-01-0.434D-01 0.114D+01
 Coeff:      0.688D-02-0.986D-01-0.434D-01 0.114D+01
 Gap=     0.352 Goal=   None    Shift=    0.000
 RMSDP=9.19D-06 MaxDP=1.18D-04 DE=-1.31D-06 OVMax= 1.25D-04

 Cycle   5  Pass 1  IDiag  1:
 E= -255.097676620614     Delta-E=       -0.000000055698 Rises=F Damp=F
 DIIS: error= 6.56D-06 at cycle   5 NSaved=   5.
 NSaved= 5 IEnMin= 5 EnMin= -255.097676620614     IErMin= 5 ErrMin= 6.56D-06
 ErrMax= 6.56D-06  0.00D+00 EMaxC= 1.00D-01 BMatC= 3.49D-09 BMatP= 1.61D-08
 IDIUse=1 WtCom= 1.00D+00 WtEn= 0.00D+00
 Coeff-Com:  0.140D-01-0.835D-01-0.756D-01 0.407D+00 0.738D+00
 Coeff:      0.140D-01-0.835D-01-0.756D-01 0.407D+00 0.738D+00
 Gap=     0.352 Goal=   None    Shift=    0.000
 RMSDP=2.54D-06 MaxDP=2.76D-05 DE=-5.57D-08 OVMax= 3.28D-05

 Cycle   6  Pass 1  IDiag  1:
 E= -255.097676626910     Delta-E=       -0.000000006296 Rises=F Damp=F
 DIIS: error= 1.28D-06 at cycle   6 NSaved=   6.
 NSaved= 6 IEnMin= 6 EnMin= -255.097676626910     IErMin= 6 ErrMin= 1.28D-06
 ErrMax= 1.28D-06  0.00D+00 EMaxC= 1.00D-01 BMatC= 2.13D-10 BMatP= 3.49D-09
 IDIUse=1 WtCom= 1.00D+00 WtEn= 0.00D+00
 Coeff-Com:  0.232D-02-0.761D-02-0.135D-01-0.203D-01 0.146D+00 0.893D+00
 Coeff:      0.232D-02-0.761D-02-0.135D-01-0.203D-01 0.146D+00 0.893D+00
 Gap=     0.352 Goal=   None    Shift=    0.000
 RMSDP=9.24D-07 MaxDP=1.31D-05 DE=-6.30D-09 OVMax= 1.34D-05

 Cycle   7  Pass 1  IDiag  1:
 E= -255.097676627355     Delta-E=       -0.000000000445 Rises=F Damp=F
 DIIS: error= 8.81D-07 at cycle   7 NSaved=   7.
 NSaved= 7 IEnMin= 7 EnMin= -255.097676627355     IErMin= 7 ErrMin= 8.81D-07
 ErrMax= 8.81D-07  0.00D+00 EMaxC= 1.00D-01 BMatC= 5.77D-11 BMatP= 2.13D-10
 IDIUse=1 WtCom= 1.00D+00 WtEn= 0.00D+00
 Coeff-Com: -0.838D-03 0.751D-02 0.339D-02-0.614D-01-0.297D-01 0.394D+00
 Coeff-Com:  0.687D+00
 Coeff:     -0.838D-03 0.751D-02 0.339D-02-0.614D-01-0.297D-01 0.394D+00
 Coeff:      0.687D+00
 Gap=     0.352 Goal=   None    Shift=    0.000
 RMSDP=2.46D-07 MaxDP=2.76D-06 DE=-4.45D-10 OVMax= 3.97D-06

 Cycle   8  Pass 1  IDiag  1:
 E= -255.097676627432     Delta-E=       -0.000000000078 Rises=F Damp=F
 DIIS: error= 9.79D-08 at cycle   8 NSaved=   8.
 NSaved= 8 IEnMin= 8 EnMin= -255.097676627432     IErMin= 8 ErrMin= 9.79D-08
 ErrMax= 9.79D-08  0.00D+00 EMaxC= 1.00D-01 BMatC= 1.28D-12 BMatP= 5.77D-11
 IDIUse=1 WtCom= 1.00D+00 WtEn= 0.00D+00
 Coeff-Com: -0.235D-03 0.133D-02 0.135D-02-0.535D-02-0.140D-01-0.174D-01
 Coeff-Com:  0.701D-01 0.964D+00
 Coeff:     -0.235D-03 0.133D-02 0.135D-02-0.535D-02-0.140D-01-0.174D-01
 Coeff:      0.701D-01 0.964D+00
 Gap=     0.352 Goal=   None    Shift=    0.000
 RMSDP=9.52D-08 MaxDP=1.30D-06 DE=-7.75D-11 OVMax= 1.03D-06

 Cycle   9  Pass 1  IDiag  1:
 E= -255.097676627438     Delta-E=       -0.000000000005 Rises=F Damp=F
 DIIS: error= 4.73D-08 at cycle   9 NSaved=   9.
 NSaved= 9 IEnMin= 9 EnMin= -255.097676627438     IErMin= 9 ErrMin= 4.73D-08
 ErrMax= 4.73D-08  0.00D+00 EMaxC= 1.00D-01 BMatC= 2.67D-13 BMatP= 1.28D-12
 IDIUse=1 WtCom= 1.00D+00 WtEn= 0.00D+00
 Coeff-Com: -0.114D-04-0.226D-03 0.185D-03 0.383D-02-0.226D-02-0.413D-01
 Coeff-Com: -0.456D-01 0.325D+00 0.760D+00
 Coeff:     -0.114D-04-0.226D-03 0.185D-03 0.383D-02-0.226D-02-0.413D-01
 Coeff:     -0.456D-01 0.325D+00 0.760D+00
 Gap=     0.352 Goal=   None    Shift=    0.000
 RMSDP=3.69D-08 MaxDP=7.28D-07 DE=-5.34D-12 OVMax= 4.50D-07

 Cycle  10  Pass 1  IDiag  1:
 E= -255.097676627439     Delta-E=       -0.000000000001 Rises=F Damp=F
 DIIS: error= 2.98D-08 at cycle  10 NSaved=  10.
 NSaved=10 IEnMin=10 EnMin= -255.097676627439     IErMin=10 ErrMin= 2.98D-08
 ErrMax= 2.98D-08  0.00D+00 EMaxC= 1.00D-01 BMatC= 3.29D-14 BMatP= 2.67D-13
 IDIUse=1 WtCom= 1.00D+00 WtEn= 0.00D+00
 Coeff-Com:  0.193D-04-0.202D-03-0.792D-04 0.186D-02 0.474D-03-0.117D-01
 Coeff-Com: -0.247D-01 0.158D-01 0.261D+00 0.757D+00
 Coeff:      0.193D-04-0.202D-03-0.792D-04 0.186D-02 0.474D-03-0.117D-01
 Coeff:     -0.247D-01 0.158D-01 0.261D+00 0.757D+00
 Gap=     0.352 Goal=   None    Shift=    0.000
 RMSDP=1.80D-08 MaxDP=4.22D-07 DE=-9.09D-13 OVMax= 1.06D-07

 Cycle  11  Pass 1  IDiag  1:
 E= -255.097676627437     Delta-E=        0.000000000002 Rises=F Damp=F
 DIIS: error= 4.97D-09 at cycle  11 NSaved=  11.
 NSaved=11 IEnMin=10 EnMin= -255.097676627439     IErMin=11 ErrMin= 4.97D-09
 ErrMax= 4.97D-09  0.00D+00 EMaxC= 1.00D-01 BMatC= 3.75D-15 BMatP= 3.29D-14
 IDIUse=1 WtCom= 1.00D+00 WtEn= 0.00D+00
 Coeff-Com:  0.854D-05-0.384D-04-0.587D-04 0.110D-03 0.441D-03 0.211D-02
 Coeff-Com: -0.273D-02-0.414D-01-0.144D-01 0.259D+00 0.797D+00
 Coeff:      0.854D-05-0.384D-04-0.587D-04 0.110D-03 0.441D-03 0.211D-02
 Coeff:     -0.273D-02-0.414D-01-0.144D-01 0.259D+00 0.797D+00
 Gap=     0.352 Goal=   None    Shift=    0.000
 RMSDP=7.12D-09 MaxDP=1.59D-07 DE= 1.93D-12 OVMax= 5.19D-08

 SCF Done:  E(RwB97XD) =  -255.097676627     A.U. after   11 cycles
            NFock= 11  Conv=0.71D-08     -V/T= 2.0056
 KE= 2.536711676299D+02 PE=-9.128985179085D+02 EE= 2.465226746691D+02
 Leave Link  502 at Wed May 12 11:56:05 2021, MaxMem=  2147483648 cpu:        11.1
 (Enter /opt/cluster/programs/g09_d.01/g09/l701.exe)
 Compute integral first derivatives.
 ... and contract with generalized density number  0.
 R6Disp: Adding Grimme-D2 dispersion energy 1st derivatives to the gradient.
 Leave Link  701 at Wed May 12 11:56:06 2021, MaxMem=  2147483648 cpu:         0.6
 (Enter /opt/cluster/programs/g09_d.01/g09/l702.exe)
 L702 exits ... SP integral derivatives will be done elsewhere.
 Leave Link  702 at Wed May 12 11:56:06 2021, MaxMem=  2147483648 cpu:         0.2
 (Enter /opt/cluster/programs/g09_d.01/g09/l703.exe)
 Compute integral first derivatives, UseDBF=F ICtDFT=           0.
 Integral derivatives from FoFJK, PRISM(SPDF).
 Calling FoFJK, ICntrl=      2127 FMM=F ISym2X=0 I1Cent= 0 IOpClX= 0 NMat=1 NMatS=1 NMatT=0.
 FoFJK:  IHMeth= 1 ICntrl=    2127 DoSepK=T KAlg= 0 I1Cent=   0 FoldK=F
 IRaf=         1 NMat=   1 IRICut=       1 DoRegI=T DoRafI=F ISym2E= 0.
 FoFCou: FMM=F IPFlag=           0 FMFlag=      100000 FMFlg1=         800
         NFxFlg=           0 DoJE=F BraDBF=F KetDBF=F FulRan=T
         wScrn=  0.000000 ICntrl=    2527 IOpCl=  0 I1Cent=           0 NGrid=           0
         NMat0=    1 NMatS0=      1 NMatT0=    0 NMatD0=    1 NMtDS0=    0 NMtDT0=    0
 Symmetry not used in FoFCou.
 Leave Link  703 at Wed May 12 11:56:06 2021, MaxMem=  2147483648 cpu:         3.3
 (Enter /opt/cluster/programs/g09_d.01/g09/l716.exe)
 Dipole        = 2.16518009D-01-8.32061992D-01 1.02478656D-01
 ***** Axes restored to original set *****
 -------------------------------------------------------------------
 Center     Atomic                   Forces (Hartrees/Bohr)
 Number     Number              X              Y              Z
 -------------------------------------------------------------------
      1        6          -0.001087781   -0.001232369   -0.005373181
      2        6           0.001692670    0.003777588    0.006273969
      3        6          -0.001310960   -0.004822849    0.003563333
      4        6           0.000636046    0.002628354   -0.004443010
      5        1          -0.000095119   -0.000022827   -0.000016981
      6        1           0.000000170   -0.000007472   -0.000013949
      7        9           0.000078652   -0.000385596   -0.000013999
      8        1          -0.000034019    0.000000472   -0.000010326
      9        1           0.000041989    0.000035775    0.000021175
     10        1           0.000078352    0.000028923    0.000012969
 -------------------------------------------------------------------
 Cartesian Forces:  Max     0.006273969 RMS     0.002258149
 Leave Link  716 at Wed May 12 11:56:06 2021, MaxMem=  2147483648 cpu:         0.2
 (Enter /opt/cluster/programs/g09_d.01/g09/l103.exe)

 GradGradGradGradGradGradGradGradGradGradGradGradGradGradGradGradGradGrad
 Berny optimization.
 Using GEDIIS/GDIIS optimizer.
 FormGI is forming the generalized inverse of G from B-inverse, IUseBI=4.
 Internal  Forces:  Max     0.005392835 RMS     0.001353040
 Search for a local minimum.
 Step number   3 out of a maximum of   43
 All quantities printed in internal units (Hartrees-Bohrs-Radians)
 RMS Force = .18189D-03 SwitMx=.10000D-02 MixMth= 2
 Mixed Optimization -- En-DIIS/RFO-DIIS
 Swapping is turned off.
 Update second derivatives using D2CorX and points    1    2    3
[...]
 ***** Axes restored to original set *****
 -------------------------------------------------------------------
 Center     Atomic                   Forces (Hartrees/Bohr)
 Number     Number              X              Y              Z
 -------------------------------------------------------------------
      1        6          -0.000934208   -0.000764628   -0.005470280
      2        6           0.001769438    0.002543435    0.006104293
      3        6          -0.001371635   -0.004280364    0.003826138
      4        6           0.000538712    0.002524686   -0.004570801
      5        1          -0.000007270   -0.000017097    0.000029646
      6        1           0.000012308   -0.000005264    0.000003867
      7        9          -0.000010947   -0.000000923    0.000049357
      8        1          -0.000016366    0.000002288   -0.000000251
      9        1           0.000009003   -0.000004365    0.000019368
     10        1           0.000010965    0.000002231    0.000008662
 -------------------------------------------------------------------
 Cartesian Forces:  Max     0.006104293 RMS     0.002165236
 Leave Link  716 at Wed May 12 11:56:08 2021, MaxMem=  2147483648 cpu:         0.2
 (Enter /opt/cluster/programs/g09_d.01/g09/l103.exe)

 GradGradGradGradGradGradGradGradGradGradGradGradGradGradGradGradGradGrad
 Berny optimization.
 Using GEDIIS/GDIIS optimizer.
 FormGI is forming the generalized inverse of G from B-inverse, IUseBI=4.
 Internal  Forces:  Max     0.005353636 RMS     0.001331916
 Search for a local minimum.
 Step number   4 out of a maximum of   43
 All quantities printed in internal units (Hartrees-Bohrs-Radians)
 RMS Force = .29950D-04 SwitMx=.10000D-02 MixMth= 2
 Mixed Optimization -- En-DIIS/RFO-DIIS
 Swapping is turned off.
 Update second derivatives using D2CorX and points    1    2    3    4
 DE= -2.74D-06 DEPred=-2.59D-06 R= 1.06D+00
 TightC=F SS=  1.41D+00  RLast= 7.66D-03 DXNew= 5.0454D-01 2.2983D-02
 Trust test= 1.06D+00 RLast= 7.66D-03 DXMaxT set to 3.00D-01
 ITU=  1  1  1  0
     Eigenvalues ---    0.01734   0.02223   0.02825   0.02841   0.02886
     Eigenvalues ---    0.03046   0.13703   0.15969   0.16000   0.16001
     Eigenvalues ---    0.16100   0.17743   0.22238   0.25352   0.34667
     Eigenvalues ---    0.35190   0.35377   0.35409   0.35564   0.35685
     Eigenvalues ---    0.38651   0.57173   0.660561000.000001000.00000
     Eigenvalues --- 1000.000001000.000001000.000001000.000001000.00000
     Eigenvalues --- 1000.000001000.000001000.00000
 En-DIIS/RFO-DIIS IScMMF=        0 using points:     4    3    2
 RFO step:  Lambda=-1.92875136D-06.
 NNeg= 0 NP= 3 Switch=  2.50D-03 Rises=F DC=  1.91D-05 SmlDif=  1.00D-05
 RMS Error=  0.1019368194D-03 NUsed= 3 EDIIS=F
 DidBck=F Rises=F RFO-DIIS coefs:    0.96508    0.06794   -0.03302
 Iteration  1 RMS(Cart)=  0.00054615 RMS(Int)=  0.00000069
 Iteration  2 RMS(Cart)=  0.00000037 RMS(Int)=  0.00000064
 Iteration  1 RMS(Cart)=  0.00000033 RMS(Int)=  0.00000023
 ITry= 1 IFail=0 DXMaxC= 1.24D-03 DCOld= 1.00D+10 DXMaxT= 3.00D-01 DXLimC= 3.00D+00 Rises=F
 Variable       Old X    -DE/DX   Delta X   Delta X   Delta X     New X
                                 (Linear)    (Quad)   (Total)
    R1        2.51439   0.00002   0.00001   0.00005   0.00006   2.51445
    R2        2.04496   0.00000  -0.00001   0.00002   0.00001   2.04497
    R3        2.04660   0.00001   0.00000   0.00002   0.00002   2.04661
    R4        2.77018  -0.00005   0.00007  -0.00012  -0.00005   2.77013
    R5        2.66933   0.00000  -0.00011  -0.00003  -0.00014   2.66919
    R6        2.52908   0.00004   0.00001   0.00006   0.00007   2.52915
    R7        2.05459   0.00000  -0.00001  -0.00001  -0.00001   2.05458
    R8        2.05024   0.00001   0.00000   0.00003   0.00002   2.05026
    R9        2.04886   0.00001   0.00000   0.00002   0.00002   2.04888
    A1        2.11796   0.00004  -0.00001   0.00029   0.00028   2.11824
    A2        2.09602  -0.00003   0.00001  -0.00022  -0.00021   2.09581
    A3        2.06912  -0.00001   0.00000  -0.00006  -0.00005   2.06907
    A4        2.24549  -0.00002  -0.00001  -0.00053  -0.00054   2.24495
    A5        2.05491   0.00027   0.00005   0.00009   0.00014   2.05506
    A6        1.97698   0.00000  -0.00004   0.00031   0.00027   1.97725
    A7        2.16566   0.00011  -0.00001   0.00014   0.00013   2.16580
    A8        2.01093  -0.00011   0.00000  -0.00016  -0.00016   2.01077
    A9        2.10192   0.00023   0.00003  -0.00001   0.00002   2.10195
   A10        2.12533   0.00000   0.00000   0.00000   0.00000   2.12533
   A11        2.11020   0.00002   0.00001   0.00011   0.00012   2.11032
   A12        2.04742  -0.00002  -0.00001  -0.00011  -0.00011   2.04730
    D1        3.06491   0.00132   0.00000  -0.00122  -0.00122   3.06369
    D2        0.04748  -0.00136  -0.00002   0.00014   0.00012   0.04760
    D3       -0.09110   0.00136   0.00018  -0.00034  -0.00016  -0.09126
    D4       -3.10853  -0.00133   0.00016   0.00103   0.00118  -3.10735
    D5       -2.44327  -0.00535   0.00000   0.00000   0.00000  -2.44327
    D6        0.59468  -0.00274   0.00022  -0.00022  -0.00001   0.59468
    D7        0.57872  -0.00275   0.00003  -0.00133  -0.00130   0.57742
    D8       -2.66652  -0.00014   0.00025  -0.00155  -0.00130  -2.66782
    D9       -0.08536   0.00137   0.00018   0.00002   0.00020  -0.08517
   D10        3.08064   0.00135   0.00008  -0.00027  -0.00019   3.08046
   D11       -3.11819  -0.00135  -0.00004   0.00025   0.00021  -3.11798
   D12        0.04782  -0.00137  -0.00014  -0.00003  -0.00017   0.04764
         Item               Value     Threshold  Converged?
 Maximum Force            0.000093     0.000450     YES
 RMS     Force            0.000030     0.000300     YES
 Maximum Displacement     0.001236     0.001800     YES
 RMS     Displacement     0.000546     0.001200     YES
 Predicted change in Energy=-1.590068D-07
 Optimization completed.
    -- Stationary point found.
                           ----------------------------
                           !   Optimized Parameters   !
                           ! (Angstroms and Degrees)  !
 --------------------------                            --------------------------
 ! Name  Definition              Value          Derivative Info.                !
 --------------------------------------------------------------------------------
 ! R1    R(1,2)                  1.3306         -DE/DX =    0.0                 !
 ! R2    R(1,5)                  1.0821         -DE/DX =    0.0                 !
 ! R3    R(1,6)                  1.083          -DE/DX =    0.0                 !
 ! R4    R(2,3)                  1.4659         -DE/DX =    0.0                 !
 ! R5    R(2,7)                  1.4125         -DE/DX =    0.0                 !
 ! R6    R(3,4)                  1.3383         -DE/DX =    0.0                 !
 ! R7    R(3,8)                  1.0872         -DE/DX =    0.0                 !
 ! R8    R(4,9)                  1.0849         -DE/DX =    0.0                 !
 ! R9    R(4,10)                 1.0842         -DE/DX =    0.0                 !
 ! A1    A(2,1,5)              121.3499         -DE/DX =    0.0                 !
 ! A2    A(2,1,6)              120.0932         -DE/DX =    0.0                 !
 ! A3    A(5,1,6)              118.5519         -DE/DX =    0.0                 !
 ! A4    A(1,2,3)              128.657          -DE/DX =    0.0                 !
 ! A5    A(1,2,7)              117.7379         -DE/DX =    0.0003              !
 ! A6    A(3,2,7)              113.2728         -DE/DX =    0.0                 !
 ! A7    A(2,3,4)              124.0832         -DE/DX =    0.0001              !
 ! A8    A(2,3,8)              115.2179         -DE/DX =   -0.0001              !
 ! A9    A(4,3,8)              120.4313         -DE/DX =    0.0002              !
 ! A10   A(3,4,9)              121.7724         -DE/DX =    0.0                 !
 ! A11   A(3,4,10)             120.9053         -DE/DX =    0.0                 !
 ! A12   A(9,4,10)             117.3083         -DE/DX =    0.0                 !
 ! D1    D(5,1,2,3)            175.6065         -DE/DX =    0.0013              !
 ! D2    D(5,1,2,7)              2.7205         -DE/DX =   -0.0014              !
 ! D3    D(6,1,2,3)             -5.2199         -DE/DX =    0.0014              !
 ! D4    D(6,1,2,7)           -178.1059         -DE/DX =   -0.0013              !
 ! D5    D(1,2,3,4)           -139.9889         -DE/DX =   -0.0054              !
 ! D6    D(1,2,3,8)             34.0728         -DE/DX =   -0.0027              !
 ! D7    D(7,2,3,4)             33.1582         -DE/DX =   -0.0027              !
 ! D8    D(7,2,3,8)           -152.7801         -DE/DX =   -0.0001              !
 ! D9    D(2,3,4,9)             -4.8909         -DE/DX =    0.0014              !
 ! D10   D(2,3,4,10)           176.5079         -DE/DX =    0.0014              !
 ! D11   D(8,3,4,9)           -178.659          -DE/DX =   -0.0014              !
 ! D12   D(8,3,4,10)             2.7397         -DE/DX =   -0.0014              !
 --------------------------------------------------------------------------------
 Lowest energy point so far.  Saving SCF results.
 GradGradGradGradGradGradGradGradGradGradGradGradGradGradGradGradGradGrad

 Largest change from initial coordinates is atom    8       0.018 Angstoms.
 Leave Link  103 at Wed May 12 11:56:08 2021, MaxMem=  2147483648 cpu:         0.0
 (Enter /opt/cluster/programs/g09_d.01/g09/l202.exe)
                          Input orientation:                          
 ---------------------------------------------------------------------
 Center     Atomic      Atomic             Coordinates (Angstroms)
 Number     Number       Type             X           Y           Z
 ---------------------------------------------------------------------
      1          6           0       -1.648285   -0.732308    0.186755
      2          6           0       -0.520717   -0.084286   -0.094398
      3          6           0        0.833204   -0.625545   -0.245544
      4          6           0        1.937018   -0.023866    0.213486
      5          1           0       -2.578966   -0.202072    0.340783
      6          1           0       -1.651363   -1.813303    0.252752
      7          9           0       -0.564478    1.327185   -0.127981
      8          1           0        0.888317   -1.621436   -0.678279
      9          1           0        1.903834    0.960365    0.668768
     10          1           0        2.908105   -0.497410    0.122644
 ---------------------------------------------------------------------
                    Distance matrix (angstroms):
                    1          2          3          4          5
     1  C    0.000000
     2  C    1.330560   0.000000
     3  C    2.521125   1.465916   0.000000
     4  C    3.654723   2.477681   1.338331   0.000000
     5  H    1.082147   2.107047   3.487982   4.521291   0.000000
     6  H    1.083012   2.094845   2.798596   4.010000   1.861253
     7  F    2.348448   1.412548   2.404265   2.863462   2.572262
     8  H    2.823683   2.165439   1.087242   2.108850   3.882671
     9  H    3.964218   2.748120   2.120690   1.084939   4.642664
    10  H    4.562891   3.460433   2.111207   1.084208   5.499341
                    6          7          8          9         10
     6  H    0.000000
     7  F    3.344988   0.000000
     8  H    2.711754   3.332838   0.000000
     9  H    4.528325   2.619528   3.084073   0.000000
    10  H    4.747341   3.930749   2.446314   1.852544   0.000000
 Stoichiometry    C4H5F
 Framework group  C1[X(C4H5F)]
 Deg. of freedom    24
 Full point group                 C1      NOp   1
 RotChk:  IX=0 Diff= 3.48D-16
 Largest Abelian subgroup         C1      NOp   1
 Largest concise Abelian subgroup C1      NOp   1
                         Standard orientation:                         
 ---------------------------------------------------------------------
 Center     Atomic      Atomic             Coordinates (Angstroms)
 Number     Number       Type             X           Y           Z
 ---------------------------------------------------------------------
      1          6           0       -1.644666   -0.740855    0.183823
      2          6           0       -0.520370   -0.085068   -0.092386
      3          6           0        0.835779   -0.618735   -0.250398
      4          6           0        1.937449   -0.016569    0.213120
      5          1           0       -2.577527   -0.216333    0.344102
      6          1           0       -1.642807   -1.822442    0.239338
      7          9           0       -0.570511    1.326450   -0.112228
      8          1           0        0.894826   -1.610127   -0.692836
      9          1           0        1.900412    0.963044    0.677964
     10          1           0        2.910540   -0.484833    0.116525
 ---------------------------------------------------------------------
 Rotational constants (GHZ):      9.2521602      4.1784197      2.9851979
 Leave Link  202 at Wed May 12 11:56:08 2021, MaxMem=  2147483648 cpu:         0.0
 (Enter /opt/cluster/programs/g09_d.01/g09/l601.exe)
 Copying SCF densities to generalized density rwf, IOpCl= 0 IROHF=0.

 **********************************************************************

            Population analysis using the SCF density.

 **********************************************************************

 Orbital symmetries:
       Occupied  (A) (A) (A) (A) (A) (A) (A) (A) (A) (A) (A) (A)
                 (A) (A) (A) (A) (A) (A) (A)
       Virtual   (A) (A) (A) (A) (A) (A) (A) (A) (A) (A) (A) (A)
                 (A) (A) (A) (A) (A) (A) (A) (A) (A) (A) (A) (A)
                 (A) (A) (A) (A) (A) (A) (A) (A) (A) (A) (A) (A)
                 (A) (A) (A) (A) (A) (A) (A) (A) (A) (A) (A) (A)
                 (A) (A) (A) (A) (A) (A) (A) (A)
 The electronic state is 1-A.
 Alpha  occ. eigenvalues --  -24.83087 -10.40280 -10.32943 -10.31557 -10.31016
 Alpha  occ. eigenvalues --   -1.31075  -0.92771  -0.86430  -0.73178  -0.66410
 Alpha  occ. eigenvalues --   -0.60223  -0.58524  -0.55074  -0.52767  -0.50537
 Alpha  occ. eigenvalues --   -0.48342  -0.45534  -0.40442  -0.33110
 Alpha virt. eigenvalues --    0.02080   0.06800   0.08152   0.09545   0.10247
 Alpha virt. eigenvalues --    0.11530   0.12082   0.13025   0.13999   0.14760
 Alpha virt. eigenvalues --    0.15963   0.16798   0.18410   0.19441   0.20206
 Alpha virt. eigenvalues --    0.21362   0.23240   0.24625   0.25255   0.28494
 Alpha virt. eigenvalues --    0.29482   0.30796   0.32293   0.38995   0.41196
 Alpha virt. eigenvalues --    0.42373   0.43496   0.45634   0.48762   0.50136
 Alpha virt. eigenvalues --    0.52120   0.67936   0.74375   0.77157   0.78707
 Alpha virt. eigenvalues --    0.81282   0.83012   0.85143   0.88991   0.92995
 Alpha virt. eigenvalues --    0.98672   1.02687   1.04173   1.09456   1.13473
 Alpha virt. eigenvalues --    1.15665   1.17071   1.23811   1.30656   1.31848
 Alpha virt. eigenvalues --    1.39284   1.41427   1.66715   1.81631   1.85368
 Alpha virt. eigenvalues --    2.37944
          Condensed to atoms (all electrons):
               1          2          3          4          5          6
     1  C    6.187161   0.027456  -0.301767  -0.051557   0.373821   0.336003
     2  C    0.027456   5.459973   0.009961   0.080633  -0.035625  -0.016133
     3  C   -0.301767   0.009961   6.099862   0.161514   0.013990   0.017795
     4  C   -0.051557   0.080633   0.161514   5.468413   0.001217   0.000535
     5  H    0.373821  -0.035625   0.013990   0.001217   0.449595  -0.019427
     6  H    0.336003  -0.016133   0.017795   0.000535  -0.019427   0.468870
     7  F   -0.154346   0.288893  -0.148088   0.002364  -0.003413   0.004304
     8  H    0.006405  -0.015103   0.331764  -0.014449   0.000049   0.000345
     9  H   -0.002959   0.004023  -0.051670   0.395606   0.000002  -0.000002
    10  H    0.003139   0.017787  -0.030722   0.359463   0.000001  -0.000002
               7          8          9         10
     1  C   -0.154346   0.006405  -0.002959   0.003139
     2  C    0.288893  -0.015103   0.004023   0.017787
     3  C   -0.148088   0.331764  -0.051670  -0.030722
     4  C    0.002364  -0.014449   0.395606   0.359463
     5  H   -0.003413   0.000049   0.000002   0.000001
     6  H    0.004304   0.000345  -0.000002  -0.000002
     7  F    9.320194   0.003798  -0.000233   0.000257
     8  H    0.003798   0.469117   0.002534  -0.003747
     9  H   -0.000233   0.002534   0.455020  -0.023060
    10  H    0.000257  -0.003747  -0.023060   0.479081
 Mulliken charges:
               1
     1  C   -0.423356
     2  C    0.178135
     3  C   -0.102639
     4  C   -0.403739
     5  H    0.219791
     6  H    0.207712
     7  F   -0.313731
     8  H    0.219286
     9  H    0.220739
    10  H    0.197802
 Sum of Mulliken charges =   0.00000
 Mulliken charges with hydrogens summed into heavy atoms:
               1
     1  C    0.004147
     2  C    0.178135
     3  C    0.116647
     4  C    0.014802
     7  F   -0.313731
 Electronic spatial extent (au):  <R**2>=            423.5771
 Charge=              0.0000 electrons
 Dipole moment (field-independent basis, Debye):
    X=              0.5512    Y=             -2.1091    Z=              0.2572  Tot=              2.1950
 Quadrupole moment (field-independent basis, Debye-Ang):
   XX=            -25.1920   YY=            -30.0351   ZZ=            -31.9610
   XY=              1.2863   XZ=             -0.2572   YZ=              1.4664
 Traceless Quadrupole moment (field-independent basis, Debye-Ang):
   XX=              3.8707   YY=             -0.9724   ZZ=             -2.8983
   XY=              1.2863   XZ=             -0.2572   YZ=              1.4664
 Octapole moment (field-independent basis, Debye-Ang**2):
  XXX=             -2.4709  YYY=              1.7711  ZZZ=             -1.0365  XYY=              0.1409
  XXY=              1.3521  XXZ=              3.1890  XZZ=             -1.2017  YZZ=              4.5909
  YYZ=             -0.3630  XYZ=              2.3563
 Hexadecapole moment (field-independent basis, Debye-Ang**3):
 XXXX=           -324.1694 YYYY=           -137.0716 ZZZZ=            -46.4918 XXXY=             -9.8110
 XXXZ=             -1.8968 YYYX=              1.0813 YYYZ=              2.4956 ZZZX=              1.0817
 ZZZY=              0.7408 XXYY=            -81.8497 XXZZ=            -75.3342 YYZZ=            -31.6229
 XXYZ=              1.9208 YYXZ=             -1.4380 ZZXY=             -2.3432
 N-N= 1.575958689840D+02 E-N=-9.128720421458D+02  KE= 2.536693330880D+02
 No NMR shielding tensors so no spin-rotation constants.
 Leave Link  601 at Wed May 12 11:56:08 2021, MaxMem=  2147483648 cpu:         0.6
 (Enter /opt/cluster/programs/g09_d.01/g09/l9999.exe)
 1\1\GINC-NODE06\FOpt\RwB97XD\6-31+G\C4H5F1\BOITTIER\12-May-2021\0\\#p 
 wB97XD/6-31+G Opt=ModRedun\\B.pdb\\0,1\C,-1.6482848976,-0.7323079848,0
 .1867553172\C,-0.5207167502,-0.0842855,-0.094398105\C,0.8332044322,-0.
 6255449645,-0.2455441405\C,1.9370179789,-0.0238657951,0.2134861012\H,-
 2.5789658285,-0.202071928,0.3407831621\H,-1.6513626194,-1.8133030962,0
 .2527524844\F,-0.5644775198,1.3271849037,-0.1279808229\H,0.888317452,-
 1.6214360345,-0.6782793565\H,1.9038338394,0.9603651057,0.6687676439\H,
 2.908104913,-0.4974097063,0.1226437161\\Version=ES64L-G09RevD.01\State
 =1-A\HF=-255.0976794\RMSD=6.765e-09\RMSF=2.165e-03\Dipole=0.2130043,-0
 .8297196,0.1094827\Quadrupole=2.8867749,-0.7104585,-2.1763164,0.936988
 9,-0.1893242,1.0781889\PG=C01 [X(C4H5F1)]\\@


 A politician is a person who can make waves and then
 make you think he's the only one who can save the ship.
 -- Ivern Ball
 Job cpu time:       0 days  0 hours  1 minutes 19.3 seconds.
 File lengths (MBytes):  RWF=      5 Int=      0 D2E=      0 Chk=      2 Scr=      1
 Normal termination of Gaussian 09 at Wed May 12 11:56:08 2021.
