L.pdb                                                                   
FOpt      RwB97XD                                                     6-31+G              
Number of atoms                            I                8
Info1-9                                    I   N=           9
          19          19           0           0           0         110
           2          18        -802
Charge                                     I                0
Multiplicity                               I                1
Number of electrons                        I               30
Number of alpha electrons                  I               15
Number of beta electrons                   I               15
Number of basis functions                  I               60
Number of independent functions            I               60
Number of point charges in /Mol/           I                0
Number of translation vectors              I                0
Atomic numbers                             I   N=           8
           6           6           6           8           1           1
           1           1
Nuclear charges                            R   N=           8
  6.00000000E+00  6.00000000E+00  6.00000000E+00  8.00000000E+00  1.00000000E+00
  1.00000000E+00  1.00000000E+00  1.00000000E+00
Current cartesian coordinates              R   N=          24
 -3.32528244E+00  2.66401828E-01 -1.34696498E-01 -1.06863878E+00 -8.36304942E-01
  1.84887074E-01  1.27094991E+00  6.65773905E-01  1.86145566E-01  3.38933840E+00
 -2.38523404E-01 -2.02676634E-01  1.04301277E+00  2.72001765E+00  4.63913351E-01
 -5.05699761E+00 -8.20859119E-01 -2.68098647E-01 -3.50840432E+00  2.30922455E+00
 -2.79174670E-01 -8.54490206E-01 -2.87542059E+00  2.86756187E-01
Force Field                                I                0
Int Atom Types                             I   N=           8
           0           0           0           0           0           0
           0           0
MM charges                                 R   N=           8
  0.00000000E+00  0.00000000E+00  0.00000000E+00  0.00000000E+00  0.00000000E+00
  0.00000000E+00  0.00000000E+00  0.00000000E+00
Integer atomic weights                     I   N=           8
          12          12          12          16           1           1
           1           1
Real atomic weights                        R   N=           8
  1.20000000E+01  1.20000000E+01  1.20000000E+01  1.59949146E+01  1.00782504E+00
  1.00782504E+00  1.00782504E+00  1.00782504E+00
Atom fragment info                         I   N=           8
           0           0           0           0           0           0
           0           0
Atom residue num                           I   N=           8
           0           0           0           0           0           0
           0           0
Nuclear spins                              I   N=           8
           0           0           0           0           1           1
           1           1
Nuclear ZEff                               R   N=           8
 -3.60000000E+00 -3.60000000E+00 -3.60000000E+00 -5.60000000E+00 -1.00000000E+00
 -1.00000000E+00 -1.00000000E+00 -1.00000000E+00
Nuclear ZNuc                               R   N=           8
  6.00000000E+00  6.00000000E+00  6.00000000E+00  8.00000000E+00  1.00000000E+00
  1.00000000E+00  1.00000000E+00  1.00000000E+00
Nuclear QMom                               R   N=           8
  0.00000000E+00  0.00000000E+00  0.00000000E+00  0.00000000E+00  0.00000000E+00
  0.00000000E+00  0.00000000E+00  0.00000000E+00
Nuclear GFac                               R   N=           8
  0.00000000E+00  0.00000000E+00  0.00000000E+00  0.00000000E+00  2.79284600E+00
  2.79284600E+00  2.79284600E+00  2.79284600E+00
MicOpt                                     I   N=           8
          -1          -1          -1          -1          -1          -1
          -1          -1
Number of contracted shells                I               24
Number of primitive shells                 I               60
Pure/Cartesian d shells                    I                1
Pure/Cartesian f shells                    I                0
Highest angular momentum                   I                1
Largest degree of contraction              I                6
Shell types                                I   N=          24
           0          -1          -1          -1           0          -1
          -1          -1           0          -1          -1          -1
           0          -1          -1          -1           0           0
           0           0           0           0           0           0
Number of primitives per shell             I   N=          24
           6           3           1           1           6           3
           1           1           6           3           1           1
           6           3           1           1           3           1
           3           1           3           1           3           1
Shell to atom map                          I   N=          24
           1           1           1           1           2           2
           2           2           3           3           3           3
           4           4           4           4           5           5
           6           6           7           7           8           8
Primitive exponents                        R   N=          60
  3.04752488E+03  4.57369518E+02  1.03948685E+02  2.92101553E+01  9.28666296E+00
  3.16392696E+00  7.86827235E+00  1.88128854E+00  5.44249258E-01  1.68714478E-01
  4.38000000E-02  3.04752488E+03  4.57369518E+02  1.03948685E+02  2.92101553E+01
  9.28666296E+00  3.16392696E+00  7.86827235E+00  1.88128854E+00  5.44249258E-01
  1.68714478E-01  4.38000000E-02  3.04752488E+03  4.57369518E+02  1.03948685E+02
  2.92101553E+01  9.28666296E+00  3.16392696E+00  7.86827235E+00  1.88128854E+00
  5.44249258E-01  1.68714478E-01  4.38000000E-02  5.48467166E+03  8.25234946E+02
  1.88046958E+02  5.29645000E+01  1.68975704E+01  5.79963534E+00  1.55396162E+01
  3.59993359E+00  1.01376175E+00  2.70005823E-01  8.45000000E-02  1.87311370E+01
  2.82539436E+00  6.40121692E-01  1.61277759E-01  1.87311370E+01  2.82539436E+00
  6.40121692E-01  1.61277759E-01  1.87311370E+01  2.82539436E+00  6.40121692E-01
  1.61277759E-01  1.87311370E+01  2.82539436E+00  6.40121692E-01  1.61277759E-01
Contraction coefficients                   R   N=          60
  1.83473713E-03  1.40373228E-02  6.88426223E-02  2.32184443E-01  4.67941348E-01
  3.62311985E-01 -1.19332420E-01 -1.60854152E-01  1.14345644E+00  1.00000000E+00
  1.00000000E+00  1.83473713E-03  1.40373228E-02  6.88426223E-02  2.32184443E-01
  4.67941348E-01  3.62311985E-01 -1.19332420E-01 -1.60854152E-01  1.14345644E+00
  1.00000000E+00  1.00000000E+00  1.83473713E-03  1.40373228E-02  6.88426223E-02
  2.32184443E-01  4.67941348E-01  3.62311985E-01 -1.19332420E-01 -1.60854152E-01
  1.14345644E+00  1.00000000E+00  1.00000000E+00  1.83107443E-03  1.39501722E-02
  6.84450781E-02  2.32714336E-01  4.70192898E-01  3.58520853E-01 -1.10777550E-01
 -1.48026263E-01  1.13076702E+00  1.00000000E+00  1.00000000E+00  3.34946043E-02
  2.34726953E-01  8.13757326E-01  1.00000000E+00  3.34946043E-02  2.34726953E-01
  8.13757326E-01  1.00000000E+00  3.34946043E-02  2.34726953E-01  8.13757326E-01
  1.00000000E+00  3.34946043E-02  2.34726953E-01  8.13757326E-01  1.00000000E+00
P(S=P) Contraction coefficients            R   N=          60
  0.00000000E+00  0.00000000E+00  0.00000000E+00  0.00000000E+00  0.00000000E+00
  0.00000000E+00  6.89990666E-02  3.16423961E-01  7.44308291E-01  1.00000000E+00
  1.00000000E+00  0.00000000E+00  0.00000000E+00  0.00000000E+00  0.00000000E+00
  0.00000000E+00  0.00000000E+00  6.89990666E-02  3.16423961E-01  7.44308291E-01
  1.00000000E+00  1.00000000E+00  0.00000000E+00  0.00000000E+00  0.00000000E+00
  0.00000000E+00  0.00000000E+00  0.00000000E+00  6.89990666E-02  3.16423961E-01
  7.44308291E-01  1.00000000E+00  1.00000000E+00  0.00000000E+00  0.00000000E+00
  0.00000000E+00  0.00000000E+00  0.00000000E+00  0.00000000E+00  7.08742682E-02
  3.39752839E-01  7.27158577E-01  1.00000000E+00  1.00000000E+00  0.00000000E+00
  0.00000000E+00  0.00000000E+00  0.00000000E+00  0.00000000E+00  0.00000000E+00
  0.00000000E+00  0.00000000E+00  0.00000000E+00  0.00000000E+00  0.00000000E+00
  0.00000000E+00  0.00000000E+00  0.00000000E+00  0.00000000E+00  0.00000000E+00
Coordinates of each shell                  R   N=          72
 -3.32528244E+00  2.66401828E-01 -1.34696498E-01 -3.32528244E+00  2.66401828E-01
 -1.34696498E-01 -3.32528244E+00  2.66401828E-01 -1.34696498E-01 -3.32528244E+00
  2.66401828E-01 -1.34696498E-01 -1.06863878E+00 -8.36304942E-01  1.84887074E-01
 -1.06863878E+00 -8.36304942E-01  1.84887074E-01 -1.06863878E+00 -8.36304942E-01
  1.84887074E-01 -1.06863878E+00 -8.36304942E-01  1.84887074E-01  1.27094991E+00
  6.65773905E-01  1.86145566E-01  1.27094991E+00  6.65773905E-01  1.86145566E-01
  1.27094991E+00  6.65773905E-01  1.86145566E-01  1.27094991E+00  6.65773905E-01
  1.86145566E-01  3.38933840E+00 -2.38523404E-01 -2.02676634E-01  3.38933840E+00
 -2.38523404E-01 -2.02676634E-01  3.38933840E+00 -2.38523404E-01 -2.02676634E-01
  3.38933840E+00 -2.38523404E-01 -2.02676634E-01  1.04301277E+00  2.72001765E+00
  4.63913351E-01  1.04301277E+00  2.72001765E+00  4.63913351E-01 -5.05699761E+00
 -8.20859119E-01 -2.68098647E-01 -5.05699761E+00 -8.20859119E-01 -2.68098647E-01
 -3.50840432E+00  2.30922455E+00 -2.79174670E-01 -3.50840432E+00  2.30922455E+00
 -2.79174670E-01 -8.54490206E-01 -2.87542059E+00  2.86756187E-01 -8.54490206E-01
 -2.87542059E+00  2.86756187E-01
Constraint Structure                       R   N=          24
 -3.33929138E+00  2.62369733E-01 -1.34650483E-01 -1.06721135E+00 -8.32146522E-01
  1.88997243E-01  1.26990374E+00  6.67403967E-01  1.85495580E-01  3.40368607E+00
 -2.38850205E-01 -2.01930402E-01  1.04033991E+00  2.72658752E+00  4.47432409E-01
 -5.06655403E+00 -8.33525834E-01 -2.78148727E-01 -3.53543919E+00  2.30524495E+00
 -2.71203983E-01 -8.48241315E-01 -2.87326807E+00  2.78309479E-01
Num ILSW                                   I              100
ILSW                                       I   N=         100
           0           1           0           0           2           0
           0           0           0           0        4639          -1
           0           0           0           0           2           0
           0           0           0           0           1           0
           1           0           0           0           0           0
           0           0      100000           0          -1           0
           0           0           0           0           0           0
           0           0           0           1           0           0
           0           0           1           0           0           0
           0           0         121          41           0           0
           0           0          58           0           0           0
           0           0           0           8           0           0
           0           0           0           0           0           0
           0           0           0           0           0           0
           0           0           0           0           0           0
           0           0           0           0           0           0
           0           0           0           0
Num RLSW                                   I               41
RLSW                                       R   N=          41
  1.00000000E+00  1.00000000E+00  1.00000000E+00  1.00000000E+00  1.00000000E+00
  0.00000000E+00  2.00000000E-01  2.22036000E-01  0.00000000E+00  7.77964000E-01
  0.00000000E+00  2.00000000E-01  0.00000000E+00  0.00000000E+00  1.00000000E+00
  0.00000000E+00  0.00000000E+00  1.00000000E+00  0.00000000E+00  0.00000000E+00
  0.00000000E+00  0.00000000E+00  1.00000000E+00  0.00000000E+00  0.00000000E+00
  0.00000000E+00  0.00000000E+00  1.00000000E+00  0.00000000E+00  0.00000000E+00
  0.00000000E+00  0.00000000E+00  1.00000000E+00  0.00000000E+00  0.00000000E+00
  0.00000000E+00  0.00000000E+00  0.00000000E+00  1.00000000E+00  1.00000000E+00
  0.00000000E+00
MxBond                                     I                3
NBond                                      I   N=           8
           3           3           3           1           1           1
           1           1
IBond                                      I   N=          24
           2           6           7           1           3           8
           2           4           5           3           0           0
           3           0           0           1           0           0
           1           0           0           2           0           0
RBond                                      R   N=          24
  2.00000000E+00  1.00000000E+00  1.00000000E+00  2.00000000E+00  1.00000000E+00
  1.00000000E+00  1.00000000E+00  2.00000000E+00  1.00000000E+00  2.00000000E+00
  0.00000000E+00  0.00000000E+00  1.00000000E+00  0.00000000E+00  0.00000000E+00
  1.00000000E+00  0.00000000E+00  0.00000000E+00  1.00000000E+00  0.00000000E+00
  0.00000000E+00  1.00000000E+00  0.00000000E+00  0.00000000E+00
Virial Ratio                               R      2.005795333800382E+00
SCF Energy                                 R     -1.917944993026939E+02
Total Energy                               R     -1.917944993026939E+02
RMS Force                                  R      1.410914300127111E-03
RMS Density                                R      8.461056920123113E-09
External E-field                           R   N=          35
  0.00000000E+00  0.00000000E+00  0.00000000E+00  0.00000000E+00  0.00000000E+00
  0.00000000E+00  0.00000000E+00  0.00000000E+00  0.00000000E+00  0.00000000E+00
  0.00000000E+00  0.00000000E+00  0.00000000E+00  0.00000000E+00  0.00000000E+00
  0.00000000E+00  0.00000000E+00  0.00000000E+00  0.00000000E+00  0.00000000E+00
  0.00000000E+00  0.00000000E+00  0.00000000E+00  0.00000000E+00  0.00000000E+00
  0.00000000E+00  0.00000000E+00  0.00000000E+00  0.00000000E+00  0.00000000E+00
  0.00000000E+00  0.00000000E+00  0.00000000E+00  0.00000000E+00  0.00000000E+00
IOpCl                                      I                0
IROHF                                      I                0
Alpha Orbital Energies                     R   N=          60
 -1.92889476E+01 -1.04065693E+01 -1.03390872E+01 -1.03329105E+01 -1.17226330E+00
 -9.20464211E-01 -7.59695866E-01 -6.82354305E-01 -5.84636260E-01 -5.75814649E-01
 -5.16889507E-01 -4.96544919E-01 -4.86764126E-01 -3.81915826E-01 -3.53747947E-01
 -1.14342638E-02  6.95784872E-02  8.12619466E-02  8.70420666E-02  9.22172314E-02
  1.18254189E-01  1.26437880E-01  1.27422723E-01  1.48215732E-01  1.55961310E-01
  1.76588469E-01  1.85231891E-01  2.01871327E-01  2.22907385E-01  2.63258823E-01
  2.85752426E-01  2.90063549E-01  3.16102178E-01  3.35073774E-01  3.59666518E-01
  3.61571332E-01  3.83803571E-01  4.37105288E-01  4.71903114E-01  4.95290317E-01
  7.07885780E-01  7.17621246E-01  7.59409857E-01  7.83351034E-01  8.03457854E-01
  8.60019804E-01  8.80825881E-01  9.76537032E-01  1.02048650E+00  1.07762297E+00
  1.09677009E+00  1.12785071E+00  1.21003813E+00  1.22604139E+00  1.29596682E+00
  1.32543190E+00  1.37106393E+00  1.39852855E+00  1.43791329E+00  1.91365416E+00
Alpha MO coefficients                      R   N=        3600
 -1.48098856E-05 -1.67335340E-04 -2.46391531E-04 -9.34228829E-05 -5.83996091E-05
 -2.05683302E-03  6.89767966E-04  1.48030773E-03 -1.26768858E-04  3.97008601E-03
  1.04249124E-03 -5.10110648E-04  1.16359663E-05  3.27228753E-05  9.65843791E-05
 -5.38691429E-05 -1.46066559E-04  1.01532542E-05 -1.53380921E-03 -3.37235553E-03
  1.48452234E-03  1.72252469E-04  7.93155178E-03  4.12684047E-03  8.92665256E-04
  6.02442966E-05  2.00597360E-04  1.27233718E-04 -7.46618093E-06  1.85682241E-04
 -1.35045562E-05  8.33641868E-03  5.32052203E-03 -5.28105970E-03 -1.15622640E-03
 -1.64048607E-02  8.06113942E-04  3.43066049E-03  6.15314272E-04  9.95227216E-01
  2.94951257E-02 -2.00879693E-03  7.71903300E-04  3.70931795E-04 -2.19639764E-02
  4.85978342E-03 -1.43526112E-03 -8.46141984E-04  8.30473038E-03 -7.45756869E-04
 -1.44863812E-04 -8.84779105E-05 -4.05090449E-05  1.78553033E-03  1.60279296E-04
  1.07561979E-03 -1.68974564E-04 -4.28550453E-04  2.77798742E-04  8.11080486E-04
 -1.33008501E-05 -2.12591639E-04 -1.35001917E-04 -4.13908820E-05  2.15275615E-05
  2.00211069E-04  5.80058777E-04  1.44409499E-04 -3.86454745E-05 -2.06092276E-02
 -3.07924412E-03  3.16731342E-03 -8.95585435E-04  1.87983697E-03 -5.88489133E-04
 -4.67105505E-04 -3.94226970E-04 -2.17398117E-05  5.14010584E-03  3.06330060E-03
  1.67416893E-03  6.41171799E-05  3.63415439E-03 -1.25441152E-02  1.00390942E-03
 -3.49954883E-04  9.95437534E-01  3.61902423E-02  1.20614763E-03 -6.83035510E-04
 -2.67279473E-04 -3.21562775E-02 -6.75973193E-04  2.34112690E-03  5.53902666E-04
  1.45236320E-02 -2.96607849E-03 -4.91688538E-03 -1.12849118E-04 -1.24189586E-04
 -3.49485550E-05  5.51193709E-04 -2.06155058E-04 -8.72264117E-05  1.15162217E-03
 -2.75033039E-04 -2.37779421E-04 -5.78006603E-05  1.10202052E-02 -5.58234000E-03
  2.25064360E-03  1.07467550E-03 -5.50598799E-04  3.38551018E-03 -1.26371524E-05
  8.74140857E-04 -8.26874455E-05 -1.78472224E-04 -1.57988960E-04 -1.57502874E-04
  9.93029823E-01  3.51214766E-02  3.71207663E-04 -1.06860040E-04  3.61433247E-05
 -2.97600467E-02 -3.18932617E-03  1.52668149E-03 -4.50498279E-04  2.23422853E-02
  6.54471708E-03 -3.92006858E-03  8.24062034E-04  6.73449699E-02  1.17733547E-03
  1.06506825E-03 -5.18774227E-04  1.37796681E-04  6.69611330E-03 -5.08813587E-03
  2.01704723E-03 -6.91415269E-04  1.64893162E-02  1.28830707E-02  6.12721455E-03
  7.11874303E-04 -1.55202638E-04 -2.41506857E-04  1.29109077E-04 -2.69344412E-05
  8.42321776E-06 -6.21550291E-04 -1.44683459E-03  2.71515766E-04  2.07639565E-04
 -3.87089664E-02  9.50211126E-03  4.98207756E-03 -1.96284160E-05 -9.50812588E-06
 -1.33447188E-04  2.52623502E-05 -1.57177870E-05 -1.67396328E-05  6.85030471E-04
 -4.93192439E-04  2.15425037E-04  1.27640949E-04  3.30032349E-03 -1.40128439E-03
 -1.63464450E-05  2.71030625E-04 -2.24830527E-04  3.36167813E-04 -7.35164422E-04
  4.13165905E-03 -6.43741030E-04  3.77613653E-03 -1.89424246E-04  2.80829776E-04
 -6.75949109E-02 -3.75052837E-03 -8.88480658E-04  4.49169398E-04 -1.30163599E-04
  1.25108792E-02  5.62922783E-03 -8.78129544E-04  6.24221725E-04 -4.03830150E-02
 -9.41373812E-03  3.17401911E-03 -1.21411139E-03  9.93113308E-01  3.63592980E-02
 -2.50137540E-04  6.56505146E-04 -1.63693664E-04 -3.58433004E-02  9.50521062E-04
 -5.82136502E-03  8.20912792E-04  7.20733224E-02 -2.62615983E-03  1.27488485E-02
 -1.62258210E-03 -1.84506223E-03 -7.98416345E-04  5.01103333E-04  3.17794945E-04
 -7.93855925E-06  7.02416301E-03 -5.23426319E-03 -1.47240819E-03  2.03227310E-05
 -3.09914318E-02  6.96333859E-03  3.94353205E-03  5.20563435E-05 -1.05636120E-06
 -6.86034628E-05  7.30900596E-05 -6.50207714E-05  8.55526894E-06  1.73243662E-04
 -1.31284175E-04  5.63401242E-04  3.95853282E-05  3.04347896E-03 -6.86598264E-04
 -1.13117703E-04  4.03624804E-04 -2.67245585E-04 -3.86866620E-04 -7.58863058E-05
  6.64831135E-04 -3.00163850E-04 -9.45704633E-04 -7.02327525E-04  2.29307591E-03
 -3.69119760E-03  9.49957146E-03  7.03290765E-03 -2.72341073E-04  5.34938796E-04
  1.72808409E-02 -9.20532696E-03 -1.49801654E-02  1.38148818E-03  5.87067224E-02
  1.07547302E-02 -5.09195226E-03  1.69073452E-03 -2.00621654E-02  3.73307313E-02
  2.57884673E-02  1.03680833E-02 -1.67098437E-03  2.03175531E-02  2.35227707E-02
 -1.12515299E-02 -2.45303891E-03 -1.09315766E-01  1.04261309E-03 -1.97013242E-02
  3.34944714E-03 -1.16271316E-01  2.38432295E-01  1.65879568E-01 -7.81846619E-02
 -3.16792609E-02  3.00705968E-02 -5.80511918E-02  4.42199861E-02  1.12920167E-02
  6.33596479E-02 -1.08526310E-03 -7.95976605E-03 -2.83437138E-03 -1.92375940E-01
  4.23616652E-01 -1.64966959E-01  6.83535007E-02  2.99734612E-02  4.26675130E-01
 -7.13775404E-02  2.56718273E-02  1.31639828E-02  1.09656645E-03 -7.22490298E-03
  3.93071570E-03  1.67241429E-03  2.80343761E-02 -2.37026253E-02 -2.28449709E-04
 -1.34824228E-02  3.27019007E-03  4.77451049E-03  6.02293778E-03 -4.38145670E-03
 -1.41911155E-01  2.73410813E-01  9.96551436E-02 -3.80862322E-02  1.24735962E-02
  2.17118817E-01  1.70943275E-02  7.41992912E-03  1.57809384E-03  1.55143724E-02
  4.80888143E-03  4.68566680E-03  3.89382716E-04 -1.60553668E-01  3.13451869E-01
 -5.93449583E-02  7.06067416E-02 -1.50910470E-02  2.06922591E-01  1.51588885E-03
 -1.47194567E-02 -1.62587266E-04 -1.00995402E-01 -1.99988247E-02 -3.13052407E-02
 -9.99159783E-05 -5.41451735E-02  1.05683665E-01 -1.35904803E-01 -1.51141198E-02
  7.63162205E-03  1.01947341E-01 -3.19014077E-02  3.20727779E-03  5.14764031E-04
  8.70026196E-02 -2.55674007E-02 -4.55912496E-03  1.47700996E-03  4.01318694E-02
 -9.28903791E-02  3.98857503E-03 -1.60732676E-02 -4.36306773E-03 -9.19807803E-02
  1.01264402E-03 -2.39225977E-03 -2.11700309E-04 -5.18906168E-03  7.21645965E-03
 -3.00360687E-03 -1.18795253E-03  3.37063561E-02  3.09015123E-03  6.86513728E-02
  1.45222387E-02  7.25934104E-02  6.50609240E-03  7.47191479E-02 -7.33115410E-04
 -1.32991202E-01  2.67193617E-01 -6.85986703E-02 -9.67592037E-03 -6.37085367E-03
  2.57043169E-01 -3.27647284E-02 -7.39172498E-03 -2.81944204E-03 -1.19238845E-01
 -2.64574900E-02  1.69639667E-02 -4.27504654E-03  5.34222400E-02 -1.08682592E-01
 -2.20587723E-01 -2.72584846E-02 -1.78483814E-02 -1.02159160E-01 -3.70716752E-02
 -3.56284055E-03 -4.22305223E-03  2.56022658E-02 -6.88221763E-02  1.13005562E-03
 -4.20091141E-03  1.16499116E-01 -2.45833253E-01  1.70216909E-01 -3.32466505E-03
 -2.25664017E-02 -2.61134973E-01  2.14978249E-02  2.30684992E-03 -3.98879759E-03
  9.46133640E-02 -1.36173649E-02 -2.23145736E-02 -1.34005582E-03 -6.73054963E-02
  1.55436596E-01  5.11140345E-02  3.54297639E-04 -6.64284063E-03  2.06984073E-01
  1.07234915E-02  6.00395872E-03 -4.82124551E-04  3.21369466E-02 -1.09351182E-02
  4.81881788E-03  2.75351958E-03 -1.02837065E-01 -3.59185988E-02  1.32932451E-01
  3.86232826E-02  1.05786423E-01  3.66938649E-02 -4.10233390E-02 -1.10478335E-02
 -4.88271557E-02  9.57111937E-02 -7.53425320E-02  1.42732966E-01 -1.49570896E-02
  1.13280898E-01 -1.13109484E-02  4.60475668E-02 -2.97788582E-03 -8.57853206E-02
 -2.51174955E-02  9.68403788E-03 -3.81057108E-03  9.47057436E-02 -1.91423495E-01
  2.65845087E-03  1.83084713E-01 -1.06008297E-03 -2.10102848E-01 -1.82644939E-03
  6.21119361E-02 -1.59146289E-03  1.33169794E-01 -3.57204354E-03  2.24910836E-02
 -2.01037036E-03 -8.28239656E-02  1.76717037E-01  4.46944649E-03  2.38210372E-01
  2.24614786E-02  1.91366159E-01 -1.40182495E-02  9.16135437E-02  9.17812447E-03
 -4.67779076E-02  7.28953049E-03  1.93447326E-02 -1.52200635E-04  3.63699038E-02
 -8.54796736E-02 -1.59590249E-02  1.14465996E-01  1.32030251E-02 -1.04777222E-01
 -6.69535521E-03  5.06456026E-02  5.88750472E-03 -9.21008032E-03  3.07784703E-03
 -5.95629711E-03  3.82751467E-04  1.83556977E-01  7.70562806E-02  4.09841125E-02
  2.34683598E-02  1.19346057E-01  6.04749195E-02 -1.69903599E-01 -6.91079852E-02
  1.27892941E-02 -2.38369328E-02  6.87935624E-02 -2.85135863E-01  3.40661610E-02
 -5.94518461E-02  7.05458765E-03 -1.16207501E-01  1.20772261E-02 -4.77246128E-02
  2.06931476E-03 -3.59343190E-03 -8.77583578E-04 -1.93125838E-02  3.51929764E-02
 -2.42061481E-01 -1.33175076E-01  4.71723494E-03  7.12539681E-02 -6.11882253E-02
 -3.93073185E-02  3.67501637E-03  4.66408177E-02 -3.38790213E-02  3.78997538E-03
 -1.07822364E-03 -4.84561457E-03  9.26873546E-03  1.49124832E-01  2.99627898E-01
  3.42216889E-02  2.34739033E-02  6.37623834E-02  1.33603905E-01  1.60661010E-02
  8.61965288E-03  1.55066457E-02  1.10373734E-02  1.75778728E-03  6.77796162E-03
 -1.50798088E-02  6.38475533E-02  1.96542552E-01  2.70537923E-02 -2.62338074E-02
  3.70347123E-02  9.59318717E-02  1.27199201E-02 -1.27637882E-02  4.53161683E-04
 -4.18274165E-03 -6.99657976E-04  1.47951284E-01  7.14749367E-02  3.45306816E-02
  1.42564587E-02 -1.76885218E-01 -9.71504036E-02  7.76392486E-02  4.35131531E-02
  1.02341147E-02 -1.81680851E-02  3.60207725E-01  5.53089779E-02  3.87748134E-02
 -4.68296037E-02  1.32637891E-01  3.58953690E-02  1.43708692E-02 -2.53648791E-02
  1.63062815E-02  6.57019952E-03  7.24290679E-04 -2.86814386E-02  6.13257576E-02
 -1.76792641E-01  2.20054764E-01 -2.97455513E-02  4.08199603E-02 -3.18388715E-02
  6.84603533E-02 -9.38981102E-03  2.47424203E-02 -2.31622535E-02  7.77820186E-03
 -1.31103508E-03  5.15834592E-02 -1.26390328E-01 -1.12285252E-01  9.12967263E-02
 -1.12735557E-02 -1.67868842E-01 -5.42571922E-02  6.06853209E-02 -3.68908489E-03
 -2.18845573E-02  7.91244101E-03  2.32887073E-03 -2.98748701E-04 -6.53519550E-02
  1.45014623E-01  2.35960358E-01 -5.09939141E-02 -6.47698303E-02  2.70784324E-01
  7.96935150E-02 -5.86395510E-03 -2.58452005E-02  8.20863491E-02 -3.58321448E-03
 -2.67932366E-03  6.19937290E-04 -6.97806421E-03 -1.40101043E-02 -2.08018078E-01
 -1.21278471E-01 -2.49541724E-03 -6.18534421E-03 -1.00943104E-01 -6.81852170E-02
  1.49314501E-02 -3.71941407E-02 -2.06236938E-01  5.10677462E-02  1.30557337E-02
 -1.92005472E-02 -6.12704670E-02  2.45487459E-02  1.26030390E-02  6.77071305E-02
  1.00222933E-02  2.74642437E-03  1.08503416E-03 -1.17158614E-03 -9.51267586E-04
  1.67481284E-01 -1.17007365E-01  9.69371109E-02  2.49094553E-02  4.64891943E-02
 -4.85630810E-02  4.39998252E-02 -7.40054623E-02  1.24669952E-02 -2.05871666E-02
  6.70113230E-03  1.58394934E-02 -6.33128191E-02 -2.49907285E-01  1.53520575E-01
  1.76181988E-01 -1.91530010E-02 -6.01895309E-02  4.66129723E-02  7.86715423E-02
  1.54157447E-02 -2.58483562E-03  8.79245498E-04  9.48996655E-03 -6.36341509E-02
  1.37639103E-01  4.11615077E-01 -1.54463431E-01  5.65126116E-02  2.57570435E-01
  1.77106394E-01 -6.72150437E-02  4.48413627E-02  8.04649493E-02  1.27259525E-02
 -8.23731551E-03 -3.16193984E-03  1.04678743E-01  8.10767726E-02  7.79109718E-02
  6.62139410E-02  3.18970571E-02  2.47844945E-02  9.38871960E-02  6.42658688E-02
 -5.21072545E-03  1.22437908E-02  1.12629833E-01  1.42504101E-01  9.61271952E-02
  2.37586091E-02  5.45315656E-02  6.86789399E-02  5.30901751E-02  1.16636091E-01
  3.84274417E-02  2.60696462E-03  2.72292092E-03 -8.73497470E-03  1.74211330E-02
 -7.79242689E-02 -5.01940842E-02  1.47928830E-01  2.32054515E-02 -1.59822315E-02
 -3.21315744E-02  7.41703252E-02 -1.39409503E-01  5.39788177E-03 -2.78543890E-02
  1.25156736E-02  8.28899854E-03 -7.65329992E-03  1.86073328E-01 -5.36006155E-02
  2.91009545E-01 -4.31869663E-02  5.70946548E-02 -1.04378851E-02  1.61590856E-01
  1.99056819E-02  7.06584794E-03 -7.43439040E-03  2.29173648E-02  2.00607393E-02
 -4.37444152E-02 -7.71227114E-02  5.97445625E-02  3.96673057E-01 -7.63619445E-02
 -2.61917758E-02  2.59034111E-02  2.36073859E-01 -1.77238656E-02 -1.15927813E-02
  6.05920589E-03  7.31521045E-03 -2.96485782E-02 -2.32789262E-02 -1.17241130E-01
 -8.42856544E-02  9.32690161E-02  6.33190955E-02  4.53429388E-02  2.90182445E-02
  1.23726172E-02 -2.84433162E-02  3.05197284E-02  2.88015794E-01 -5.60771573E-02
 -1.63825768E-02  3.96403661E-02  1.44284895E-01 -2.82482601E-02 -8.13593174E-02
 -9.62548734E-03  3.39051498E-02 -4.32477642E-03 -1.36714096E-02  2.10556657E-02
  2.48284155E-02 -2.79344094E-01 -4.77926044E-02  8.23096906E-02  1.37420107E-02
 -1.46802744E-01 -2.36135772E-02  6.20164961E-02 -3.93092173E-02 -2.32090153E-02
 -3.88387927E-03  2.32374766E-02 -5.24347630E-02  1.14465999E-01  1.34387429E-01
 -1.44185355E-01 -5.92772941E-02  4.24944189E-02  8.24624642E-02 -7.84309572E-02
  3.56600304E-02 -3.19683261E-03  8.75014119E-03 -1.13826228E-02  5.28285599E-03
 -1.28310095E-02  1.11634708E-02  1.68757140E-01 -1.67469223E-01 -2.16617816E-02
  7.78516360E-03  9.18473554E-02 -1.03260379E-01 -3.71017261E-03 -5.16221642E-04
  3.53732192E-03 -2.33849381E-03  4.14201470E-02  2.45622474E-02 -1.44099231E-01
 -9.25751566E-02  1.96166161E-01  1.47895898E-01  2.12151239E-01  1.31708857E-01
  9.76698253E-04 -2.85000283E-04 -4.91079389E-02  2.32000762E-02  3.71156855E-01
 -9.63432550E-04 -3.84355328E-02  1.09276409E-02  2.42546414E-01 -1.38827345E-01
 -3.95152508E-02  1.22189041E-02  4.02006449E-02 -3.26253209E-03  7.40594873E-03
 -2.32407122E-02  2.75744205E-02  3.61637291E-01  1.01316204E-02 -1.53327303E-02
  1.45390305E-02  2.46021385E-01  2.08110083E-01 -1.93669246E-02  3.50121049E-02
  2.27226782E-02  8.86593653E-04  1.99674823E-03 -1.50260706E-03 -1.31272949E-02
 -5.88510496E-02 -2.28886227E-02 -2.05716192E-02 -8.77135395E-04 -3.99737741E-02
 -7.65001528E-02  1.12590244E-02  1.25030854E-02 -1.37779214E-02 -5.16518796E-04
  1.36538082E-03 -6.30513535E-02  4.53056011E-02 -2.72088949E-01  1.16513221E-02
 -4.45996279E-02  3.53098653E-02 -1.84420851E-01  1.66785183E-02 -6.93761594E-03
  1.36014812E-03 -2.60845785E-02 -1.93548527E-02 -1.55593774E-02  4.43626291E-03
 -5.63395944E-04 -1.17343738E-03 -4.98734616E-04 -4.77098633E-03 -9.96315611E-03
  6.82370470E-03 -9.61778792E-03 -6.40649650E-02  7.75274823E-03 -2.00994044E-02
 -1.00971202E-01 -9.87545009E-02 -1.90153154E-02 -2.30750958E-02 -3.79771528E-01
 -8.27051666E-02  2.07294225E-02 -2.01769657E-02 -3.78926746E-02  6.94642037E-02
  1.90132633E-01  1.11961935E-01  3.20222404E-03  3.35782140E-01  1.08408145E-01
  1.88163939E-01 -2.09918417E-03  4.34673392E-01 -1.13721663E-01  1.00444586E-01
 -1.57709636E-03  6.98551516E-04  1.66143078E-02 -6.20791580E-02 -1.35099129E-01
 -9.28209575E-03 -7.80579883E-02  1.11794446E-01  2.07011029E-02 -2.53845326E-03
 -5.75469045E-02  5.77479660E-02 -9.19159846E-03 -9.54439245E-03 -1.21096654E-03
  6.07930676E-03  2.36319263E-01  5.37309350E-01  4.63828945E-02 -2.11247076E-02
  1.69503795E-01  3.58752696E-01  2.68121095E-02 -4.13268114E-02  2.51682359E-02