B.pdb                                                                   
FOpt      RwB97XD                                                     6-31+G              
Number of atoms                            I               10
Info1-9                                    I   N=           9
          21          21           0           0           0         110
           2          18        -802
Charge                                     I                0
Multiplicity                               I                1
Number of electrons                        I               38
Number of alpha electrons                  I               19
Number of beta electrons                   I               19
Number of basis functions                  I               75
Number of independent functions            I               75
Number of point charges in /Mol/           I                0
Number of translation vectors              I                0
Atomic numbers                             I   N=          10
           6           6           6           6           1           1
           9           1           1           1
Nuclear charges                            R   N=          10
  6.00000000E+00  6.00000000E+00  6.00000000E+00  6.00000000E+00  1.00000000E+00
  1.00000000E+00  9.00000000E+00  1.00000000E+00  1.00000000E+00  1.00000000E+00
Current cartesian coordinates              R   N=          30
 -1.60499583E+00  2.51366585E+00  1.09855189E-01 -8.80449674E-01  1.06207189E-01
  6.10863466E-02  1.62864929E+00 -1.04287856E+00  2.50234029E-01  3.80627898E+00
  1.68229115E-01 -1.90725858E-01 -3.57482047E+00  3.02631095E+00 -8.46951146E-02
 -2.28762929E-01  4.00497871E+00  3.68273945E-01 -2.77749508E+00 -1.75807855E+00
 -1.87851654E-01  1.63005906E+00 -3.02244323E+00  7.93105479E-01  3.86826358E+00
  2.12678105E+00 -8.01830529E-01  5.60581986E+00 -7.84262060E-01  3.31128691E-02
Force Field                                I                0
Int Atom Types                             I   N=          10
           0           0           0           0           0           0
           0           0           0           0
MM charges                                 R   N=          10
  0.00000000E+00  0.00000000E+00  0.00000000E+00  0.00000000E+00  0.00000000E+00
  0.00000000E+00  0.00000000E+00  0.00000000E+00  0.00000000E+00  0.00000000E+00
Integer atomic weights                     I   N=          10
          12          12          12          12           1           1
          19           1           1           1
Real atomic weights                        R   N=          10
  1.20000000E+01  1.20000000E+01  1.20000000E+01  1.20000000E+01  1.00782504E+00
  1.00782504E+00  1.89984032E+01  1.00782504E+00  1.00782504E+00  1.00782504E+00
Atom fragment info                         I   N=          10
           0           0           0           0           0           0
           0           0           0           0
Atom residue num                           I   N=          10
           0           0           0           0           0           0
           0           0           0           0
Nuclear spins                              I   N=          10
           0           0           0           0           1           1
           1           1           1           1
Nuclear ZEff                               R   N=          10
 -3.60000000E+00 -3.60000000E+00 -3.60000000E+00 -3.60000000E+00 -1.00000000E+00
 -1.00000000E+00 -6.75000000E+00 -1.00000000E+00 -1.00000000E+00 -1.00000000E+00
Nuclear ZNuc                               R   N=          10
  6.00000000E+00  6.00000000E+00  6.00000000E+00  6.00000000E+00  1.00000000E+00
  1.00000000E+00  9.00000000E+00  1.00000000E+00  1.00000000E+00  1.00000000E+00
Nuclear QMom                               R   N=          10
  0.00000000E+00  0.00000000E+00  0.00000000E+00  0.00000000E+00  0.00000000E+00
  0.00000000E+00  0.00000000E+00  0.00000000E+00  0.00000000E+00  0.00000000E+00
Nuclear GFac                               R   N=          10
  0.00000000E+00  0.00000000E+00  0.00000000E+00  0.00000000E+00  2.79284600E+00
  2.79284600E+00  2.62886700E+00  2.79284600E+00  2.79284600E+00  2.79284600E+00
MicOpt                                     I   N=          10
          -1          -1          -1          -1          -1          -1
          -1          -1          -1          -1
Number of contracted shells                I               30
Number of primitive shells                 I               75
Pure/Cartesian d shells                    I                1
Pure/Cartesian f shells                    I                0
Highest angular momentum                   I                1
Largest degree of contraction              I                6
Shell types                                I   N=          30
           0          -1          -1          -1           0          -1
          -1          -1           0          -1          -1          -1
           0          -1          -1          -1           0           0
           0           0           0          -1          -1          -1
           0           0           0           0           0           0
Number of primitives per shell             I   N=          30
           6           3           1           1           6           3
           1           1           6           3           1           1
           6           3           1           1           3           1
           3           1           6           3           1           1
           3           1           3           1           3           1
Shell to atom map                          I   N=          30
           1           1           1           1           2           2
           2           2           3           3           3           3
           4           4           4           4           5           5
           6           6           7           7           7           7
           8           8           9           9          10          10
Primitive exponents                        R   N=          75
  3.04752488E+03  4.57369518E+02  1.03948685E+02  2.92101553E+01  9.28666296E+00
  3.16392696E+00  7.86827235E+00  1.88128854E+00  5.44249258E-01  1.68714478E-01
  4.38000000E-02  3.04752488E+03  4.57369518E+02  1.03948685E+02  2.92101553E+01
  9.28666296E+00  3.16392696E+00  7.86827235E+00  1.88128854E+00  5.44249258E-01
  1.68714478E-01  4.38000000E-02  3.04752488E+03  4.57369518E+02  1.03948685E+02
  2.92101553E+01  9.28666296E+00  3.16392696E+00  7.86827235E+00  1.88128854E+00
  5.44249258E-01  1.68714478E-01  4.38000000E-02  3.04752488E+03  4.57369518E+02
  1.03948685E+02  2.92101553E+01  9.28666296E+00  3.16392696E+00  7.86827235E+00
  1.88128854E+00  5.44249258E-01  1.68714478E-01  4.38000000E-02  1.87311370E+01
  2.82539436E+00  6.40121692E-01  1.61277759E-01  1.87311370E+01  2.82539436E+00
  6.40121692E-01  1.61277759E-01  7.00171309E+03  1.05136609E+03  2.39285690E+02
  6.73974453E+01  2.15199573E+01  7.40310130E+00  2.08479528E+01  4.80830834E+00
  1.34406986E+00  3.58151393E-01  1.07600000E-01  1.87311370E+01  2.82539436E+00
  6.40121692E-01  1.61277759E-01  1.87311370E+01  2.82539436E+00  6.40121692E-01
  1.61277759E-01  1.87311370E+01  2.82539436E+00  6.40121692E-01  1.61277759E-01
Contraction coefficients                   R   N=          75
  1.83473713E-03  1.40373228E-02  6.88426223E-02  2.32184443E-01  4.67941348E-01
  3.62311985E-01 -1.19332420E-01 -1.60854152E-01  1.14345644E+00  1.00000000E+00
  1.00000000E+00  1.83473713E-03  1.40373228E-02  6.88426223E-02  2.32184443E-01
  4.67941348E-01  3.62311985E-01 -1.19332420E-01 -1.60854152E-01  1.14345644E+00
  1.00000000E+00  1.00000000E+00  1.83473713E-03  1.40373228E-02  6.88426223E-02
  2.32184443E-01  4.67941348E-01  3.62311985E-01 -1.19332420E-01 -1.60854152E-01
  1.14345644E+00  1.00000000E+00  1.00000000E+00  1.83473713E-03  1.40373228E-02
  6.88426223E-02  2.32184443E-01  4.67941348E-01  3.62311985E-01 -1.19332420E-01
 -1.60854152E-01  1.14345644E+00  1.00000000E+00  1.00000000E+00  3.34946043E-02
  2.34726953E-01  8.13757326E-01  1.00000000E+00  3.34946043E-02  2.34726953E-01
  8.13757326E-01  1.00000000E+00  1.81961690E-03  1.39160796E-02  6.84053245E-02
  2.33185760E-01  4.71267439E-01  3.56618546E-01 -1.08506975E-01 -1.46451658E-01
  1.12868858E+00  1.00000000E+00  1.00000000E+00  3.34946043E-02  2.34726953E-01
  8.13757326E-01  1.00000000E+00  3.34946043E-02  2.34726953E-01  8.13757326E-01
  1.00000000E+00  3.34946043E-02  2.34726953E-01  8.13757326E-01  1.00000000E+00
P(S=P) Contraction coefficients            R   N=          75
  0.00000000E+00  0.00000000E+00  0.00000000E+00  0.00000000E+00  0.00000000E+00
  0.00000000E+00  6.89990666E-02  3.16423961E-01  7.44308291E-01  1.00000000E+00
  1.00000000E+00  0.00000000E+00  0.00000000E+00  0.00000000E+00  0.00000000E+00
  0.00000000E+00  0.00000000E+00  6.89990666E-02  3.16423961E-01  7.44308291E-01
  1.00000000E+00  1.00000000E+00  0.00000000E+00  0.00000000E+00  0.00000000E+00
  0.00000000E+00  0.00000000E+00  0.00000000E+00  6.89990666E-02  3.16423961E-01
  7.44308291E-01  1.00000000E+00  1.00000000E+00  0.00000000E+00  0.00000000E+00
  0.00000000E+00  0.00000000E+00  0.00000000E+00  0.00000000E+00  6.89990666E-02
  3.16423961E-01  7.44308291E-01  1.00000000E+00  1.00000000E+00  0.00000000E+00
  0.00000000E+00  0.00000000E+00  0.00000000E+00  0.00000000E+00  0.00000000E+00
  0.00000000E+00  0.00000000E+00  0.00000000E+00  0.00000000E+00  0.00000000E+00
  0.00000000E+00  0.00000000E+00  0.00000000E+00  7.16287242E-02  3.45912103E-01
  7.22469956E-01  1.00000000E+00  1.00000000E+00  0.00000000E+00  0.00000000E+00
  0.00000000E+00  0.00000000E+00  0.00000000E+00  0.00000000E+00  0.00000000E+00
  0.00000000E+00  0.00000000E+00  0.00000000E+00  0.00000000E+00  0.00000000E+00
Coordinates of each shell                  R   N=          90
 -1.60499583E+00  2.51366585E+00  1.09855189E-01 -1.60499583E+00  2.51366585E+00
  1.09855189E-01 -1.60499583E+00  2.51366585E+00  1.09855189E-01 -1.60499583E+00
  2.51366585E+00  1.09855189E-01 -8.80449674E-01  1.06207189E-01  6.10863466E-02
 -8.80449674E-01  1.06207189E-01  6.10863466E-02 -8.80449674E-01  1.06207189E-01
  6.10863466E-02 -8.80449674E-01  1.06207189E-01  6.10863466E-02  1.62864929E+00
 -1.04287856E+00  2.50234029E-01  1.62864929E+00 -1.04287856E+00  2.50234029E-01
  1.62864929E+00 -1.04287856E+00  2.50234029E-01  1.62864929E+00 -1.04287856E+00
  2.50234029E-01  3.80627898E+00  1.68229115E-01 -1.90725858E-01  3.80627898E+00
  1.68229115E-01 -1.90725858E-01  3.80627898E+00  1.68229115E-01 -1.90725858E-01
  3.80627898E+00  1.68229115E-01 -1.90725858E-01 -3.57482047E+00  3.02631095E+00
 -8.46951146E-02 -3.57482047E+00  3.02631095E+00 -8.46951146E-02 -2.28762929E-01
  4.00497871E+00  3.68273945E-01 -2.28762929E-01  4.00497871E+00  3.68273945E-01
 -2.77749508E+00 -1.75807855E+00 -1.87851654E-01 -2.77749508E+00 -1.75807855E+00
 -1.87851654E-01 -2.77749508E+00 -1.75807855E+00 -1.87851654E-01 -2.77749508E+00
 -1.75807855E+00 -1.87851654E-01  1.63005906E+00 -3.02244323E+00  7.93105479E-01
  1.63005906E+00 -3.02244323E+00  7.93105479E-01  3.86826358E+00  2.12678105E+00
 -8.01830529E-01  3.86826358E+00  2.12678105E+00 -8.01830529E-01  5.60581986E+00
 -7.84262060E-01  3.31128691E-02  5.60581986E+00 -7.84262060E-01  3.31128691E-02
Constraint Structure                       R   N=          30
 -1.64039280E+00  2.51789150E+00  1.05989269E-01 -8.74440811E-01  1.13763223E-01
  5.70661487E-02  1.63435423E+00 -1.02638537E+00  2.46658592E-01  3.83187108E+00
  1.73545947E-01 -1.85693740E-01 -3.61882280E+00  3.00274936E+00 -8.47370106E-02
 -2.90429541E-01  4.03600146E+00  3.57126313E-01 -2.77437097E+00 -1.78232612E+00
 -1.83123712E-01  1.62903329E+00 -3.01127433E+00  7.76821259E-01  3.91679675E+00
  2.13493997E+00 -7.86864755E-01  5.62441075E+00 -7.94373196E-01  4.16459834E-02
Num ILSW                                   I              100
ILSW                                       I   N=         100
           0           1           0           0           2           0
           0           0           0           0        4639          -1
           0           0           0           0           2           0
           0           0           0           0           1           0
           1           0           0           0           0           0
           0           0      100000           0          -1           0
           0           0           0           0           0           0
           0           0           0           1           0           0
           0           0           1           0           0           0
           0           0         121          41           0           0
           0           0          58           0           0           0
           0           0           0          10           0           0
           0           0           0           0           0           0
           0           0           0           0           0           0
           0           0           0           0           0           0
           0           0           0           0           0           0
           0           0           0           0
Num RLSW                                   I               41
RLSW                                       R   N=          41
  1.00000000E+00  1.00000000E+00  1.00000000E+00  1.00000000E+00  1.00000000E+00
  0.00000000E+00  2.00000000E-01  2.22036000E-01  0.00000000E+00  7.77964000E-01
  0.00000000E+00  2.00000000E-01  0.00000000E+00  0.00000000E+00  1.00000000E+00
  0.00000000E+00  0.00000000E+00  1.00000000E+00  0.00000000E+00  0.00000000E+00
  0.00000000E+00  0.00000000E+00  1.00000000E+00  0.00000000E+00  0.00000000E+00
  0.00000000E+00  0.00000000E+00  1.00000000E+00  0.00000000E+00  0.00000000E+00
  0.00000000E+00  0.00000000E+00  1.00000000E+00  0.00000000E+00  0.00000000E+00
  0.00000000E+00  0.00000000E+00  0.00000000E+00  1.00000000E+00  1.00000000E+00
  0.00000000E+00
MxBond                                     I                3
NBond                                      I   N=          10
           3           3           3           3           1           1
           1           1           1           1
IBond                                      I   N=          30
           2           5           6           1           3           7
           2           4           8           3           9          10
           1           0           0           1           0           0
           2           0           0           3           0           0
           4           0           0           4           0           0
RBond                                      R   N=          30
  2.00000000E+00  1.00000000E+00  1.00000000E+00  2.00000000E+00  1.00000000E+00
  1.00000000E+00  1.00000000E+00  2.00000000E+00  1.00000000E+00  2.00000000E+00
  1.00000000E+00  1.00000000E+00  1.00000000E+00  0.00000000E+00  0.00000000E+00
  1.00000000E+00  0.00000000E+00  0.00000000E+00  1.00000000E+00  0.00000000E+00
  0.00000000E+00  1.00000000E+00  0.00000000E+00  0.00000000E+00  1.00000000E+00
  0.00000000E+00  0.00000000E+00  1.00000000E+00  0.00000000E+00  0.00000000E+00
Virial Ratio                               R      2.005623384011142E+00
SCF Energy                                 R     -2.550987549410804E+02
Total Energy                               R     -2.550987549410804E+02
RMS Force                                  R      1.708206834534553E-04
RMS Density                                R      4.285173456517223E-09
External E-field                           R   N=          35
  0.00000000E+00  0.00000000E+00  0.00000000E+00  0.00000000E+00  0.00000000E+00
  0.00000000E+00  0.00000000E+00  0.00000000E+00  0.00000000E+00  0.00000000E+00
  0.00000000E+00  0.00000000E+00  0.00000000E+00  0.00000000E+00  0.00000000E+00
  0.00000000E+00  0.00000000E+00  0.00000000E+00  0.00000000E+00  0.00000000E+00
  0.00000000E+00  0.00000000E+00  0.00000000E+00  0.00000000E+00  0.00000000E+00
  0.00000000E+00  0.00000000E+00  0.00000000E+00  0.00000000E+00  0.00000000E+00
  0.00000000E+00  0.00000000E+00  0.00000000E+00  0.00000000E+00  0.00000000E+00
IOpCl                                      I                0
IROHF                                      I                0
Alpha Orbital Energies                     R   N=          75
 -2.48307636E+01 -1.04032628E+01 -1.03313700E+01 -1.03199163E+01 -1.03107953E+01
 -1.31100456E+00 -9.31643278E-01 -8.59114646E-01 -7.46914470E-01 -6.51431099E-01
 -6.15407160E-01 -5.81170945E-01 -5.48385570E-01 -5.33944026E-01 -5.05429084E-01
 -4.84227836E-01 -4.57167389E-01 -4.10840098E-01 -3.30908696E-01  1.25472522E-02
  7.28730683E-02  8.37503920E-02  9.04090599E-02  1.07419886E-01  1.15803159E-01
  1.22551359E-01  1.30312621E-01  1.45171424E-01  1.56308014E-01  1.64996634E-01
  1.76026722E-01  1.82223168E-01  1.91450356E-01  2.10989537E-01  2.16092264E-01
  2.19303610E-01  2.30113043E-01  2.48107105E-01  2.77770362E-01  2.92003072E-01
  3.20259876E-01  3.25628231E-01  3.81903276E-01  4.06240138E-01  4.21292962E-01
  4.32632960E-01  4.70333383E-01  4.86258491E-01  5.03768759E-01  5.36816103E-01
  6.87549179E-01  7.26475788E-01  7.44362084E-01  7.79161469E-01  8.04803160E-01
  8.40978161E-01  8.52674413E-01  8.84962475E-01  9.27780153E-01  1.00669030E+00
  1.03573133E+00  1.07504556E+00  1.07889494E+00  1.12368526E+00  1.15913593E+00
  1.17322948E+00  1.23821222E+00  1.32684520E+00  1.33392953E+00  1.40127335E+00
  1.47078744E+00  1.66250489E+00  1.82562810E+00  1.86002039E+00  2.37203253E+00
Alpha MO coefficients                      R   N=        5625
 -1.32011253E-06 -1.64930108E-04 -6.84070088E-05  1.28449701E-05 -5.82728770E-06
  2.39534846E-03  3.24741403E-03  2.64933914E-04  2.69546012E-04  1.30286343E-02
  1.15068502E-03 -3.07619938E-03  2.69646021E-05 -1.48271612E-05  4.96901645E-04
 -3.32771251E-04 -3.10385213E-04 -6.15657483E-05 -1.42315334E-04 -3.16214371E-03
 -4.10764926E-03 -2.40539997E-04 -2.81693343E-02 -1.21434955E-03 -3.60632276E-04
 -3.26957518E-04 -9.31594963E-06 -2.26469895E-04  2.07164294E-06 -7.47513243E-05
  3.28431328E-05  1.81008122E-03  2.16294722E-03  2.73438420E-03 -3.33017265E-04
  1.37839731E-02 -2.93393014E-03  1.78059993E-03 -9.20157893E-05  3.30918363E-06
 -5.42219972E-05  2.05031206E-04  3.08739193E-06 -1.24008083E-05 -2.78913363E-03
  5.75400437E-04  7.20671501E-04 -4.03751384E-04 -1.47025429E-03  3.16869899E-04
 -3.13824670E-04 -2.40036315E-04  2.95231094E-04  9.66170061E-04 -2.83942103E-04
 -1.80535437E-03  9.95030063E-01  2.76454703E-02  9.43124617E-04  9.07091540E-04
  1.34440796E-04 -1.56834666E-02 -1.73492726E-03 -1.61075900E-03 -2.66112828E-04
  7.90855512E-03  8.43728082E-04  7.21812929E-04  1.26863876E-04  2.44333362E-04
  7.21563005E-04  6.51372264E-06 -1.56755462E-04  7.59981134E-05  3.43018036E-04
  4.65960036E-03 -1.23446435E-03 -3.41520252E-04  7.99544473E-04  1.10737072E-05
  9.56454820E-03  2.94834506E-03 -3.61598494E-03  9.34049023E-05 -1.93383579E-03
 -1.56962037E-03  1.52465544E-03 -4.26304055E-04  9.95501718E-01  3.63545715E-02
 -9.29561828E-04 -7.50624317E-04 -8.99478879E-05 -3.66180300E-02 -6.56381445E-04
 -1.09995123E-03 -1.13248291E-04  4.21038364E-02  1.13202856E-02 -7.24252693E-03
  1.73455471E-03  1.93901578E-03 -9.25625710E-04  4.81120229E-04 -3.75847474E-04
  3.35747340E-05  7.52871532E-03 -2.46682897E-03  3.53302842E-03 -3.83772840E-04
 -1.81412315E-02  1.74188986E-02 -6.18249316E-05 -7.76447360E-04 -6.97093261E-05
 -2.78427931E-04  2.01742074E-04  4.95321942E-05  3.08378260E-05 -1.39562131E-03
  5.49221481E-04 -1.06875423E-04 -2.85709619E-04 -2.13534370E-02  3.14176120E-03
  3.14376443E-03 -8.75409707E-04 -4.10354087E-05  4.48367538E-04 -3.33203404E-04
 -1.13017781E-03  4.46057158E-05  7.69532541E-04  4.95258967E-05  7.67947802E-05
  1.10460291E-05 -1.11709605E-03 -6.09232504E-04 -7.04472074E-04 -1.00393769E-04
  7.53981166E-03  3.47540702E-03  3.80324495E-03  5.02024809E-04 -3.97119200E-05
  7.00075723E-04 -2.07722113E-05  1.80199347E-04 -2.17232713E-05  4.88304737E-04
 -4.20882369E-04 -2.97438355E-04 -6.34264592E-05  1.99973384E-04 -2.95593379E-05
 -7.02125081E-04 -2.26520148E-03 -2.36887449E-04 -2.69053549E-05  1.67637093E-02
  7.30270170E-04 -2.57042367E-03 -1.34052086E-03 -1.96121946E-03 -1.06779565E-03
 -7.69174895E-04  2.41811159E-04 -4.39240812E-05  8.48915208E-03  7.77413590E-03
  4.93966214E-04  3.01953240E-04 -3.48754313E-02 -3.08206258E-03 -7.99207115E-03
  1.95640831E-03  9.94755852E-01  3.65202953E-02 -6.18267839E-05  4.90988124E-04
 -1.36910041E-04 -3.72102373E-02  6.50777802E-04 -6.06605818E-03  1.49593051E-03
  7.49211556E-02  9.76938483E-03  1.61133660E-02 -4.86951086E-03  3.64137180E-02
 -3.82039041E-05  7.49909225E-04  3.98271224E-04 -1.40999757E-04  9.68489172E-03
 -5.50068022E-03 -6.67151309E-04  4.50344034E-04 -5.54443756E-02  1.16288669E-02
  5.05368881E-03 -2.02907313E-03 -1.48710843E-04 -5.81873538E-04  1.43007040E-04
  8.57355679E-04 -6.01537707E-06 -2.07595377E-04 -1.13417640E-04 -6.58510600E-05
 -2.11032902E-05  5.44024952E-04  3.91055874E-04  5.01688622E-04  1.26032068E-04
  2.93109840E-03  4.02600921E-04  1.20229444E-03 -2.63241179E-06 -7.56417020E-04
  2.45652890E-03 -4.59315874E-04 -6.22152014E-04 -1.30518385E-04  1.28498945E-03
 -1.18407201E-03 -3.08540350E-04 -1.85260130E-05 -4.06822013E-05  1.19991723E-05
  6.12010086E-04 -1.03173144E-03  3.75490571E-04 -1.47822631E-04 -1.64620559E-02
 -1.00865992E-03  3.38848429E-03  9.90779361E-05  1.14526863E-04 -2.10119784E-04
 -1.46350529E-04 -9.26538363E-05  2.07648249E-06  1.11125483E-04  1.20389457E-03
  8.77009312E-04  2.79071996E-04 -2.51812249E-02 -1.17439652E-02  1.04937071E-02
 -4.66949336E-04 -3.66742121E-02 -2.60580061E-03 -1.07589735E-03 -6.63345405E-04
  2.14349275E-04  1.01673699E-02  5.46769288E-03  2.71502844E-03 -1.06147301E-03
  9.69787086E-03 -1.83680430E-02  2.02550453E-03 -1.01715437E-04  9.94657732E-01
  3.54030456E-02 -4.55129381E-04 -2.12263145E-04  1.16297863E-04 -3.12955918E-02
  3.61694310E-03  2.01683457E-03 -7.45027937E-04  3.24975740E-02 -7.81823710E-03
 -5.44997236E-03  2.04418997E-03 -1.02828259E-04 -7.02797838E-04  7.45660755E-06
  1.34528403E-04 -4.65668775E-06 -7.77503004E-05 -5.07567225E-05 -4.53783338E-05
 -9.42555467E-06  2.11451189E-04  3.70620903E-04  3.28191210E-04  3.80298367E-05
  2.50370187E-03  7.76310084E-04  4.95572847E-05  1.43164044E-04 -8.67490234E-05
 -5.31997087E-05 -6.47111608E-04  3.83188801E-03 -7.08578309E-04  4.23272320E-03
  9.95292115E-01  3.56224043E-02  2.73764519E-04 -6.15472082E-04 -1.86435972E-05
 -3.30151568E-02 -1.86360837E-03  4.84271826E-03  8.45040137E-05  1.79255239E-02
  7.93869765E-04 -6.67691741E-03 -3.60270951E-04 -4.95026734E-03 -1.58775208E-03
  3.95747284E-04 -1.30621423E-03 -8.34701959E-06  9.74098191E-03 -2.14259770E-03
  8.08662800E-03  1.05250677E-04  7.04248847E-03  1.02496984E-02 -3.39418904E-03
  8.06746678E-04  3.35381080E-04 -2.73139081E-04  8.35404802E-05 -1.45718584E-04
  1.20814027E-05  1.13521900E-03 -1.59827361E-03 -2.59846741E-04 -1.70501374E-04
 -2.09004624E-02  4.78950917E-03 -3.46412007E-03 -1.36262303E-04  1.16381649E-03
 -2.57712157E-04 -4.87134503E-05 -1.94863449E-05 -8.56674824E-06  1.76135541E-03
  4.31724284E-04 -6.03610135E-04  2.72857700E-04 -3.31414366E-03  1.58684419E-03
 -1.46656075E-04  1.35353104E-04 -7.15519767E-04  4.03242105E-03 -6.16010876E-04
  4.02554806E-03 -1.89317940E-06 -1.54520130E-04 -9.48425045E-05 -1.16060736E-04
 -9.56571397E-06  2.02835995E-04  5.75749362E-04  2.54878439E-04  4.27187413E-05
  1.39958621E-03 -3.58766747E-06 -3.41483531E-04  7.39365871E-05 -1.07218160E-04
  5.64867765E-04 -3.92432746E-05  1.55830437E-04 -1.21606749E-04 -5.07276963E-04
 -9.75785479E-03  1.98689106E-02  2.07897403E-04 -1.63741246E-02 -7.20545000E-04
 -1.81931667E-02 -3.63247403E-02 -2.51129330E-03 -3.21248829E-03 -1.94741441E-01
 -1.99064717E-02  4.12367142E-02  1.11536671E-03 -5.92866688E-02  1.15853819E-01
 -6.89374911E-02 -6.74403548E-02 -8.68295130E-03  3.18989598E-02  4.22072292E-02
  4.78880739E-02  3.89719363E-03  2.77408434E-01  7.67937488E-03  5.12763559E-02
  9.17321463E-04 -8.98196216E-03  1.84871194E-02 -1.41468268E-02  1.64215378E-03
 -1.40792320E-03 -1.26530531E-02 -2.32790107E-02 -2.97694559E-02  2.73089448E-03
 -1.36049918E-01 -4.81922910E-03 -3.13831154E-02  4.29324745E-03 -8.42261102E-04
  2.79905031E-03 -3.45667416E-03 -4.74221502E-04  1.15620639E-04  2.91522089E-02
 -4.05653634E-03 -9.39749962E-03  5.01805445E-03  6.62079209E-02 -1.02813872E-02
 -2.62473647E-03  4.08672653E-03  1.04438099E-03 -1.22727256E-02  3.48751450E-03
  1.84544560E-02 -2.25580557E-01  4.77698416E-01  7.04207749E-02  6.79037201E-02
  9.46382079E-03  5.47500425E-01  5.78540680E-02  5.48476781E-02  8.04061683E-03
 -7.30368525E-03 -9.62779541E-03 -8.79874093E-03 -1.02329414E-03  1.83169033E-03
 -9.01327846E-03  7.25519382E-04  1.79507169E-03 -6.51612812E-04 -5.73564600E-03
 -8.72991559E-02  1.67512671E-01  3.67653958E-02 -6.93251357E-02 -1.96948322E-04
  1.26664283E-01  3.17095729E-03 -1.11608035E-02 -8.11057389E-04  2.29988454E-02
 -4.48990150E-04 -8.98923135E-03  1.97595415E-03 -1.21665230E-01  2.45651186E-01
  7.05456422E-02  5.30338539E-02  7.65434567E-03  1.69770701E-01  2.62291394E-02
 -1.02757628E-02  9.23629291E-04  2.90672859E-03  1.43313261E-02  2.87290671E-03
 -3.48145838E-03 -1.38048570E-01  2.69981567E-01  7.32713884E-04  6.29464687E-02
 -1.44867308E-02  1.71152660E-01  2.70482137E-03 -1.84699694E-03  1.91599404E-03
 -1.01899119E-01 -9.77443117E-03 -2.75866580E-02  8.00143682E-03 -9.84808095E-02
  1.88841785E-01 -7.68621788E-02 -3.10405713E-02  1.31455400E-02  1.33940178E-01
 -1.14444222E-02  4.96766650E-03 -9.47678942E-05  7.46263209E-02 -1.77163301E-02
 -3.59465225E-03  1.78209799E-03  3.60166430E-02  2.49726897E-03  4.58262021E-02
  1.11734934E-02  4.56879899E-02 -1.03075184E-01  4.31665301E-02  3.67567723E-02
  5.31862385E-03 -1.27600861E-01  1.84083229E-02  1.85797307E-02  2.31555030E-03
 -1.83029621E-02 -8.23178571E-03 -3.84822739E-03 -3.06332213E-04  6.32477361E-02
  5.13272671E-03  4.87072142E-02  5.49393626E-03  4.38123946E-02  9.47938538E-03
 -1.40647260E-01  2.72228117E-01  1.76246837E-02 -8.23654834E-02 -1.58663726E-03
  2.26341497E-01  2.63739201E-03 -3.86150711E-03 -7.10137372E-04 -1.49637516E-01
 -6.95157249E-03  3.26596757E-02  8.55116900E-04 -8.62379380E-02  1.79589541E-01
 -8.48309561E-02  1.54168493E-01  2.07507887E-03  1.19273595E-01 -2.03180342E-02
  2.34417434E-03  1.99740330E-03 -3.67781878E-02 -6.02388814E-02  7.99738709E-02
 -1.09473903E-03  8.86345531E-02 -1.75499663E-01 -1.06421612E-01 -9.88538573E-03
  1.21326618E-02 -1.23360458E-01 -2.51199954E-03  2.54592613E-02 -4.37100954E-03
  7.69991325E-02 -9.12646252E-02  2.70642290E-03 -3.06513278E-03  1.14494418E-01
 -2.22135196E-01  5.11271353E-02  4.17833195E-02 -1.31719600E-02 -1.97267205E-01
  6.43456728E-03  8.48218710E-04 -7.51439664E-04  1.08610100E-01 -1.77062428E-02
 -1.74773597E-02  8.43687308E-03  8.12205215E-02  1.51196143E-02  7.69692431E-02
  1.14893131E-02  2.96354233E-02 -6.71509131E-02  1.66683452E-02  6.77356796E-02
  4.78599828E-03 -8.90830180E-02  7.25468000E-03  3.36078389E-02  2.25236689E-03
 -2.02440381E-02 -5.32641507E-03 -3.42450499E-03 -2.07997594E-03 -5.49767808E-02
 -9.68639054E-04 -5.95906623E-02 -5.38418105E-03 -6.86997869E-02 -1.38425805E-02
 -8.45276180E-02  1.63930864E-01 -2.49801779E-02  3.38651065E-02 -3.26845902E-03
  1.46062748E-01 -3.92038031E-03  1.32669824E-02 -1.42532120E-03  9.15371270E-02
  8.06807566E-03 -1.24685250E-02 -3.28315790E-03  7.26997580E-02 -1.56482468E-01
 -1.28297553E-01  1.78764212E-01 -1.26089980E-02 -1.47379650E-01 -3.49587234E-02
  4.75805615E-02 -3.35991578E-03 -9.75537967E-03  1.18835316E-02 -6.06905318E-02
  6.34123740E-03  7.06654006E-02 -1.44987026E-01  2.11244910E-01  4.95505663E-02
 -1.94884081E-02 -1.26763479E-01  4.62840055E-02  2.90473809E-02 -8.41776330E-03
  1.18693679E-01  9.23228719E-02  3.69892283E-02 -1.06669138E-02 -1.18364786E-01
  2.34913167E-01  5.45912935E-02  1.89526107E-02 -6.05249764E-03  2.09160013E-01
  2.28804929E-02  8.11211975E-03 -1.97749832E-03 -1.96043364E-01  3.52139034E-02
  2.47371590E-02 -9.81487023E-03  8.14786820E-02  3.14521273E-02  7.37946869E-02
  2.92083039E-02 -3.46033973E-02  7.98737940E-02 -1.49095595E-01 -3.22088754E-02
 -1.84239373E-02  1.04354982E-01 -8.15746822E-02 -1.46181413E-02 -1.00163879E-02
  3.17740321E-02  4.58248487E-03  7.69884699E-03  2.61730750E-04 -7.80236838E-02
 -2.05320772E-02  1.06449275E-01  4.23880556E-02  1.10964543E-01  3.99034075E-02
 -6.39801126E-02  1.25739968E-01  1.39669149E-02  1.80360162E-01  1.56320684E-02
  1.65103349E-01  2.42613633E-02  5.40531334E-02  7.38276005E-03  2.78722226E-01
  1.96487963E-02 -4.46104968E-02 -5.96238515E-04  7.55264535E-02 -1.68577624E-01
  1.53951892E-01  4.81088602E-02  2.74723359E-02 -1.68418623E-01  2.81448701E-02
  2.66685288E-03  6.37097591E-03 -2.02213518E-01  2.82492076E-02 -1.28544156E-01
 -7.68226536E-04 -7.41865072E-02  1.50031190E-01  3.43638732E-02 -8.18488141E-02
  3.07347770E-02  1.58213378E-01  1.85608931E-03 -3.38958321E-02  1.51502637E-02
 -5.19548647E-02  4.87769480E-02  1.92247505E-02  5.74779065E-03  5.70009704E-02
 -1.16195179E-01 -1.17227097E-01 -1.01507618E-01  3.88919772E-02 -1.29602832E-01
 -4.57479653E-02 -2.63220491E-02  1.10466913E-02 -2.26990217E-02 -1.37799618E-02
  1.15001819E-04 -3.81675711E-03  7.94926540E-02  4.07805773E-02  1.30727034E-01
  5.36797030E-02 -4.37714870E-02  1.03392455E-01 -1.92903651E-01 -2.64667673E-01
 -1.99713920E-02  1.25672663E-01 -1.12119590E-01 -1.57991352E-01 -1.14280613E-02
  5.48649500E-02  3.18839894E-03  5.05261584E-03  6.39620054E-04  1.14266809E-01
  4.81019374E-02 -1.07548752E-01 -5.34401028E-02 -8.12788329E-02 -3.26243195E-02