 Entering Gaussian System, Link 0=/opt/cluster/programs/g09_d.01/g09//g09
 Input=/home/unibas/boittier/RDKit_G2/B.pdb/SCAN_1_2_3_4_S_17_20.0/16_SCAN_1_2_3_4_F/16_SCAN_B.pdb.com
 Output=/scratch/boittier/16_SCAN_B.pdb/16_SCAN_B.pdb.out
 Initial command:
 /opt/cluster/programs/g09_d.01/g09/l1.exe "/scratch/boittier/16_SCAN_B.pdb/Gau-187765.inp" -scrdir="/scratch/boittier/16_SCAN_B.pdb/"
 Entering Link 1 = /opt/cluster/programs/g09_d.01/g09/l1.exe PID=    187767.
  
 Copyright (c) 1988,1990,1992,1993,1995,1998,2003,2009,2013,
            Gaussian, Inc.  All Rights Reserved.
  
 This is part of the Gaussian(R) 09 program.  It is based on
 the Gaussian(R) 03 system (copyright 2003, Gaussian, Inc.),
 the Gaussian(R) 98 system (copyright 1998, Gaussian, Inc.),
 the Gaussian(R) 94 system (copyright 1995, Gaussian, Inc.),
 the Gaussian 92(TM) system (copyright 1992, Gaussian, Inc.),
 the Gaussian 90(TM) system (copyright 1990, Gaussian, Inc.),
 the Gaussian 88(TM) system (copyright 1988, Gaussian, Inc.),
 the Gaussian 86(TM) system (copyright 1986, Carnegie Mellon
 University), and the Gaussian 82(TM) system (copyright 1983,
 Carnegie Mellon University). Gaussian is a federally registered
 trademark of Gaussian, Inc.
  
 This software contains proprietary and confidential information,
 including trade secrets, belonging to Gaussian, Inc.
  
 This software is provided under written license and may be
 used, copied, transmitted, or stored only in accord with that
 written license.
  
 The following legend is applicable only to US Government
 contracts under FAR:
  
                    RESTRICTED RIGHTS LEGEND
  
 Use, reproduction and disclosure by the US Government is
 subject to restrictions as set forth in subparagraphs (a)
 and (c) of the Commercial Computer Software - Restricted
 Rights clause in FAR 52.227-19.
  
 Gaussian, Inc.
 340 Quinnipiac St., Bldg. 40, Wallingford CT 06492
  
  
 ---------------------------------------------------------------
 Warning -- This program may not be used in any manner that
 competes with the business of Gaussian, Inc. or will provide
 assistance to any competitor of Gaussian, Inc.  The licensee
 of this program is prohibited from giving any competitor of
 Gaussian, Inc. access to this program.  By using this program,
 the user acknowledges that Gaussian, Inc. is engaged in the
 business of creating and licensing software in the field of
 computational chemistry and represents and warrants to the
 licensee that it is not a competitor of Gaussian, Inc. and that
 it will not use this program in any manner prohibited above.
 ---------------------------------------------------------------
  

 Cite this work as:
 Gaussian 09, Revision D.01,
 M. J. Frisch, G. W. Trucks, H. B. Schlegel, G. E. Scuseria, 
 M. A. Robb, J. R. Cheeseman, G. Scalmani, V. Barone, B. Mennucci, 
 G. A. Petersson, H. Nakatsuji, M. Caricato, X. Li, H. P. Hratchian, 
 A. F. Izmaylov, J. Bloino, G. Zheng, J. L. Sonnenberg, M. Hada, 
 M. Ehara, K. Toyota, R. Fukuda, J. Hasegawa, M. Ishida, T. Nakajima, 
 Y. Honda, O. Kitao, H. Nakai, T. Vreven, J. A. Montgomery, Jr., 
 J. E. Peralta, F. Ogliaro, M. Bearpark, J. J. Heyd, E. Brothers, 
 K. N. Kudin, V. N. Staroverov, T. Keith, R. Kobayashi, J. Normand, 
 K. Raghavachari, A. Rendell, J. C. Burant, S. S. Iyengar, J. Tomasi, 
 M. Cossi, N. Rega, J. M. Millam, M. Klene, J. E. Knox, J. B. Cross, 
 V. Bakken, C. Adamo, J. Jaramillo, R. Gomperts, R. E. Stratmann, 
 O. Yazyev, A. J. Austin, R. Cammi, C. Pomelli, J. W. Ochterski, 
 R. L. Martin, K. Morokuma, V. G. Zakrzewski, G. A. Voth, 
 P. Salvador, J. J. Dannenberg, S. Dapprich, A. D. Daniels, 
 O. Farkas, J. B. Foresman, J. V. Ortiz, J. Cioslowski, 
 and D. J. Fox, Gaussian, Inc., Wallingford CT, 2013.
 
 ******************************************
 Gaussian 09:  ES64L-G09RevD.01 24-Apr-2013
                12-May-2021 
 ******************************************
 %chk=/home/unibas/boittier/RDKit_G2/B.pdb/SCAN_1_2_3_4_S_17_20.0/16_SCAN_1_2_3_4
 _F/B.pdb.chk
 %nproc=8
 Will use up to    8 processors via shared memory.
 %mem=16GB
 -----------------------------
 #p wB97XD/6-31+G Opt=ModRedun
 -----------------------------
 1/14=-1,18=120,19=15,26=3,38=1/1,3;
 2/9=110,12=2,17=6,18=5,40=1/2;
 3/5=1,6=6,7=10,11=2,16=1,25=1,30=1,71=1,74=-58/1,2,3;
 4//1;
 5/5=2,38=5/2;
 6/7=2,8=2,9=2,10=2,28=1/1;
 7//1,2,3,16;
 1/14=-1,18=20,19=15,26=3/3(2);
 2/9=110/2;
 99//99;
 2/9=110/2;
 3/5=1,6=6,7=10,11=2,16=1,25=1,30=1,71=1,74=-58/1,2,3;
 4/5=5,16=3,69=1/1;
 5/5=2,38=5/2;
 7//1,2,3,16;
 1/14=-1,18=20,19=15,26=3/3(-5);
 2/9=110/2;
 6/7=2,8=2,9=2,10=2,19=2,28=1/1;
 99/9=1/99;
 Leave Link    1 at Wed May 12 11:56:05 2021, MaxMem=  2147483648 cpu:         0.2
 (Enter /opt/cluster/programs/g09_d.01/g09/l101.exe)
 -----
 B.pdb
 -----
 Symbolic Z-matrix:
 Charge =  0 Multiplicity = 1
 C                    -1.65509  -0.73663  -0.18255 
 C                    -0.5201   -0.09107   0.10003 
 C                     0.83396  -0.62399   0.24707 
 C                     1.94392  -0.0188   -0.20951 
 H                    -2.58167  -0.20109  -0.3471 
 H                    -1.67021  -1.81899  -0.23423 
 F                    -0.56495   1.33307   0.10786 
 H                     0.89033  -1.63014   0.65811 
 H                     1.9158    0.97307  -0.64927 
 H                     2.9142   -0.49753  -0.12846 
 
 The following ModRedundant input section has been read:
 D       1       2       3       4 F                                           
 
 NAtoms=     10 NQM=       10 NQMF=       0 NMMI=      0 NMMIF=      0
                NMic=       0 NMicF=      0.
                    Isotopes and Nuclear Properties:
 (Nuclear quadrupole moments (NQMom) in fm**2, nuclear magnetic moments (NMagM)
  in nuclear magnetons)

  Atom         1           2           3           4           5           6           7           8           9          10
 IAtWgt=          12          12          12          12           1           1          19           1           1           1
 AtmWgt=  12.0000000  12.0000000  12.0000000  12.0000000   1.0078250   1.0078250  18.9984033   1.0078250   1.0078250   1.0078250
 NucSpn=           0           0           0           0           1           1           1           1           1           1
 AtZEff=   0.0000000   0.0000000   0.0000000   0.0000000   0.0000000   0.0000000   0.0000000   0.0000000   0.0000000   0.0000000
 NQMom=    0.0000000   0.0000000   0.0000000   0.0000000   0.0000000   0.0000000   0.0000000   0.0000000   0.0000000   0.0000000
 NMagM=    0.0000000   0.0000000   0.0000000   0.0000000   2.7928460   2.7928460   2.6288670   2.7928460   2.7928460   2.7928460
 AtZNuc=   6.0000000   6.0000000   6.0000000   6.0000000   1.0000000   1.0000000   9.0000000   1.0000000   1.0000000   1.0000000
 Leave Link  101 at Wed May 12 11:56:05 2021, MaxMem=  2147483648 cpu:         4.2
 (Enter /opt/cluster/programs/g09_d.01/g09/l103.exe)

 GradGradGradGradGradGradGradGradGradGradGradGradGradGradGradGradGradGrad
 Berny optimization.
 Initialization pass.
                           ----------------------------
                           !    Initial Parameters    !
                           ! (Angstroms and Degrees)  !
 --------------------------                            --------------------------
 ! Name  Definition              Value          Derivative Info.                !
 --------------------------------------------------------------------------------
 ! R1    R(1,2)                  1.336          estimate D2E/DX2                !
 ! R2    R(1,5)                  1.0828         estimate D2E/DX2                !
 ! R3    R(1,6)                  1.0837         estimate D2E/DX2                !
 ! R4    R(2,3)                  1.4626         estimate D2E/DX2                !
 ! R5    R(2,7)                  1.4249         estimate D2E/DX2                !
 ! R6    R(3,4)                  1.3441         estimate D2E/DX2                !
 ! R7    R(3,8)                  1.0883         estimate D2E/DX2                !
 ! R8    R(4,9)                  1.0854         estimate D2E/DX2                !
 ! R9    R(4,10)                 1.085          estimate D2E/DX2                !
 ! A1    A(2,1,5)              121.3428         estimate D2E/DX2                !
 ! A2    A(2,1,6)              120.3018         estimate D2E/DX2                !
 ! A3    A(5,1,6)              118.346          estimate D2E/DX2                !
 ! A4    A(1,2,3)              129.1783         estimate D2E/DX2                !
 ! A5    A(1,2,7)              117.2186         estimate D2E/DX2                !
 ! A6    A(3,2,7)              113.1272         estimate D2E/DX2                !
 ! A7    A(2,3,4)              124.4932         estimate D2E/DX2                !
 ! A8    A(2,3,8)              115.0103         estimate D2E/DX2                !
 ! A9    A(4,3,8)              120.1163         estimate D2E/DX2                !
 ! A10   A(3,4,9)              121.8502         estimate D2E/DX2                !
 ! A11   A(3,4,10)             120.9601         estimate D2E/DX2                !
 ! A12   A(9,4,10)             117.1717         estimate D2E/DX2                !
 ! D1    D(5,1,2,3)           -174.6164         estimate D2E/DX2                !
 ! D2    D(5,1,2,7)             -3.1465         estimate D2E/DX2                !
 ! D3    D(6,1,2,3)              6.5152         estimate D2E/DX2                !
 ! D4    D(6,1,2,7)            177.9851         estimate D2E/DX2                !
 ! D5    D(1,2,3,4)            140.0111         Frozen                          !
 ! D6    D(1,2,3,8)            -32.8869         estimate D2E/DX2                !
 ! D7    D(7,2,3,4)            -31.7425         estimate D2E/DX2                !
 ! D8    D(7,2,3,8)            155.3595         estimate D2E/DX2                !
 ! D9    D(2,3,4,9)              5.7728         estimate D2E/DX2                !
 ! D10   D(2,3,4,10)          -175.8157         estimate D2E/DX2                !
 ! D11   D(8,3,4,9)            178.3305         estimate D2E/DX2                !
 ! D12   D(8,3,4,10)            -3.2581         estimate D2E/DX2                !
 --------------------------------------------------------------------------------
 Trust Radius=3.00D-01 FncErr=1.00D-07 GrdErr=1.00D-06
 Number of steps in this run=     43 maximum allowed number of steps=    100.
 GradGradGradGradGradGradGradGradGradGradGradGradGradGradGradGradGradGrad

 Leave Link  103 at Wed May 12 11:56:05 2021, MaxMem=  2147483648 cpu:         0.1
 (Enter /opt/cluster/programs/g09_d.01/g09/l202.exe)
                          Input orientation:                          
 ---------------------------------------------------------------------
 Center     Atomic      Atomic             Coordinates (Angstroms)
 Number     Number       Type             X           Y           Z
 ---------------------------------------------------------------------
      1          6           0       -1.655093   -0.736629   -0.182553
      2          6           0       -0.520098   -0.091073    0.100032
      3          6           0        0.833955   -0.623987    0.247069
      4          6           0        1.943915   -0.018800   -0.209507
      5          1           0       -2.581670   -0.201093   -0.347104
      6          1           0       -1.670213   -1.818993   -0.234229
      7          9           0       -0.564946    1.333069    0.107856
      8          1           0        0.890328   -1.630143    0.658110
      9          1           0        1.915800    0.973071   -0.649269
     10          1           0        2.914200   -0.497530   -0.128459
 ---------------------------------------------------------------------
                    Distance matrix (angstroms):
                    1          2          3          4          5
     1  C    0.000000
     2  C    1.335968   0.000000
     3  C    2.528364   1.462558   0.000000
     4  C    3.669995   2.484431   1.344144   0.000000
     5  H    1.082784   2.112372   3.492617   4.531345   0.000000
     6  H    1.083702   2.102428   2.816122   4.037726   1.860402
     7  F    2.357203   1.424869   2.409642   2.867517   2.574455
     8  H    2.825641   2.160900   1.088339   2.111689   3.886825
     9  H    3.986499   2.761784   2.127065   1.085352   4.658025
    10  H    4.575864   3.465807   2.117648   1.084990   5.508200
                    6          7          8          9         10
     6  H    0.000000
     7  F    3.357697   0.000000
     8  H    2.718143   3.346823   0.000000
     9  H    4.563701   2.618575   3.088293   0.000000
    10  H    4.772242   3.938451   2.448992   1.852218   0.000000
 Stoichiometry    C4H5F
 Framework group  C1[X(C4H5F)]
 Deg. of freedom    24
 Full point group                 C1      NOp   1
 Largest Abelian subgroup         C1      NOp   1
 Largest concise Abelian subgroup C1      NOp   1
                         Standard orientation:                         
 ---------------------------------------------------------------------
 Center     Atomic      Atomic             Coordinates (Angstroms)
 Number     Number       Type             X           Y           Z
 ---------------------------------------------------------------------
      1          6           0        1.655093   -0.736629    0.182553
      2          6           0        0.520098   -0.091073   -0.100032
      3          6           0       -0.833955   -0.623987   -0.247069
      4          6           0       -1.943915   -0.018800    0.209507
      5          1           0        2.581670   -0.201093    0.347104
      6          1           0        1.670213   -1.818993    0.234229
      7          9           0        0.564946    1.333069   -0.107856
      8          1           0       -0.890328   -1.630143   -0.658110
      9          1           0       -1.915800    0.973071    0.649269
     10          1           0       -2.914200   -0.497530    0.128459
 ---------------------------------------------------------------------
 Rotational constants (GHZ):      9.2011493      4.1572863      2.9647812
 Leave Link  202 at Wed May 12 11:56:05 2021, MaxMem=  2147483648 cpu:         0.0
 (Enter /opt/cluster/programs/g09_d.01/g09/l301.exe)
 Standard basis: 6-31+G (6D, 7F)
 Ernie: Thresh=  0.10000D-02 Tol=  0.10000D-05 Strict=F.
 There are    75 symmetry adapted cartesian basis functions of A   symmetry.
 There are    75 symmetry adapted basis functions of A   symmetry.
    75 basis functions,   150 primitive gaussians,    75 cartesian basis functions
    19 alpha electrons       19 beta electrons
       nuclear repulsion energy       157.1099574099 Hartrees.
 IExCor= 4639 DFT=T Ex+Corr=wB97XD ExCW=0 ScaHFX=  1.000000
 ScaDFX=  1.000000  1.000000  1.000000  1.000000 ScalE2=  1.000000  1.000000
 IRadAn=      0 IRanWt=     -1 IRanGd=            0 ICorTp=0 IEmpDi=121
  HFx wShort=  0.000000 wLong=  0.200000 cFull=  0.222036 cShort=  0.000000 cLong=  0.777964
  DFx wShort=  0.000000 wLong=  0.200000 cFull=  0.000000 cShort=  0.000000 cLong=  1.000000
 NAtoms=   10 NActive=   10 NUniq=   10 SFac= 1.00D+00 NAtFMM=   60 NAOKFM=F Big=F
 Integral buffers will be    131072 words long.
 Raffenetti 2 integral format.
 Two-electron integral symmetry is turned on.
 R6Disp:  Grimme-D2 Dispersion energy=       -0.0029678488 Hartrees.
 Nuclear repulsion after empirical dispersion term =      157.1069895611 Hartrees.
 Leave Link  301 at Wed May 12 11:56:05 2021, MaxMem=  2147483648 cpu:         0.3
 (Enter /opt/cluster/programs/g09_d.01/g09/l302.exe)
 NPDir=0 NMtPBC=     1 NCelOv=     1 NCel=       1 NClECP=     1 NCelD=      1
         NCelK=      1 NCelE2=     1 NClLst=     1 CellRange=     0.0.
 One-electron integrals computed using PRISM.
 NBasis=    75 RedAO= T EigKep=  6.77D-05  NBF=    75
 NBsUse=    75 1.00D-06 EigRej= -1.00D+00 NBFU=    75
 Precomputing XC quadrature grid using
 IXCGrd= 4 IRadAn=           0 IRanWt=          -1 IRanGd=           0 AccXCQ= 0.00D+00.
 Generated NRdTot=       0 NPtTot=           0 NUsed=           0 NTot=          32
 NSgBfM=    75    75    75    75    75 MxSgAt=    10 MxSgA2=    10.
 Leave Link  302 at Wed May 12 11:56:06 2021, MaxMem=  2147483648 cpu:         0.8
 (Enter /opt/cluster/programs/g09_d.01/g09/l303.exe)
 DipDrv:  MaxL=1.
 Leave Link  303 at Wed May 12 11:56:06 2021, MaxMem=  2147483648 cpu:         0.2
 (Enter /opt/cluster/programs/g09_d.01/g09/l401.exe)
 ExpMin= 4.38D-02 ExpMax= 7.00D+03 ExpMxC= 1.05D+03 IAcc=2 IRadAn=         4 AccDes= 0.00D+00
 Harris functional with IExCor= 4639 and IRadAn=       4 diagonalized for initial guess.
 HarFok:  IExCor= 4639 AccDes= 0.00D+00 IRadAn=         4 IDoV= 1 UseB2=F ITyADJ=14
 ICtDFT=  3500011 ScaDFX=  1.000000  1.000000  1.000000  1.000000
 FoFCou: FMM=F IPFlag=           0 FMFlag=      100000 FMFlg1=           0
         NFxFlg=           0 DoJE=T BraDBF=F KetDBF=T FulRan=T
         wScrn=  0.000000 ICntrl=     500 IOpCl=  0 I1Cent=   200000004 NGrid=           0
         NMat0=    1 NMatS0=      1 NMatT0=    0 NMatD0=    1 NMtDS0=    0 NMtDT0=    0
 Petite list used in FoFCou.
 Harris En= -244.786116690585    
 JPrj=0 DoOrth=F DoCkMO=F.
 Leave Link  401 at Wed May 12 11:56:06 2021, MaxMem=  2147483648 cpu:         1.3
 (Enter /opt/cluster/programs/g09_d.01/g09/l502.exe)
 Closed shell SCF:
 Using DIIS extrapolation, IDIIS=  1040.
 Integral symmetry usage will be decided dynamically.
 Keep R1 ints in memory in canonical form, NReq=9056162.
 IVT=       36600 IEndB=       36600 NGot=  2147483648 MDV=  2139321699
 LenX=  2139321699 LenY=  2139315633
 Requested convergence on RMS density matrix=1.00D-08 within 128 cycles.
 Requested convergence on MAX density matrix=1.00D-06.
 Requested convergence on             energy=1.00D-06.
 No special actions if energy rises.
 FoFCou: FMM=F IPFlag=           0 FMFlag=           0 FMFlg1=           0
         NFxFlg=           0 DoJE=F BraDBF=F KetDBF=F FulRan=T
         wScrn=  0.000000 ICntrl=     600 IOpCl=  0 I1Cent=           0 NGrid=           0
         NMat0=    1 NMatS0=   2850 NMatT0=    0 NMatD0=    1 NMtDS0=    0 NMtDT0=    0
 Symmetry not used in FoFCou.

 Cycle   1  Pass 1  IDiag  1:
 E= -254.932785009465    
 DIIS: error= 5.33D-02 at cycle   1 NSaved=   1.
 NSaved= 1 IEnMin= 1 EnMin= -254.932785009465     IErMin= 1 ErrMin= 5.33D-02
 ErrMax= 5.33D-02  0.00D+00 EMaxC= 1.00D-01 BMatC= 2.58D-01 BMatP= 2.58D-01
 IDIUse=3 WtCom= 4.67D-01 WtEn= 5.33D-01
 Coeff-Com:  0.100D+01
 Coeff-En:   0.100D+01
 Coeff:      0.100D+01
 Gap=     0.431 Goal=   None    Shift=    0.000
 GapD=    0.431 DampG=2.000 DampE=0.500 DampFc=1.0000 IDamp=-1.
 RMSDP=2.26D-02 MaxDP=6.02D-01              OVMax= 1.70D-01

 Cycle   2  Pass 1  IDiag  1:
 E= -254.893015796344     Delta-E=        0.039769213121 Rises=F Damp=F
 DIIS: error= 5.22D-02 at cycle   2 NSaved=   2.
 NSaved= 2 IEnMin= 1 EnMin= -254.932785009465     IErMin= 2 ErrMin= 5.22D-02
 ErrMax= 5.22D-02  0.00D+00 EMaxC= 1.00D-01 BMatC= 2.99D-01 BMatP= 2.58D-01
 IDIUse=2 WtCom= 0.00D+00 WtEn= 1.00D+00
 Coeff-En:   0.552D+00 0.448D+00
 Coeff:      0.552D+00 0.448D+00
 Gap=     0.400 Goal=   None    Shift=    0.000
 RMSDP=7.46D-03 MaxDP=1.12D-01 DE= 3.98D-02 OVMax= 9.31D-02

 Cycle   3  Pass 1  IDiag  1:
 E= -255.096656524578     Delta-E=       -0.203640728233 Rises=F Damp=F
 DIIS: error= 2.46D-03 at cycle   3 NSaved=   3.
 NSaved= 3 IEnMin= 3 EnMin= -255.096656524578     IErMin= 3 ErrMin= 2.46D-03
 ErrMax= 2.46D-03  0.00D+00 EMaxC= 1.00D-01 BMatC= 7.37D-04 BMatP= 2.58D-01
 IDIUse=3 WtCom= 9.75D-01 WtEn= 2.46D-02
 Coeff-Com: -0.351D-02-0.439D-01 0.105D+01
 Coeff-En:   0.000D+00 0.000D+00 0.100D+01
 Coeff:     -0.342D-02-0.428D-01 0.105D+01
 Gap=     0.348 Goal=   None    Shift=    0.000
 RMSDP=2.53D-03 MaxDP=5.50D-02 DE=-2.04D-01 OVMax= 1.19D-02

 Cycle   4  Pass 1  IDiag  1:
 E= -255.097267717668     Delta-E=       -0.000611193091 Rises=F Damp=F
 DIIS: error= 1.15D-03 at cycle   4 NSaved=   4.
 NSaved= 4 IEnMin= 4 EnMin= -255.097267717668     IErMin= 4 ErrMin= 1.15D-03
 ErrMax= 1.15D-03  0.00D+00 EMaxC= 1.00D-01 BMatC= 1.84D-04 BMatP= 7.37D-04
 IDIUse=3 WtCom= 9.88D-01 WtEn= 1.15D-02
 Coeff-Com: -0.867D-02-0.292D-01 0.457D+00 0.581D+00
 Coeff-En:   0.000D+00 0.000D+00 0.000D+00 0.100D+01
 Coeff:     -0.857D-02-0.289D-01 0.452D+00 0.586D+00
 Gap=     0.349 Goal=   None    Shift=    0.000
 RMSDP=4.18D-04 MaxDP=8.59D-03 DE=-6.11D-04 OVMax= 5.83D-03

 Cycle   5  Pass 1  IDiag  1:
 E= -255.097472207078     Delta-E=       -0.000204489409 Rises=F Damp=F
 DIIS: error= 3.14D-04 at cycle   5 NSaved=   5.
 NSaved= 5 IEnMin= 5 EnMin= -255.097472207078     IErMin= 5 ErrMin= 3.14D-04
 ErrMax= 3.14D-04  0.00D+00 EMaxC= 1.00D-01 BMatC= 6.99D-06 BMatP= 1.84D-04
 IDIUse=3 WtCom= 9.97D-01 WtEn= 3.14D-03
 Coeff-Com: -0.142D-02-0.288D-02-0.279D-01 0.573D-01 0.975D+00
 Coeff-En:   0.000D+00 0.000D+00 0.000D+00 0.000D+00 0.100D+01
 Coeff:     -0.141D-02-0.287D-02-0.278D-01 0.572D-01 0.975D+00
 Gap=     0.348 Goal=   None    Shift=    0.000
 RMSDP=3.08D-04 MaxDP=7.49D-03 DE=-2.04D-04 OVMax= 1.99D-03

 Cycle   6  Pass 1  IDiag  1:
 E= -255.097484093606     Delta-E=       -0.000011886528 Rises=F Damp=F
 DIIS: error= 2.12D-04 at cycle   6 NSaved=   6.
 NSaved= 6 IEnMin= 6 EnMin= -255.097484093606     IErMin= 6 ErrMin= 2.12D-04
 ErrMax= 2.12D-04  0.00D+00 EMaxC= 1.00D-01 BMatC= 2.20D-06 BMatP= 6.99D-06
 IDIUse=3 WtCom= 9.98D-01 WtEn= 2.12D-03
 Coeff-Com:  0.674D-03 0.273D-02-0.826D-01-0.657D-01 0.456D+00 0.689D+00
 Coeff-En:   0.000D+00 0.000D+00 0.000D+00 0.000D+00 0.000D+00 0.100D+01
 Coeff:      0.673D-03 0.272D-02-0.824D-01-0.656D-01 0.455D+00 0.690D+00
 Gap=     0.349 Goal=   None    Shift=    0.000
 RMSDP=8.29D-05 MaxDP=1.73D-03 DE=-1.19D-05 OVMax= 7.08D-04

 Cycle   7  Pass 1  IDiag  1:
 E= -255.097486933181     Delta-E=       -0.000002839575 Rises=F Damp=F
 DIIS: error= 2.42D-05 at cycle   7 NSaved=   7.
 NSaved= 7 IEnMin= 7 EnMin= -255.097486933181     IErMin= 7 ErrMin= 2.42D-05
 ErrMax= 2.42D-05  0.00D+00 EMaxC= 1.00D-01 BMatC= 3.60D-08 BMatP= 2.20D-06
 IDIUse=1 WtCom= 1.00D+00 WtEn= 0.00D+00
 Coeff-Com:  0.130D-03 0.190D-03-0.103D-02-0.564D-02-0.345D-01 0.158D-01
 Coeff-Com:  0.103D+01
 Coeff:      0.130D-03 0.190D-03-0.103D-02-0.564D-02-0.345D-01 0.158D-01
 Coeff:      0.103D+01
 Gap=     0.349 Goal=   None    Shift=    0.000
 RMSDP=1.58D-05 MaxDP=2.23D-04 DE=-2.84D-06 OVMax= 1.34D-04

 Cycle   8  Pass 1  IDiag  1:
 E= -255.097486999986     Delta-E=       -0.000000066805 Rises=F Damp=F
 DIIS: error= 1.24D-05 at cycle   8 NSaved=   8.
 NSaved= 8 IEnMin= 8 EnMin= -255.097486999986     IErMin= 8 ErrMin= 1.24D-05
 ErrMax= 1.24D-05  0.00D+00 EMaxC= 1.00D-01 BMatC= 1.61D-08 BMatP= 3.60D-08
 IDIUse=1 WtCom= 1.00D+00 WtEn= 0.00D+00
 Coeff-Com: -0.211D-04-0.237D-03 0.813D-02 0.440D-02-0.568D-01-0.629D-01
 Coeff-Com:  0.489D+00 0.618D+00
 Coeff:     -0.211D-04-0.237D-03 0.813D-02 0.440D-02-0.568D-01-0.629D-01
 Coeff:      0.489D+00 0.618D+00
 Gap=     0.349 Goal=   None    Shift=    0.000
 RMSDP=7.44D-06 MaxDP=1.63D-04 DE=-6.68D-08 OVMax= 7.62D-05

 Cycle   9  Pass 1  IDiag  1:
 E= -255.097487019187     Delta-E=       -0.000000019201 Rises=F Damp=F
 DIIS: error= 4.10D-06 at cycle   9 NSaved=   9.
 NSaved= 9 IEnMin= 9 EnMin= -255.097487019187     IErMin= 9 ErrMin= 4.10D-06
 ErrMax= 4.10D-06  0.00D+00 EMaxC= 1.00D-01 BMatC= 8.72D-10 BMatP= 1.61D-08
 IDIUse=1 WtCom= 1.00D+00 WtEn= 0.00D+00
 Coeff-Com: -0.116D-04-0.495D-04 0.155D-02 0.914D-03-0.690D-02-0.173D-01
 Coeff-Com: -0.178D-01 0.148D+00 0.892D+00
 Coeff:     -0.116D-04-0.495D-04 0.155D-02 0.914D-03-0.690D-02-0.173D-01
 Coeff:     -0.178D-01 0.148D+00 0.892D+00
 Gap=     0.349 Goal=   None    Shift=    0.000
 RMSDP=2.52D-06 MaxDP=4.10D-05 DE=-1.92D-08 OVMax= 1.70D-05

 Cycle  10  Pass 1  IDiag  1:
 E= -255.097487020355     Delta-E=       -0.000000001169 Rises=F Damp=F
 DIIS: error= 5.49D-07 at cycle  10 NSaved=  10.
 NSaved=10 IEnMin=10 EnMin= -255.097487020355     IErMin=10 ErrMin= 5.49D-07
 ErrMax= 5.49D-07  0.00D+00 EMaxC= 1.00D-01 BMatC= 4.91D-11 BMatP= 8.72D-10
 IDIUse=1 WtCom= 1.00D+00 WtEn= 0.00D+00
 Coeff-Com:  0.158D-05 0.159D-04-0.443D-03-0.319D-03 0.411D-02 0.114D-02
 Coeff-Com: -0.500D-01-0.309D-02 0.223D+00 0.826D+00
 Coeff:      0.158D-05 0.159D-04-0.443D-03-0.319D-03 0.411D-02 0.114D-02
 Coeff:     -0.500D-01-0.309D-02 0.223D+00 0.826D+00
 Gap=     0.349 Goal=   None    Shift=    0.000
 RMSDP=5.88D-07 MaxDP=7.67D-06 DE=-1.17D-09 OVMax= 5.40D-06

 Cycle  11  Pass 1  IDiag  1:
 E= -255.097487020442     Delta-E=       -0.000000000087 Rises=F Damp=F
 DIIS: error= 1.36D-07 at cycle  11 NSaved=  11.
 NSaved=11 IEnMin=11 EnMin= -255.097487020442     IErMin=11 ErrMin= 1.36D-07
 ErrMax= 1.36D-07  0.00D+00 EMaxC= 1.00D-01 BMatC= 1.60D-12 BMatP= 4.91D-11
 IDIUse=1 WtCom= 1.00D+00 WtEn= 0.00D+00
 Coeff-Com:  0.510D-06 0.111D-05-0.607D-04-0.385D-04 0.274D-03 0.640D-03
 Coeff-Com:  0.335D-02-0.590D-02-0.651D-01-0.585D-01 0.113D+01
 Coeff:      0.510D-06 0.111D-05-0.607D-04-0.385D-04 0.274D-03 0.640D-03
 Coeff:      0.335D-02-0.590D-02-0.651D-01-0.585D-01 0.113D+01
 Gap=     0.349 Goal=   None    Shift=    0.000
 RMSDP=1.39D-07 MaxDP=2.07D-06 DE=-8.65D-11 OVMax= 1.81D-06

 Cycle  12  Pass 1  IDiag  1:
 E= -255.097487020449     Delta-E=       -0.000000000007 Rises=F Damp=F
 DIIS: error= 4.77D-08 at cycle  12 NSaved=  12.
 NSaved=12 IEnMin=12 EnMin= -255.097487020449     IErMin=12 ErrMin= 4.77D-08
 ErrMax= 4.77D-08  0.00D+00 EMaxC= 1.00D-01 BMatC= 9.43D-14 BMatP= 1.60D-12
 IDIUse=1 WtCom= 1.00D+00 WtEn= 0.00D+00
 Coeff-Com: -0.386D-07-0.871D-06 0.201D-04 0.100D-04-0.139D-03-0.152D-03
 Coeff-Com:  0.190D-02 0.313D-03-0.476D-02-0.331D-01-0.958D-01 0.113D+01
 Coeff:     -0.386D-07-0.871D-06 0.201D-04 0.100D-04-0.139D-03-0.152D-03
 Coeff:      0.190D-02 0.313D-03-0.476D-02-0.331D-01-0.958D-01 0.113D+01
 Gap=     0.349 Goal=   None    Shift=    0.000
 RMSDP=3.68D-08 MaxDP=4.92D-07 DE=-7.05D-12 OVMax= 3.70D-07

 Cycle  13  Pass 1  IDiag  1:
 E= -255.097487020447     Delta-E=        0.000000000002 Rises=F Damp=F
 DIIS: error= 4.83D-09 at cycle  13 NSaved=  13.
 NSaved=13 IEnMin=12 EnMin= -255.097487020449     IErMin=13 ErrMin= 4.83D-09
 ErrMax= 4.83D-09  0.00D+00 EMaxC= 1.00D-01 BMatC= 1.82D-15 BMatP= 9.43D-14
 IDIUse=1 WtCom= 1.00D+00 WtEn= 0.00D+00
 Coeff-Com: -0.143D-07 0.626D-07 0.905D-06-0.548D-06-0.570D-06-0.213D-04
 Coeff-Com: -0.227D-03 0.218D-03 0.254D-02 0.556D-02-0.306D-01-0.105D+00
 Coeff-Com:  0.113D+01
 Coeff:     -0.143D-07 0.626D-07 0.905D-06-0.548D-06-0.570D-06-0.213D-04
 Coeff:     -0.227D-03 0.218D-03 0.254D-02 0.556D-02-0.306D-01-0.105D+00
 Coeff:      0.113D+01
 Gap=     0.349 Goal=   None    Shift=    0.000
 RMSDP=6.87D-09 MaxDP=1.24D-07 DE= 1.99D-12 OVMax= 5.62D-08

 SCF Done:  E(RwB97XD) =  -255.097487020     A.U. after   13 cycles
            NFock= 13  Conv=0.69D-08     -V/T= 2.0059
 KE= 2.536120775484D+02 PE=-9.118609118496D+02 EE= 2.460443577196D+02
 Leave Link  502 at Wed May 12 11:56:07 2021, MaxMem=  2147483648 cpu:        12.8
 (Enter /opt/cluster/programs/g09_d.01/g09/l601.exe)
 Copying SCF densities to generalized density rwf, IOpCl= 0 IROHF=0.

 **********************************************************************

            Population analysis using the SCF density.

 **********************************************************************

 Orbital symmetries:
       Occupied  (A) (A) (A) (A) (A) (A) (A) (A) (A) (A) (A) (A)
                 (A) (A) (A) (A) (A) (A) (A)
       Virtual   (A) (A) (A) (A) (A) (A) (A) (A) (A) (A) (A) (A)
                 (A) (A) (A) (A) (A) (A) (A) (A) (A) (A) (A) (A)
                 (A) (A) (A) (A) (A) (A) (A) (A) (A) (A) (A) (A)
                 (A) (A) (A) (A) (A) (A) (A) (A) (A) (A) (A) (A)
                 (A) (A) (A) (A) (A) (A) (A) (A)
 The electronic state is 1-A.
 Alpha  occ. eigenvalues --  -24.82889 -10.40439 -10.33098 -10.31701 -10.31238
 Alpha  occ. eigenvalues --   -1.30507  -0.92751  -0.86340  -0.73305  -0.66269
 Alpha  occ. eigenvalues --   -0.60064  -0.58489  -0.54820  -0.52528  -0.50571
 Alpha  occ. eigenvalues --   -0.48199  -0.45647  -0.40527  -0.33038
 Alpha virt. eigenvalues --    0.01818   0.06764   0.08120   0.09547   0.10220
 Alpha virt. eigenvalues --    0.11525   0.12069   0.12995   0.14007   0.14662
 Alpha virt. eigenvalues --    0.15930   0.16806   0.18342   0.19370   0.20012
 Alpha virt. eigenvalues --    0.21393   0.23035   0.24577   0.25178   0.28436
 Alpha virt. eigenvalues --    0.29476   0.30769   0.32209   0.38791   0.41087
 Alpha virt. eigenvalues --    0.42166   0.43381   0.45548   0.48742   0.50074
 Alpha virt. eigenvalues --    0.52179   0.68006   0.74355   0.77082   0.78716
 Alpha virt. eigenvalues --    0.81129   0.82947   0.84732   0.88610   0.92614
 Alpha virt. eigenvalues --    0.98826   1.02690   1.04004   1.09396   1.13537
 Alpha virt. eigenvalues --    1.15460   1.17029   1.23802   1.30269   1.31708
 Alpha virt. eigenvalues --    1.39432   1.41408   1.66752   1.81565   1.85223
 Alpha virt. eigenvalues --    2.37566
          Condensed to atoms (all electrons):
               1          2          3          4          5          6
     1  C    6.116617   0.063793  -0.270954  -0.054389   0.373357   0.336976
     2  C    0.063793   5.446725  -0.017957   0.081414  -0.034922  -0.017006
     3  C   -0.270954  -0.017957   6.088540   0.175444   0.013930   0.017334
     4  C   -0.054389   0.081414   0.175444   5.456031   0.001157   0.000716
     5  H    0.373357  -0.034922   0.013930   0.001157   0.447938  -0.019505
     6  H    0.336976  -0.017006   0.017334   0.000716  -0.019505   0.468585
     7  F   -0.149436   0.288790  -0.145324   0.003227  -0.003228   0.004083
     8  H    0.007821  -0.014883   0.328664  -0.013386   0.000050   0.000345
     9  H   -0.002573   0.003616  -0.051099   0.395131   0.000002  -0.000002
    10  H    0.003105   0.018406  -0.030465   0.358235   0.000001  -0.000001
               7          8          9         10
     1  C   -0.149436   0.007821  -0.002573   0.003105
     2  C    0.288790  -0.014883   0.003616   0.018406
     3  C   -0.145324   0.328664  -0.051099  -0.030465
     4  C    0.003227  -0.013386   0.395131   0.358235
     5  H   -0.003228   0.000050   0.000002   0.000001
     6  H    0.004083   0.000345  -0.000002  -0.000001
     7  F    9.311766   0.003735  -0.000085   0.000262
     8  H    0.003735   0.470513   0.002507  -0.003716
     9  H   -0.000085   0.002507   0.454119  -0.023278
    10  H    0.000262  -0.003716  -0.023278   0.479384
 Mulliken charges:
               1
     1  C   -0.424318
     2  C    0.182025
     3  C   -0.108112
     4  C   -0.403582
     5  H    0.221221
     6  H    0.208476
     7  F   -0.313790
     8  H    0.218349
     9  H    0.221662
    10  H    0.198069
 Sum of Mulliken charges =   0.00000
 Mulliken charges with hydrogens summed into heavy atoms:
               1
     1  C    0.005379
     2  C    0.182025
     3  C    0.110237
     4  C    0.016150
     7  F   -0.313790
 Electronic spatial extent (au):  <R**2>=            425.7131
 Charge=              0.0000 electrons
 Dipole moment (field-independent basis, Debye):
    X=             -0.5387    Y=             -2.1704    Z=              0.2755  Tot=              2.2531
 Quadrupole moment (field-independent basis, Debye-Ang):
   XX=            -25.0633   YY=            -30.0178   ZZ=            -32.0742
   XY=             -1.3408   XZ=              0.2383   YZ=              1.4037
 Traceless Quadrupole moment (field-independent basis, Debye-Ang):
   XX=              3.9884   YY=             -0.9660   ZZ=             -3.0224
   XY=             -1.3408   XZ=              0.2383   YZ=              1.4037
 Octapole moment (field-independent basis, Debye-Ang**2):
  XXX=              2.4902  YYY=              1.5855  ZZZ=             -0.9244  XYY=             -0.2142
  XXY=              1.2881  XXZ=              3.4042  XZZ=              1.2937  YZZ=              4.6306
  YYZ=             -0.3154  XYZ=             -2.2591
 Hexadecapole moment (field-independent basis, Debye-Ang**3):
 XXXX=           -325.6634 YYYY=           -137.8114 ZZZZ=            -46.2535 XXXY=              9.6379
 XXXZ=              1.7435 YYYX=             -1.2926 YYYZ=              2.4812 ZZZX=             -1.0167
 ZZZY=              0.6170 XXYY=            -81.9385 XXZZ=            -75.8785 YYZZ=            -31.8892
 XXYZ=              1.7727 YYXZ=              1.3662 ZZXY=              2.2846
 N-N= 1.571069895611D+02 E-N=-9.118609120366D+02  KE= 2.536120775484D+02
 No NMR shielding tensors so no spin-rotation constants.
 Leave Link  601 at Wed May 12 11:56:08 2021, MaxMem=  2147483648 cpu:         0.6
 (Enter /opt/cluster/programs/g09_d.01/g09/l701.exe)
 Compute integral first derivatives.
 ... and contract with generalized density number  0.
 R6Disp: Adding Grimme-D2 dispersion energy 1st derivatives to the gradient.
 Leave Link  701 at Wed May 12 11:56:08 2021, MaxMem=  2147483648 cpu:         0.6
 (Enter /opt/cluster/programs/g09_d.01/g09/l702.exe)
 L702 exits ... SP integral derivatives will be done elsewhere.
 Leave Link  702 at Wed May 12 11:56:08 2021, MaxMem=  2147483648 cpu:         0.2
 (Enter /opt/cluster/programs/g09_d.01/g09/l703.exe)
 Compute integral first derivatives, UseDBF=F ICtDFT=           0.
 Integral derivatives from FoFJK, PRISM(SPDF).
 Calling FoFJK, ICntrl=      2127 FMM=F ISym2X=0 I1Cent= 0 IOpClX= 0 NMat=1 NMatS=1 NMatT=0.
 FoFJK:  IHMeth= 1 ICntrl=    2127 DoSepK=T KAlg= 0 I1Cent=   0 FoldK=F
 IRaf=         1 NMat=   1 IRICut=       1 DoRegI=T DoRafI=F ISym2E= 0.
 FoFCou: FMM=F IPFlag=           0 FMFlag=      100000 FMFlg1=         800
         NFxFlg=           0 DoJE=F BraDBF=F KetDBF=F FulRan=T
         wScrn=  0.000000 ICntrl=    2527 IOpCl=  0 I1Cent=           0 NGrid=           0
         NMat0=    1 NMatS0=      1 NMatT0=    0 NMatD0=    1 NMtDS0=    0 NMtDT0=    0
 Symmetry not used in FoFCou.
 Leave Link  703 at Wed May 12 11:56:08 2021, MaxMem=  2147483648 cpu:         3.3
 (Enter /opt/cluster/programs/g09_d.01/g09/l716.exe)
 Dipole        =-2.11946812D-01-8.53889906D-01 1.08393832D-01
 ***** Axes restored to original set *****
 -------------------------------------------------------------------
 Center     Atomic                   Forces (Hartrees/Bohr)
 Number     Number              X              Y              Z
 -------------------------------------------------------------------
      1        6           0.003945744    0.001647297    0.007377158
      2        6          -0.004386346    0.007348916   -0.009202918
      3        6           0.004569829   -0.004023473   -0.006031876
      4        6          -0.004435733    0.000658433    0.006793118
      5        1           0.000617776    0.000100633    0.000165968
      6        1           0.000548617    0.000401134    0.000008863
      7        9           0.000233818   -0.006433334    0.000392701
      8        1           0.000036174    0.000744719    0.000244839
      9        1          -0.000388480   -0.000343781    0.000050700
     10        1          -0.000741399   -0.000100543    0.000201448
 -------------------------------------------------------------------
 Cartesian Forces:  Max     0.009202918 RMS     0.003716280
 Leave Link  716 at Wed May 12 11:56:08 2021, MaxMem=  2147483648 cpu:         0.2
 (Enter /opt/cluster/programs/g09_d.01/g09/l103.exe)

 GradGradGradGradGradGradGradGradGradGradGradGradGradGradGradGradGradGrad
 Berny optimization.
 FormGI is forming the generalized inverse of G from B-inverse, IUseBI=4.
 Internal  Forces:  Max     0.006977405 RMS     0.002544610
 Search for a local minimum.
 Step number   1 out of a maximum of   43
 All quantities printed in internal units (Hartrees-Bohrs-Radians)
 RMS Force = .21207D-02 SwitMx=.10000D-02 MixMth= 1
 Mixed Optimization -- RFO/linear search
 Second derivative matrix not updated -- first step.
 ITU=  0
     Eigenvalues ---    0.01710   0.02144   0.02828   0.02830   0.02936
     Eigenvalues ---    0.02937   0.15923   0.16000   0.16000   0.16000
     Eigenvalues ---    0.16000   0.22020   0.24863   0.25000   0.35005
     Eigenvalues ---    0.35355   0.35398   0.35551   0.35660   0.36646
     Eigenvalues ---    0.41735   0.56286   0.581181000.000001000.00000
     Eigenvalues --- 1000.000001000.000001000.000001000.000001000.00000
     Eigenvalues --- 1000.000001000.000001000.00000
 RFO step:  Lambda=-3.29640485D-04 EMin= 1.71029901D-02
 Linear search not attempted -- first point.
 Iteration  1 RMS(Cart)=  0.01260251 RMS(Int)=  0.00008070
 Iteration  2 RMS(Cart)=  0.00007665 RMS(Int)=  0.00001459
 Iteration  3 RMS(Cart)=  0.00000000 RMS(Int)=  0.00001459
 Iteration  1 RMS(Cart)=  0.00000033 RMS(Int)=  0.00000023
 ITry= 1 IFail=0 DXMaxC= 2.67D-02 DCOld= 1.00D+10 DXMaxT= 3.00D-01 DXLimC= 3.00D+00 Rises=F
 Variable       Old X    -DE/DX   Delta X   Delta X   Delta X     New X
                                 (Linear)    (Quad)   (Total)
    R1        2.52461  -0.00698   0.00000  -0.01200  -0.01200   2.51261
    R2        2.04616  -0.00050   0.00000  -0.00141  -0.00141   2.04475
    R3        2.04790  -0.00041   0.00000  -0.00115  -0.00115   2.04675
    R4        2.76383   0.00035   0.00000   0.00096   0.00096   2.76479
    R5        2.69261  -0.00644   0.00000  -0.01542  -0.01542   2.67720
    R6        2.54006  -0.00689   0.00000  -0.01223  -0.01223   2.52783
    R7        2.05666  -0.00059   0.00000  -0.00169  -0.00169   2.05497
    R8        2.05102  -0.00032   0.00000  -0.00091  -0.00091   2.05011
    R9        2.05033  -0.00061   0.00000  -0.00171  -0.00171   2.04862
    A1        2.11783  -0.00020   0.00000  -0.00121  -0.00121   2.11662
    A2        2.09966  -0.00044   0.00000  -0.00273  -0.00273   2.09693
    A3        2.06553   0.00064   0.00000   0.00398   0.00398   2.06951
    A4        2.25459  -0.00065   0.00000  -0.00234  -0.00239   2.25220
    A5        2.04585   0.00084   0.00000   0.00274   0.00270   2.04855
    A6        1.97444   0.00018   0.00000   0.00164   0.00160   1.97604
    A7        2.17282  -0.00112   0.00000  -0.00517  -0.00520   2.16762
    A8        2.00731   0.00056   0.00000   0.00348   0.00345   2.01076
    A9        2.09642   0.00088   0.00000   0.00312   0.00310   2.09952
   A10        2.12669  -0.00020   0.00000  -0.00123  -0.00123   2.12546
   A11        2.11115  -0.00039   0.00000  -0.00240  -0.00240   2.10875
   A12        2.04503   0.00059   0.00000   0.00369   0.00369   2.04872
    D1       -3.04763  -0.00168   0.00000  -0.01042  -0.01042  -3.05805
    D2       -0.05492   0.00160   0.00000   0.00795   0.00795  -0.04697
    D3        0.11371  -0.00177   0.00000  -0.01335  -0.01336   0.10035
    D4        3.10643   0.00152   0.00000   0.00501   0.00501   3.11144
    D5        2.44365   0.00585   0.00000   0.00000   0.00000   2.44365
    D6       -0.57398   0.00278   0.00000  -0.01357  -0.01357  -0.58756
    D7       -0.55401   0.00263   0.00000  -0.01785  -0.01785  -0.57186
    D8        2.71154  -0.00044   0.00000  -0.03142  -0.03142   2.68012
    D9        0.10076  -0.00170   0.00000  -0.01095  -0.01095   0.08980
   D10       -3.06856  -0.00162   0.00000  -0.00827  -0.00828  -3.07684
   D11        3.11245   0.00148   0.00000   0.00325   0.00326   3.11571
   D12       -0.05686   0.00156   0.00000   0.00593   0.00593  -0.05093
         Item               Value     Threshold  Converged?
 Maximum Force            0.006977     0.000450     NO 
 RMS     Force            0.002121     0.000300     NO 
 Maximum Displacement     0.026726     0.001800     NO 
 RMS     Displacement     0.012614     0.001200     NO 
 Predicted change in Energy=-1.652930D-04
 Lowest energy point so far.  Saving SCF results.
 GradGradGradGradGradGradGradGradGradGradGradGradGradGradGradGradGradGrad

 Leave Link  103 at Wed May 12 11:56:08 2021, MaxMem=  2147483648 cpu:         0.1
 (Enter /opt/cluster/programs/g09_d.01/g09/l202.exe)
                          Input orientation:                          
 ---------------------------------------------------------------------
 Center     Atomic      Atomic             Coordinates (Angstroms)
 Number     Number       Type             X           Y           Z
 ---------------------------------------------------------------------
      1          6           0       -1.648433   -0.732650   -0.185615
      2          6           0       -0.519149   -0.089470    0.095315
      3          6           0        0.833867   -0.625536    0.245434
      4          6           0        1.936643   -0.022040   -0.211781
      5          1           0       -2.575414   -0.197317   -0.343496
      6          1           0       -1.658056   -1.814048   -0.245467
      7          9           0       -0.565165    1.326244    0.121999
      8          1           0        0.891647   -1.624586    0.670985
      9          1           0        1.903120    0.964246   -0.662408
     10          1           0        2.907118   -0.496951   -0.123018
 ---------------------------------------------------------------------
                    Distance matrix (angstroms):
                    1          2          3          4          5
     1  C    0.000000
     2  C    1.329619   0.000000
     3  C    2.521724   1.463064   0.000000
     4  C    3.654918   2.475837   1.337672   0.000000
     5  H    1.082036   2.105329   3.486174   4.517381   0.000000
     6  H    1.083096   2.094615   2.804144   4.016751   1.861445
     7  F    2.346729   1.416712   2.404573   2.861525   2.564960
     8  H    2.825123   2.162944   1.087444   2.106999   3.884171
     9  H    3.964885   2.748062   2.120114   1.084873   4.637693
    10  H    4.562074   3.457313   2.109658   1.084085   5.495138
                    6          7          8          9         10
     6  H    0.000000
     7  F    3.345276   0.000000
     8  H    2.716020   3.336328   0.000000
     9  H    4.535937   2.615103   3.082704   0.000000
    10  H    4.752951   3.929481   2.442155   1.853119   0.000000
 Stoichiometry    C4H5F
 Framework group  C1[X(C4H5F)]
 Deg. of freedom    24
 Full point group                 C1      NOp   1
 RotChk:  IX=0 Diff= 1.06D-02
 Largest Abelian subgroup         C1      NOp   1
 Largest concise Abelian subgroup C1      NOp   1
                         Standard orientation:                         
 ---------------------------------------------------------------------
 Center     Atomic      Atomic             Coordinates (Angstroms)
 Number     Number       Type             X           Y           Z
 ---------------------------------------------------------------------
      1          6           0        1.645639   -0.738498    0.183289
      2          6           0        0.518873   -0.089404   -0.094128
      3          6           0       -0.835979   -0.619566   -0.248587
      4          6           0       -1.936855   -0.015077    0.211881
      5          1           0        2.574451   -0.207574    0.345242
      6          1           0        1.651305   -1.820292    0.236076
      7          9           0        0.570035    1.326277   -0.111526
      8          1           0       -0.897105   -1.615598   -0.680698
      9          1           0       -1.900049    0.968115    0.668968
     10          1           0       -2.908987   -0.485874    0.119414
 ---------------------------------------------------------------------
 Rotational constants (GHZ):      9.2619948      4.1803625      2.9855550
 Leave Link  202 at Wed May 12 11:56:08 2021, MaxMem=  2147483648 cpu:         0.0
 (Enter /opt/cluster/programs/g09_d.01/g09/l301.exe)
 Standard basis: 6-31+G (6D, 7F)
 Ernie: Thresh=  0.10000D-02 Tol=  0.10000D-05 Strict=F.
 There are    75 symmetry adapted cartesian basis functions of A   symmetry.
 There are    75 symmetry adapted basis functions of A   symmetry.
    75 basis functions,   150 primitive gaussians,    75 cartesian basis functions
    19 alpha electrons       19 beta electrons
       nuclear repulsion energy       157.6103596764 Hartrees.
 IExCor= 4639 DFT=T Ex+Corr=wB97XD ExCW=0 ScaHFX=  1.000000
 ScaDFX=  1.000000  1.000000  1.000000  1.000000 ScalE2=  1.000000  1.000000
 IRadAn=      0 IRanWt=     -1 IRanGd=            0 ICorTp=0 IEmpDi=121
  HFx wShort=  0.000000 wLong=  0.200000 cFull=  0.222036 cShort=  0.000000 cLong=  0.777964
  DFx wShort=  0.000000 wLong=  0.200000 cFull=  0.000000 cShort=  0.000000 cLong=  1.000000
 NAtoms=   10 NActive=   10 NUniq=   10 SFac= 1.00D+00 NAtFMM=   60 NAOKFM=F Big=F
 Integral buffers will be    131072 words long.
 Raffenetti 2 integral format.
 Two-electron integral symmetry is turned on.
 R6Disp:  Grimme-D2 Dispersion energy=       -0.0029682568 Hartrees.
 Nuclear repulsion after empirical dispersion term =      157.6073914195 Hartrees.
 Leave Link  301 at Wed May 12 11:56:08 2021, MaxMem=  2147483648 cpu:         0.3
 (Enter /opt/cluster/programs/g09_d.01/g09/l302.exe)
 NPDir=0 NMtPBC=     1 NCelOv=     1 NCel=       1 NClECP=     1 NCelD=      1
         NCelK=      1 NCelE2=     1 NClLst=     1 CellRange=     0.0.
 One-electron integrals computed using PRISM.
 NBasis=    75 RedAO= T EigKep=  6.53D-05  NBF=    75
 NBsUse=    75 1.00D-06 EigRej= -1.00D+00 NBFU=    75
 Precomputing XC quadrature grid using
 IXCGrd= 4 IRadAn=           0 IRanWt=          -1 IRanGd=           0 AccXCQ= 0.00D+00.
 Generated NRdTot=       0 NPtTot=           0 NUsed=           0 NTot=          32
 NSgBfM=    75    75    75    75    75 MxSgAt=    10 MxSgA2=    10.
 Leave Link  302 at Wed May 12 11:56:09 2021, MaxMem=  2147483648 cpu:         0.9
 (Enter /opt/cluster/programs/g09_d.01/g09/l303.exe)
 DipDrv:  MaxL=1.
 Leave Link  303 at Wed May 12 11:56:09 2021, MaxMem=  2147483648 cpu:         0.2
 (Enter /opt/cluster/programs/g09_d.01/g09/l401.exe)
 Initial guess from the checkpoint file:  "/home/unibas/boittier/RDKit_G2/B.pdb/SCAN_1_2_3_4_S_17_20.0/16_SCAN_1_2_3_4_F/B.pdb.chk"
 B after Tr=     0.000000    0.000000    0.000000
         Rot=    0.999998   -0.000399   -0.000082    0.001721 Ang=  -0.20 deg.
 Guess basis will be translated and rotated to current coordinates.
 JPrj=2 DoOrth=T DoCkMO=T.
 Generating alternative initial guess.
 ExpMin= 4.38D-02 ExpMax= 7.00D+03 ExpMxC= 1.05D+03 IAcc=2 IRadAn=         4 AccDes= 0.00D+00
 Harris functional with IExCor= 4639 and IRadAn=       4 diagonalized for initial guess.
 HarFok:  IExCor= 4639 AccDes= 0.00D+00 IRadAn=         4 IDoV= 1 UseB2=F ITyADJ=14
 ICtDFT=  3500011 ScaDFX=  1.000000  1.000000  1.000000  1.000000
 FoFCou: FMM=F IPFlag=           0 FMFlag=      100000 FMFlg1=           0
         NFxFlg=           0 DoJE=T BraDBF=F KetDBF=T FulRan=T
         wScrn=  0.000000 ICntrl=     500 IOpCl=  0 I1Cent=   200000004 NGrid=           0
         NMat0=    1 NMatS0=      1 NMatT0=    0 NMatD0=    1 NMtDS0=    0 NMtDT0=    0
 Petite list used in FoFCou.
 Harris En= -244.783946432711    
 Leave Link  401 at Wed May 12 11:56:09 2021, MaxMem=  2147483648 cpu:         1.7
 (Enter /opt/cluster/programs/g09_d.01/g09/l502.exe)
 Closed shell SCF:
 Using DIIS extrapolation, IDIIS=  1040.
 Integral symmetry usage will be decided dynamically.
 Keep R1 ints in memory in canonical form, NReq=9056162.
 IVT=       36600 IEndB=       36600 NGot=  2147483648 MDV=  2139321699
 LenX=  2139321699 LenY=  2139315633
 Requested convergence on RMS density matrix=1.00D-08 within 128 cycles.
 Requested convergence on MAX density matrix=1.00D-06.
 Requested convergence on             energy=1.00D-06.
 No special actions if energy rises.
 FoFCou: FMM=F IPFlag=           0 FMFlag=           0 FMFlg1=           0
         NFxFlg=           0 DoJE=F BraDBF=F KetDBF=F FulRan=T
         wScrn=  0.000000 ICntrl=     600 IOpCl=  0 I1Cent=           0 NGrid=           0
         NMat0=    1 NMatS0=   2850 NMatT0=    0 NMatD0=    1 NMtDS0=    0 NMtDT0=    0
 Symmetry not used in FoFCou.

 Cycle   1  Pass 1  IDiag  1:
 E= -255.097475467629    
 DIIS: error= 6.97D-04 at cycle   1 NSaved=   1.
 NSaved= 1 IEnMin= 1 EnMin= -255.097475467629     IErMin= 1 ErrMin= 6.97D-04
 ErrMax= 6.97D-04  0.00D+00 EMaxC= 1.00D-01 BMatC= 8.65D-05 BMatP= 8.65D-05
 IDIUse=3 WtCom= 9.93D-01 WtEn= 6.97D-03
 Coeff-Com:  0.100D+01
 Coeff-En:   0.100D+01
 Coeff:      0.100D+01
 Gap=     0.573 Goal=   None    Shift=    0.000
 RMSDP=6.89D-04 MaxDP=1.49D-02              OVMax= 4.00D-03

 Cycle   2  Pass 1  IDiag  1:
 E= -255.097642740619     Delta-E=       -0.000167272989 Rises=F Damp=F
 DIIS: error= 2.48D-04 at cycle   2 NSaved=   2.
 NSaved= 2 IEnMin= 2 EnMin= -255.097642740619     IErMin= 2 ErrMin= 2.48D-04
 ErrMax= 2.48D-04  0.00D+00 EMaxC= 1.00D-01 BMatC= 6.53D-06 BMatP= 8.65D-05
 IDIUse=3 WtCom= 9.98D-01 WtEn= 2.48D-03
 Coeff-Com: -0.465D-01 0.105D+01
 Coeff-En:   0.000D+00 0.100D+01
 Coeff:     -0.464D-01 0.105D+01
 Gap=     0.351 Goal=   None    Shift=    0.000
 RMSDP=1.71D-04 MaxDP=3.90D-03 DE=-1.67D-04 OVMax= 1.74D-03

 Cycle   3  Pass 1  IDiag  1:
 E= -255.097658494763     Delta-E=       -0.000015754144 Rises=F Damp=F
 DIIS: error= 1.21D-04 at cycle   3 NSaved=   3.
 NSaved= 3 IEnMin= 3 EnMin= -255.097658494763     IErMin= 3 ErrMin= 1.21D-04
 ErrMax= 1.21D-04  0.00D+00 EMaxC= 1.00D-01 BMatC= 1.95D-06 BMatP= 6.53D-06
 IDIUse=3 WtCom= 9.99D-01 WtEn= 1.21D-03
 Coeff-Com: -0.876D-01 0.330D+00 0.757D+00
 Coeff-En:   0.000D+00 0.000D+00 0.100D+01
 Coeff:     -0.875D-01 0.330D+00 0.758D+00
 Gap=     0.352 Goal=   None    Shift=    0.000
 RMSDP=4.65D-05 MaxDP=7.32D-04 DE=-1.58D-05 OVMax= 6.13D-04

 Cycle   4  Pass 1  IDiag  1:
 E= -255.097661325171     Delta-E=       -0.000002830408 Rises=F Damp=F
 DIIS: error= 4.84D-05 at cycle   4 NSaved=   4.
 NSaved= 4 IEnMin= 4 EnMin= -255.097661325171     IErMin= 4 ErrMin= 4.84D-05
 ErrMax= 4.84D-05  0.00D+00 EMaxC= 1.00D-01 BMatC= 2.44D-07 BMatP= 1.95D-06
 IDIUse=1 WtCom= 1.00D+00 WtEn= 0.00D+00
 Coeff-Com: -0.191D-01-0.711D-02 0.226D+00 0.800D+00
 Coeff:     -0.191D-01-0.711D-02 0.226D+00 0.800D+00
 Gap=     0.352 Goal=   None    Shift=    0.000
 RMSDP=2.02D-05 MaxDP=2.45D-04 DE=-2.83D-06 OVMax= 2.86D-04

 Cycle   5  Pass 1  IDiag  1:
 E= -255.097661694006     Delta-E=       -0.000000368835 Rises=F Damp=F
 DIIS: error= 2.32D-05 at cycle   5 NSaved=   5.
 NSaved= 5 IEnMin= 5 EnMin= -255.097661694006     IErMin= 5 ErrMin= 2.32D-05
 ErrMax= 2.32D-05  0.00D+00 EMaxC= 1.00D-01 BMatC= 7.04D-08 BMatP= 2.44D-07
 IDIUse=1 WtCom= 1.00D+00 WtEn= 0.00D+00
 Coeff-Com:  0.121D-01-0.815D-01-0.850D-01 0.386D+00 0.768D+00
 Coeff:      0.121D-01-0.815D-01-0.850D-01 0.386D+00 0.768D+00
 Gap=     0.352 Goal=   None    Shift=    0.000
 RMSDP=1.27D-05 MaxDP=2.77D-04 DE=-3.69D-07 OVMax= 1.48D-04

 Cycle   6  Pass 1  IDiag  1:
 E= -255.097661793924     Delta-E=       -0.000000099919 Rises=F Damp=F
 DIIS: error= 3.14D-06 at cycle   6 NSaved=   6.
 NSaved= 6 IEnMin= 6 EnMin= -255.097661793924     IErMin= 6 ErrMin= 3.14D-06
 ErrMax= 3.14D-06  0.00D+00 EMaxC= 1.00D-01 BMatC= 7.53D-10 BMatP= 7.04D-08
 IDIUse=1 WtCom= 1.00D+00 WtEn= 0.00D+00
 Coeff-Com:  0.558D-03 0.160D-02-0.105D-01-0.340D-01-0.361D-01 0.108D+01
 Coeff:      0.558D-03 0.160D-02-0.105D-01-0.340D-01-0.361D-01 0.108D+01
 Gap=     0.352 Goal=   None    Shift=    0.000
 RMSDP=3.49D-06 MaxDP=7.12D-05 DE=-9.99D-08 OVMax= 3.40D-05

 Cycle   7  Pass 1  IDiag  1:
 E= -255.097661796312     Delta-E=       -0.000000002388 Rises=F Damp=F
 DIIS: error= 2.66D-06 at cycle   7 NSaved=   7.
 NSaved= 7 IEnMin= 7 EnMin= -255.097661796312     IErMin= 7 ErrMin= 2.66D-06
 ErrMax= 2.66D-06  0.00D+00 EMaxC= 1.00D-01 BMatC= 4.63D-10 BMatP= 7.53D-10
 IDIUse=1 WtCom= 1.00D+00 WtEn= 0.00D+00
 Coeff-Com: -0.649D-03 0.762D-02 0.124D-02-0.498D-01-0.817D-01 0.557D+00
 Coeff-Com:  0.567D+00
 Coeff:     -0.649D-03 0.762D-02 0.124D-02-0.498D-01-0.817D-01 0.557D+00
 Coeff:      0.567D+00
 Gap=     0.352 Goal=   None    Shift=    0.000
 RMSDP=9.18D-07 MaxDP=2.12D-05 DE=-2.39D-09 OVMax= 8.74D-06

 Cycle   8  Pass 1  IDiag  1:
 E= -255.097661796850     Delta-E=       -0.000000000537 Rises=F Damp=F
 DIIS: error= 3.04D-07 at cycle   8 NSaved=   8.
 NSaved= 8 IEnMin= 8 EnMin= -255.097661796850     IErMin= 8 ErrMin= 3.04D-07
 ErrMax= 3.04D-07  0.00D+00 EMaxC= 1.00D-01 BMatC= 7.01D-12 BMatP= 4.63D-10
 IDIUse=1 WtCom= 1.00D+00 WtEn= 0.00D+00
 Coeff-Com: -0.691D-04-0.161D-03 0.136D-02 0.273D-02 0.395D-02-0.110D+00
 Coeff-Com: -0.407D-02 0.111D+01
 Coeff:     -0.691D-04-0.161D-03 0.136D-02 0.273D-02 0.395D-02-0.110D+00
 Coeff:     -0.407D-02 0.111D+01
 Gap=     0.352 Goal=   None    Shift=    0.000
 RMSDP=2.74D-07 MaxDP=4.70D-06 DE=-5.37D-10 OVMax= 3.35D-06

 Cycle   9  Pass 1  IDiag  1:
 E= -255.097661796871     Delta-E=       -0.000000000022 Rises=F Damp=F
 DIIS: error= 1.16D-07 at cycle   9 NSaved=   9.
 NSaved= 9 IEnMin= 9 EnMin= -255.097661796871     IErMin= 9 ErrMin= 1.16D-07
 ErrMax= 1.16D-07  0.00D+00 EMaxC= 1.00D-01 BMatC= 6.13D-13 BMatP= 7.01D-12
 IDIUse=1 WtCom= 1.00D+00 WtEn= 0.00D+00
 Coeff-Com:  0.140D-04-0.354D-03 0.207D-03 0.284D-02 0.400D-02-0.472D-01
 Coeff-Com: -0.243D-01 0.235D+00 0.830D+00
 Coeff:      0.140D-04-0.354D-03 0.207D-03 0.284D-02 0.400D-02-0.472D-01
 Coeff:     -0.243D-01 0.235D+00 0.830D+00
 Gap=     0.352 Goal=   None    Shift=    0.000
 RMSDP=5.87D-08 MaxDP=9.36D-07 DE=-2.18D-11 OVMax= 5.18D-07

 Cycle  10  Pass 1  IDiag  1:
 E= -255.097661796872     Delta-E=       -0.000000000001 Rises=F Damp=F
 DIIS: error= 5.66D-08 at cycle  10 NSaved=  10.
 NSaved=10 IEnMin=10 EnMin= -255.097661796872     IErMin=10 ErrMin= 5.66D-08
 ErrMax= 5.66D-08  0.00D+00 EMaxC= 1.00D-01 BMatC= 1.68D-13 BMatP= 6.13D-13
 IDIUse=1 WtCom= 1.00D+00 WtEn= 0.00D+00
 Coeff-Com:  0.146D-04-0.117D-03-0.109D-03 0.796D-03 0.999D-03-0.361D-02
 Coeff-Com: -0.871D-02-0.621D-01 0.362D+00 0.710D+00
 Coeff:      0.146D-04-0.117D-03-0.109D-03 0.796D-03 0.999D-03-0.361D-02
 Coeff:     -0.871D-02-0.621D-01 0.362D+00 0.710D+00
 Gap=     0.352 Goal=   None    Shift=    0.000
 RMSDP=2.08D-08 MaxDP=2.96D-07 DE=-1.02D-12 OVMax= 3.19D-07

 Cycle  11  Pass 1  IDiag  1:
 E= -255.097661796872     Delta-E=        0.000000000000 Rises=F Damp=F
 DIIS: error= 8.29D-09 at cycle  11 NSaved=  11.
 NSaved=11 IEnMin=10 EnMin= -255.097661796872     IErMin=11 ErrMin= 8.29D-09
 ErrMax= 8.29D-09  0.00D+00 EMaxC= 1.00D-01 BMatC= 5.40D-15 BMatP= 1.68D-13
 IDIUse=1 WtCom= 1.00D+00 WtEn= 0.00D+00
 Coeff-Com: -0.150D-05 0.329D-04-0.165D-04-0.273D-03-0.373D-03 0.442D-02
 Coeff-Com:  0.267D-02-0.220D-01-0.922D-01 0.288D-02 0.110D+01
 Coeff:     -0.150D-05 0.329D-04-0.165D-04-0.273D-03-0.373D-03 0.442D-02
 Coeff:      0.267D-02-0.220D-01-0.922D-01 0.288D-02 0.110D+01
 Gap=     0.352 Goal=   None    Shift=    0.000
 RMSDP=9.28D-09 MaxDP=1.66D-07 DE= 4.55D-13 OVMax= 9.22D-08

 SCF Done:  E(RwB97XD) =  -255.097661797     A.U. after   11 cycles
            NFock= 11  Conv=0.93D-08     -V/T= 2.0056
 KE= 2.536727734958D+02 PE=-9.129053996240D+02 EE= 2.465275729118D+02
 Leave Link  502 at Wed May 12 11:56:11 2021, MaxMem=  2147483648 cpu:        11.1
 (Enter /opt/cluster/programs/g09_d.01/g09/l701.exe)
 Compute integral first derivatives.
 ... and contract with generalized density number  0.
 R6Disp: Adding Grimme-D2 dispersion energy 1st derivatives to the gradient.
 Leave Link  701 at Wed May 12 11:56:11 2021, MaxMem=  2147483648 cpu:         0.6
 (Enter /opt/cluster/programs/g09_d.01/g09/l702.exe)
 L702 exits ... SP integral derivatives will be done elsewhere.
 Leave Link  702 at Wed May 12 11:56:11 2021, MaxMem=  2147483648 cpu:         0.2
 (Enter /opt/cluster/programs/g09_d.01/g09/l703.exe)
 Compute integral first derivatives, UseDBF=F ICtDFT=           0.
 Integral derivatives from FoFJK, PRISM(SPDF).
 Calling FoFJK, ICntrl=      2127 FMM=F ISym2X=0 I1Cent= 0 IOpClX= 0 NMat=1 NMatS=1 NMatT=0.
 FoFJK:  IHMeth= 1 ICntrl=    2127 DoSepK=T KAlg= 0 I1Cent=   0 FoldK=F
 IRaf=         1 NMat=   1 IRICut=       1 DoRegI=T DoRafI=F ISym2E= 0.
 FoFCou: FMM=F IPFlag=           0 FMFlag=      100000 FMFlg1=         800
         NFxFlg=           0 DoJE=F BraDBF=F KetDBF=F FulRan=T
         wScrn=  0.000000 ICntrl=    2527 IOpCl=  0 I1Cent=           0 NGrid=           0
         NMat0=    1 NMatS0=      1 NMatT0=    0 NMatD0=    1 NMtDS0=    0 NMtDT0=    0
 Symmetry not used in FoFCou.
 Leave Link  703 at Wed May 12 11:56:11 2021, MaxMem=  2147483648 cpu:         3.3
 (Enter /opt/cluster/programs/g09_d.01/g09/l716.exe)
 Dipole        =-2.16648650D-01-8.38297059D-01 1.03532466D-01
 ***** Axes restored to original set *****
 -------------------------------------------------------------------
 Center     Atomic                   Forces (Hartrees/Bohr)
 Number     Number              X              Y              Z
 -------------------------------------------------------------------
      1        6          -0.001525918   -0.001869255    0.005550792
      2        6           0.000906136    0.006230738   -0.006395418
      3        6          -0.000911675   -0.005867706   -0.003546874
      4        6           0.001101022    0.003026262    0.004435698
      5        1          -0.000089168   -0.000059393    0.000027863
      6        1           0.000007428    0.000023050   -0.000156455
      7        9           0.000414179   -0.001702217    0.000023187
      8        1          -0.000114297    0.000124443    0.000172167
      9        1           0.000075119    0.000001352   -0.000053367
     10        1           0.000137173    0.000092726   -0.000057592
 -------------------------------------------------------------------
 Cartesian Forces:  Max     0.006395418 RMS     0.002570798
 Leave Link  716 at Wed May 12 11:56:11 2021, MaxMem=  2147483648 cpu:         0.2
 (Enter /opt/cluster/programs/g09_d.01/g09/l103.exe)

 GradGradGradGradGradGradGradGradGradGradGradGradGradGradGradGradGradGrad
 Berny optimization.
 Using GEDIIS/GDIIS optimizer.
 FormGI is forming the generalized inverse of G from B-inverse, IUseBI=4.
 Internal  Forces:  Max     0.005512713 RMS     0.001464007
 Search for a local minimum.
 Step number   2 out of a maximum of   43
 All quantities printed in internal units (Hartrees-Bohrs-Radians)
 RMS Force = .52322D-03 SwitMx=.10000D-02 MixMth= 2
 Mixed Optimization -- En-DIIS/RFO-DIIS
 Update second derivatives using D2CorX and points    1    2
 DE= -1.75D-04 DEPred=-1.65D-04 R= 1.06D+00
 TightC=F SS=  1.41D+00  RLast= 5.25D-02 DXNew= 5.0454D-01 1.5735D-01
 Trust test= 1.06D+00 RLast= 5.25D-02 DXMaxT set to 3.00D-01
 ITU=  1  0
 Use linear search instead of GDIIS.
     Eigenvalues ---    0.01615   0.02142   0.02824   0.02829   0.02916
     Eigenvalues ---    0.02936   0.15920   0.15979   0.16000   0.16000
     Eigenvalues ---    0.16149   0.21575   0.24149   0.24937   0.34099
     Eigenvalues ---    0.35091   0.35362   0.35446   0.35581   0.35721
     Eigenvalues ---    0.38765   0.57085   0.700931000.000001000.00000
     Eigenvalues --- 1000.000001000.000001000.000001000.000001000.00000
     Eigenvalues --- 1000.000001000.000001000.00000
 RFO step:  Lambda=-2.83753590D-05 EMin= 1.61453197D-02
 Quartic linear search produced a step of  0.04678.
 Iteration  1 RMS(Cart)=  0.00432515 RMS(Int)=  0.00001306
 Iteration  2 RMS(Cart)=  0.00001292 RMS(Int)=  0.00000287
 Iteration  3 RMS(Cart)=  0.00000000 RMS(Int)=  0.00000287
 Iteration  1 RMS(Cart)=  0.00000076 RMS(Int)=  0.00000052
 ITry= 1 IFail=0 DXMaxC= 1.23D-02 DCOld= 1.00D+10 DXMaxT= 3.00D-01 DXLimC= 3.00D+00 Rises=F
 Variable       Old X    -DE/DX   Delta X   Delta X   Delta X     New X
                                 (Linear)    (Quad)   (Total)
    R1        2.51261   0.00114  -0.00056   0.00160   0.00104   2.51365
    R2        2.04475   0.00004  -0.00007   0.00007   0.00000   2.04476
    R3        2.04675  -0.00001  -0.00005  -0.00008  -0.00014   2.04662
    R4        2.76479   0.00132   0.00004   0.00381   0.00385   2.76864
    R5        2.67720  -0.00172  -0.00072  -0.00490  -0.00562   2.67158
    R6        2.52783   0.00102  -0.00057   0.00142   0.00085   2.52868
    R7        2.05497  -0.00005  -0.00008  -0.00022  -0.00030   2.05467
    R8        2.05011   0.00002  -0.00004   0.00004   0.00000   2.05011
    R9        2.04862   0.00008  -0.00008   0.00016   0.00008   2.04870
    A1        2.11662   0.00010  -0.00006   0.00065   0.00059   2.11721
    A2        2.09693  -0.00002  -0.00013  -0.00024  -0.00037   2.09657
    A3        2.06951  -0.00008   0.00019  -0.00036  -0.00017   2.06934
    A4        2.25220  -0.00075  -0.00011  -0.00349  -0.00361   2.24859
    A5        2.04855   0.00116   0.00013   0.00389   0.00402   2.05257
    A6        1.97604  -0.00014   0.00007  -0.00016  -0.00008   1.97596
    A7        2.16762  -0.00009  -0.00024  -0.00087  -0.00112   2.16650
    A8        2.01076  -0.00012   0.00016  -0.00012   0.00004   2.01080
    A9        2.09952   0.00048   0.00014   0.00158   0.00172   2.10124
   A10        2.12546  -0.00001  -0.00006  -0.00008  -0.00014   2.12532
   A11        2.10875   0.00017  -0.00011   0.00103   0.00092   2.10966
   A12        2.04872  -0.00016   0.00017  -0.00093  -0.00076   2.04796
    D1       -3.05805  -0.00144  -0.00049  -0.00300  -0.00349  -3.06154
    D2       -0.04697   0.00134   0.00037  -0.00045  -0.00007  -0.04704
    D3        0.10035  -0.00154  -0.00062  -0.00676  -0.00738   0.09297
    D4        3.11144   0.00124   0.00023  -0.00420  -0.00397   3.10748
    D5        2.44365   0.00551   0.00000   0.00000   0.00000   2.44365
    D6       -0.58756   0.00273  -0.00063  -0.00627  -0.00690  -0.59446
    D7       -0.57186   0.00274  -0.00083  -0.00273  -0.00356  -0.57542
    D8        2.68012  -0.00004  -0.00147  -0.00900  -0.01046   2.66966
    D9        0.08980  -0.00146  -0.00051  -0.00413  -0.00464   0.08516
   D10       -3.07684  -0.00144  -0.00039  -0.00333  -0.00372  -3.08056
   D11        3.11571   0.00142   0.00015   0.00233   0.00248   3.11819
   D12       -0.05093   0.00144   0.00028   0.00313   0.00341  -0.04753
         Item               Value     Threshold  Converged?
 Maximum Force            0.001717     0.000450     NO 
 RMS     Force            0.000523     0.000300     NO 
 Maximum Displacement     0.012346     0.001800     NO 
 RMS     Displacement     0.004324     0.001200     NO 
 Predicted change in Energy=-1.475726D-05
 Lowest energy point so far.  Saving SCF results.
 GradGradGradGradGradGradGradGradGradGradGradGradGradGradGradGradGradGrad

 Leave Link  103 at Wed May 12 11:56:12 2021, MaxMem=  2147483648 cpu:         0.1
 (Enter /opt/cluster/programs/g09_d.01/g09/l202.exe)
                          Input orientation:                          
 ---------------------------------------------------------------------
 Center     Atomic      Atomic             Coordinates (Angstroms)
 Number     Number       Type             X           Y           Z
 ---------------------------------------------------------------------
      1          6           0       -1.648855   -0.732293   -0.185954
      2          6           0       -0.520316   -0.086749    0.095150
      3          6           0        0.833661   -0.625991    0.245119
      4          6           0        1.936947   -0.023057   -0.212913
      5          1           0       -2.577683   -0.199420   -0.341296
      6          1           0       -1.654716   -1.813285   -0.252000
      7          9           0       -0.564159    1.325960    0.126617
      8          1           0        0.890168   -1.622369    0.676656
      9          1           0        1.903112    0.961593   -0.667075
     10          1           0        2.908020   -0.496497   -0.122359
 ---------------------------------------------------------------------
                    Distance matrix (angstroms):
                    1          2          3          4          5
     1  C    0.000000
     2  C    1.330167   0.000000
     3  C    2.521905   1.465103   0.000000
     4  C    3.655368   2.477318   1.338119   0.000000
     5  H    1.082038   2.106167   3.487565   4.519897   0.000000
     6  H    1.083024   2.094827   2.801574   4.013289   1.861290
     7  F    2.347482   1.413740   2.403758   2.861933   2.569048
     8  H    2.825415   2.164658   1.087285   2.108288   3.884199
     9  H    3.964491   2.748275   2.120435   1.084871   4.640216
    10  H    4.563414   3.459580   2.110634   1.084125   5.498102
                    6          7          8          9         10
     6  H    0.000000
     7  F    3.344776   0.000000
     8  H    2.715748   3.333205   0.000000
     9  H    4.531046   2.617276   3.083591   0.000000
    10  H    4.750716   3.929296   2.444942   1.852723   0.000000
 Stoichiometry    C4H5F
 Framework group  C1[X(C4H5F)]
 Deg. of freedom    24
 Full point group                 C1      NOp   1
 RotChk:  IX=0 Diff= 3.34D-03
 Largest Abelian subgroup         C1      NOp   1
 Largest concise Abelian subgroup C1      NOp   1
                         Standard orientation:                         
 ---------------------------------------------------------------------
 Center     Atomic      Atomic             Coordinates (Angstroms)
 Number     Number       Type             X           Y           Z
 ---------------------------------------------------------------------
      1          6           0        1.645794   -0.739159    0.183429
      2          6           0        0.520087   -0.086768   -0.093183
      3          6           0       -0.835806   -0.619388   -0.249385
      4          6           0       -1.937255   -0.016235    0.212762
      5          1           0        2.576510   -0.211301    0.344486
      6          1           0        1.647383   -1.820708    0.239922
      7          9           0        0.569450    1.325983   -0.112110
      8          1           0       -0.895698   -1.611686   -0.689776
      9          1           0       -1.900105    0.964224    0.675648
     10          1           0       -2.910057   -0.485072    0.116970
 ---------------------------------------------------------------------
 Rotational constants (GHZ):      9.2614638      4.1783799      2.9856172
 Leave Link  202 at Wed May 12 11:56:12 2021, MaxMem=  2147483648 cpu:         0.0
 (Enter /opt/cluster/programs/g09_d.01/g09/l301.exe)
 Standard basis: 6-31+G (6D, 7F)
 Ernie: Thresh=  0.10000D-02 Tol=  0.10000D-05 Strict=F.
 There are    75 symmetry adapted cartesian basis functions of A   symmetry.
 There are    75 symmetry adapted basis functions of A   symmetry.
    75 basis functions,   150 primitive gaussians,    75 cartesian basis functions
    19 alpha electrons       19 beta electrons
       nuclear repulsion energy       157.6106936452 Hartrees.
 IExCor= 4639 DFT=T Ex+Corr=wB97XD ExCW=0 ScaHFX=  1.000000
 ScaDFX=  1.000000  1.000000  1.000000  1.000000 ScalE2=  1.000000  1.000000
 IRadAn=      0 IRanWt=     -1 IRanGd=            0 ICorTp=0 IEmpDi=121
  HFx wShort=  0.000000 wLong=  0.200000 cFull=  0.222036 cShort=  0.000000 cLong=  0.777964
  DFx wShort=  0.000000 wLong=  0.200000 cFull=  0.000000 cShort=  0.000000 cLong=  1.000000
 NAtoms=   10 NActive=   10 NUniq=   10 SFac= 1.00D+00 NAtFMM=   60 NAOKFM=F Big=F
 Integral buffers will be    131072 words long.
 Raffenetti 2 integral format.
 Two-electron integral symmetry is turned on.
 R6Disp:  Grimme-D2 Dispersion energy=       -0.0029693395 Hartrees.
 Nuclear repulsion after empirical dispersion term =      157.6077243057 Hartrees.
 Leave Link  301 at Wed May 12 11:56:12 2021, MaxMem=  2147483648 cpu:         0.3
 (Enter /opt/cluster/programs/g09_d.01/g09/l302.exe)
 NPDir=0 NMtPBC=     1 NCelOv=     1 NCel=       1 NClECP=     1 NCelD=      1
         NCelK=      1 NCelE2=     1 NClLst=     1 CellRange=     0.0.
 One-electron integrals computed using PRISM.
 NBasis=    75 RedAO= T EigKep=  6.56D-05  NBF=    75
 NBsUse=    75 1.00D-06 EigRej= -1.00D+00 NBFU=    75
 Precomputing XC quadrature grid using
 IXCGrd= 4 IRadAn=           0 IRanWt=          -1 IRanGd=           0 AccXCQ= 0.00D+00.
 Generated NRdTot=       0 NPtTot=           0 NUsed=           0 NTot=          32
 NSgBfM=    75    75    75    75    75 MxSgAt=    10 MxSgA2=    10.
 Leave Link  302 at Wed May 12 11:56:12 2021, MaxMem=  2147483648 cpu:         0.9
 (Enter /opt/cluster/programs/g09_d.01/g09/l303.exe)
 DipDrv:  MaxL=1.
 Leave Link  303 at Wed May 12 11:56:12 2021, MaxMem=  2147483648 cpu:         0.2
 (Enter /opt/cluster/programs/g09_d.01/g09/l401.exe)
 Initial guess from the checkpoint file:  "/home/unibas/boittier/RDKit_G2/B.pdb/SCAN_1_2_3_4_S_17_20.0/16_SCAN_1_2_3_4_F/B.pdb.chk"
 B after Tr=     0.000000    0.000000    0.000000
         Rot=    1.000000   -0.000333    0.000028   -0.000041 Ang=  -0.04 deg.
 Guess basis will be translated and rotated to current coordinates.
 JPrj=2 DoOrth=T DoCkMO=T.
 Leave Link  401 at Wed May 12 11:56:12 2021, MaxMem=  2147483648 cpu:         0.6
 (Enter /opt/cluster/programs/g09_d.01/g09/l502.exe)
 Closed shell SCF:
 Using DIIS extrapolation, IDIIS=  1040.
 Integral symmetry usage will be decided dynamically.
 Keep R1 ints in memory in canonical form, NReq=9056162.
 IVT=       36600 IEndB=       36600 NGot=  2147483648 MDV=  2139321699
 LenX=  2139321699 LenY=  2139315633
 Requested convergence on RMS density matrix=1.00D-08 within 128 cycles.
 Requested convergence on MAX density matrix=1.00D-06.
 Requested convergence on             energy=1.00D-06.
 No special actions if energy rises.
 FoFCou: FMM=F IPFlag=           0 FMFlag=           0 FMFlg1=           0
         NFxFlg=           0 DoJE=F BraDBF=F KetDBF=F FulRan=T
         wScrn=  0.000000 ICntrl=     600 IOpCl=  0 I1Cent=           0 NGrid=           0
         NMat0=    1 NMatS0=   2850 NMatT0=    0 NMatD0=    1 NMtDS0=    0 NMtDT0=    0
 Symmetry not used in FoFCou.

 Cycle   1  Pass 1  IDiag  1:
 E= -255.097656922439    
 DIIS: error= 2.46D-04 at cycle   1 NSaved=   1.
 NSaved= 1 IEnMin= 1 EnMin= -255.097656922439     IErMin= 1 ErrMin= 2.46D-04
 ErrMax= 2.46D-04  0.00D+00 EMaxC= 1.00D-01 BMatC= 1.18D-05 BMatP= 1.18D-05
 IDIUse=3 WtCom= 9.98D-01 WtEn= 2.46D-03
 Coeff-Com:  0.100D+01
 Coeff-En:   0.100D+01
 Coeff:      0.100D+01
 Gap=     0.574 Goal=   None    Shift=    0.000
 RMSDP=1.47D-04 MaxDP=1.75D-03              OVMax= 1.25D-03

 Cycle   2  Pass 1  IDiag  1:
 E= -255.097677932404     Delta-E=       -0.000021009965 Rises=F Damp=F
 DIIS: error= 1.43D-04 at cycle   2 NSaved=   2.
 NSaved= 2 IEnMin= 2 EnMin= -255.097677932404     IErMin= 2 ErrMin= 1.43D-04
 ErrMax= 1.43D-04  0.00D+00 EMaxC= 1.00D-01 BMatC= 1.95D-06 BMatP= 1.18D-05
 IDIUse=3 WtCom= 9.99D-01 WtEn= 1.43D-03
 Coeff-Com:  0.957D-01 0.904D+00
 Coeff-En:   0.000D+00 0.100D+01
 Coeff:      0.956D-01 0.904D+00
 Gap=     0.352 Goal=   None    Shift=    0.000
 RMSDP=5.19D-05 MaxDP=1.01D-03 DE=-2.10D-05 OVMax= 5.06D-04

 Cycle   3  Pass 1  IDiag  1:
 E= -255.097679476531     Delta-E=       -0.000001544127 Rises=F Damp=F
 DIIS: error= 1.35D-04 at cycle   3 NSaved=   3.
 NSaved= 3 IEnMin= 3 EnMin= -255.097679476531     IErMin= 3 ErrMin= 1.35D-04
 ErrMax= 1.35D-04  0.00D+00 EMaxC= 1.00D-01 BMatC= 1.61D-06 BMatP= 1.95D-06
 IDIUse=3 WtCom= 9.99D-01 WtEn= 1.35D-03
 Coeff-Com: -0.122D+00 0.509D+00 0.613D+00
 Coeff-En:   0.000D+00 0.706D-01 0.929D+00
 Coeff:     -0.122D+00 0.508D+00 0.614D+00
 Gap=     0.352 Goal=   None    Shift=    0.000
 RMSDP=3.12D-05 MaxDP=8.39D-04 DE=-1.54D-06 OVMax= 2.59D-04

 Cycle   4  Pass 1  IDiag  1:
 E= -255.097680771681     Delta-E=       -0.000001295150 Rises=F Damp=F
 DIIS: error= 1.58D-05 at cycle   4 NSaved=   4.
 NSaved= 4 IEnMin= 4 EnMin= -255.097680771681     IErMin= 4 ErrMin= 1.58D-05
 ErrMax= 1.58D-05  0.00D+00 EMaxC= 1.00D-01 BMatC= 1.58D-08 BMatP= 1.61D-06
 IDIUse=1 WtCom= 1.00D+00 WtEn= 0.00D+00
 Coeff-Com:  0.666D-02-0.971D-01-0.430D-01 0.113D+01
 Coeff:      0.666D-02-0.971D-01-0.430D-01 0.113D+01
 Gap=     0.352 Goal=   None    Shift=    0.000
 RMSDP=9.01D-06 MaxDP=1.15D-04 DE=-1.30D-06 OVMax= 1.25D-04

 Cycle   5  Pass 1  IDiag  1:
 E= -255.097680826337     Delta-E=       -0.000000054656 Rises=F Damp=F
 DIIS: error= 6.54D-06 at cycle   5 NSaved=   5.
 NSaved= 5 IEnMin= 5 EnMin= -255.097680826337     IErMin= 5 ErrMin= 6.54D-06
 ErrMax= 6.54D-06  0.00D+00 EMaxC= 1.00D-01 BMatC= 3.45D-09 BMatP= 1.58D-08
 IDIUse=1 WtCom= 1.00D+00 WtEn= 0.00D+00
 Coeff-Com:  0.141D-01-0.835D-01-0.763D-01 0.407D+00 0.739D+00
 Coeff:      0.141D-01-0.835D-01-0.763D-01 0.407D+00 0.739D+00
 Gap=     0.352 Goal=   None    Shift=    0.000
 RMSDP=2.53D-06 MaxDP=2.65D-05 DE=-5.47D-08 OVMax= 3.30D-05

 Cycle   6  Pass 1  IDiag  1:
 E= -255.097680832593     Delta-E=       -0.000000006257 Rises=F Damp=F
 DIIS: error= 1.29D-06 at cycle   6 NSaved=   6.
 NSaved= 6 IEnMin= 6 EnMin= -255.097680832593     IErMin= 6 ErrMin= 1.29D-06
 ErrMax= 1.29D-06  0.00D+00 EMaxC= 1.00D-01 BMatC= 2.09D-10 BMatP= 3.45D-09
 IDIUse=1 WtCom= 1.00D+00 WtEn= 0.00D+00
 Coeff-Com:  0.234D-02-0.768D-02-0.136D-01-0.201D-01 0.145D+00 0.894D+00
 Coeff:      0.234D-02-0.768D-02-0.136D-01-0.201D-01 0.145D+00 0.894D+00
 Gap=     0.352 Goal=   None    Shift=    0.000
 RMSDP=9.19D-07 MaxDP=1.31D-05 DE=-6.26D-09 OVMax= 1.33D-05

 Cycle   7  Pass 1  IDiag  1:
 E= -255.097680833031     Delta-E=       -0.000000000438 Rises=F Damp=F
 DIIS: error= 8.77D-07 at cycle   7 NSaved=   7.
 NSaved= 7 IEnMin= 7 EnMin= -255.097680833031     IErMin= 7 ErrMin= 8.77D-07
 ErrMax= 8.77D-07  0.00D+00 EMaxC= 1.00D-01 BMatC= 5.70D-11 BMatP= 2.09D-10
 IDIUse=1 WtCom= 1.00D+00 WtEn= 0.00D+00
 Coeff-Com: -0.844D-03 0.750D-02 0.346D-02-0.614D-01-0.303D-01 0.395D+00
 Coeff-Com:  0.687D+00
 Coeff:     -0.844D-03 0.750D-02 0.346D-02-0.614D-01-0.303D-01 0.395D+00
 Coeff:      0.687D+00
 Gap=     0.352 Goal=   None    Shift=    0.000
 RMSDP=2.44D-07 MaxDP=2.83D-06 DE=-4.38D-10 OVMax= 3.99D-06

 Cycle   8  Pass 1  IDiag  1:
 E= -255.097680833108     Delta-E=       -0.000000000077 Rises=F Damp=F
 DIIS: error= 9.87D-08 at cycle   8 NSaved=   8.
 NSaved= 8 IEnMin= 8 EnMin= -255.097680833108     IErMin= 8 ErrMin= 9.87D-08
 ErrMax= 9.87D-08  0.00D+00 EMaxC= 1.00D-01 BMatC= 1.27D-12 BMatP= 5.70D-11
 IDIUse=1 WtCom= 1.00D+00 WtEn= 0.00D+00
 Coeff-Com: -0.239D-03 0.135D-02 0.137D-02-0.548D-02-0.140D-01-0.169D-01
 Coeff-Com:  0.714D-01 0.963D+00
 Coeff:     -0.239D-03 0.135D-02 0.137D-02-0.548D-02-0.140D-01-0.169D-01
 Coeff:      0.714D-01 0.963D+00
 Gap=     0.352 Goal=   None    Shift=    0.000
 RMSDP=9.58D-08 MaxDP=1.31D-06 DE=-7.70D-11 OVMax= 1.02D-06

 Cycle   9  Pass 1  IDiag  1:
 E= -255.097680833111     Delta-E=       -0.000000000003 Rises=F Damp=F
 DIIS: error= 4.63D-08 at cycle   9 NSaved=   9.
 NSaved= 9 IEnMin= 9 EnMin= -255.097680833111     IErMin= 9 ErrMin= 4.63D-08
 ErrMax= 4.63D-08  0.00D+00 EMaxC= 1.00D-01 BMatC= 2.62D-13 BMatP= 1.27D-12
 IDIUse=1 WtCom= 1.00D+00 WtEn= 0.00D+00
 Coeff-Com: -0.113D-04-0.224D-03 0.181D-03 0.382D-02-0.219D-02-0.415D-01
 Coeff-Com: -0.453D-01 0.324D+00 0.761D+00
 Coeff:     -0.113D-04-0.224D-03 0.181D-03 0.382D-02-0.219D-02-0.415D-01
 Coeff:     -0.453D-01 0.324D+00 0.761D+00
 Gap=     0.352 Goal=   None    Shift=    0.000
 RMSDP=3.66D-08 MaxDP=6.98D-07 DE=-2.73D-12 OVMax= 4.49D-07

 Cycle  10  Pass 1  IDiag  1:
 E= -255.097680833112     Delta-E=       -0.000000000001 Rises=F Damp=F
 DIIS: error= 2.96D-08 at cycle  10 NSaved=  10.
 NSaved=10 IEnMin=10 EnMin= -255.097680833112     IErMin=10 ErrMin= 2.96D-08
 ErrMax= 2.96D-08  0.00D+00 EMaxC= 1.00D-01 BMatC= 3.25D-14 BMatP= 2.62D-13
 IDIUse=1 WtCom= 1.00D+00 WtEn= 0.00D+00
 Coeff-Com:  0.195D-04-0.201D-03-0.810D-04 0.186D-02 0.502D-03-0.117D-01
 Coeff-Com: -0.246D-01 0.153D-01 0.262D+00 0.757D+00
 Coeff:      0.195D-04-0.201D-03-0.810D-04 0.186D-02 0.502D-03-0.117D-01
 Coeff:     -0.246D-01 0.153D-01 0.262D+00 0.757D+00
 Gap=     0.352 Goal=   None    Shift=    0.000
 RMSDP=1.77D-08 MaxDP=4.07D-07 DE=-1.14D-12 OVMax= 1.05D-07

 Cycle  11  Pass 1  IDiag  1:
 E= -255.097680833110     Delta-E=        0.000000000002 Rises=F Damp=F
 DIIS: error= 4.95D-09 at cycle  11 NSaved=  11.
 NSaved=11 IEnMin=10 EnMin= -255.097680833112     IErMin=11 ErrMin= 4.95D-09
 ErrMax= 4.95D-09  0.00D+00 EMaxC= 1.00D-01 BMatC= 3.67D-15 BMatP= 3.25D-14
 IDIUse=1 WtCom= 1.00D+00 WtEn= 0.00D+00
 Coeff-Com:  0.861D-05-0.385D-04-0.590D-04 0.107D-03 0.443D-03 0.214D-02
 Coeff-Com: -0.267D-02-0.417D-01-0.148D-01 0.257D+00 0.799D+00
 Coeff:      0.861D-05-0.385D-04-0.590D-04 0.107D-03 0.443D-03 0.214D-02
 Coeff:     -0.267D-02-0.417D-01-0.148D-01 0.257D+00 0.799D+00
 Gap=     0.352 Goal=   None    Shift=    0.000
 RMSDP=7.05D-09 MaxDP=1.53D-07 DE= 1.71D-12 OVMax= 5.16D-08

 SCF Done:  E(RwB97XD) =  -255.097680833     A.U. after   11 cycles
            NFock= 11  Conv=0.70D-08     -V/T= 2.0056
 KE= 2.536711817170D+02 PE=-9.128999558378D+02 EE= 2.465233689820D+02
 Leave Link  502 at Wed May 12 11:56:20 2021, MaxMem=  2147483648 cpu:        55.9
 (Enter /opt/cluster/programs/g09_d.01/g09/l701.exe)
 Compute integral first derivatives.
 ... and contract with generalized density number  0.
 R6Disp: Adding Grimme-D2 dispersion energy 1st derivatives to the gradient.
 Leave Link  701 at Wed May 12 11:56:20 2021, MaxMem=  2147483648 cpu:         0.6
 (Enter /opt/cluster/programs/g09_d.01/g09/l702.exe)
 L702 exits ... SP integral derivatives will be done elsewhere.
 Leave Link  702 at Wed May 12 11:56:20 2021, MaxMem=  2147483648 cpu:         0.2
 (Enter /opt/cluster/programs/g09_d.01/g09/l703.exe)
 Compute integral first derivatives, UseDBF=F ICtDFT=           0.
 Integral derivatives from FoFJK, PRISM(SPDF).
 Calling FoFJK, ICntrl=      2127 FMM=F ISym2X=0 I1Cent= 0 IOpClX= 0 NMat=1 NMatS=1 NMatT=0.
 FoFJK:  IHMeth= 1 ICntrl=    2127 DoSepK=T KAlg= 0 I1Cent=   0 FoldK=F
 IRaf=         1 NMat=   1 IRICut=       1 DoRegI=T DoRafI=F ISym2E= 0.
 FoFCou: FMM=F IPFlag=           0 FMFlag=      100000 FMFlg1=         800
         NFxFlg=           0 DoJE=F BraDBF=F KetDBF=F FulRan=T
         wScrn=  0.000000 ICntrl=    2527 IOpCl=  0 I1Cent=           0 NGrid=           0
         NMat0=    1 NMatS0=      1 NMatT0=    0 NMatD0=    1 NMtDS0=    0 NMtDT0=    0
 Symmetry not used in FoFCou.
 Leave Link  703 at Wed May 12 11:56:20 2021, MaxMem=  2147483648 cpu:         3.3
 (Enter /opt/cluster/programs/g09_d.01/g09/l716.exe)
 Dipole        =-2.16362514D-01-8.31978390D-01 1.02329180D-01
 ***** Axes restored to original set *****
 -------------------------------------------------------------------
 Center     Atomic                   Forces (Hartrees/Bohr)
 Number     Number              X              Y              Z
 -------------------------------------------------------------------
      1        6          -0.001089726   -0.001234005    0.005369942
      2        6           0.001696929    0.003775301   -0.006288854
      3        6          -0.001309776   -0.004817099   -0.003554286
      4        6           0.000638322    0.002638656    0.004470440
      5        1          -0.000096051   -0.000022248    0.000018625
      6        1           0.000000541   -0.000006837    0.000017044
      7        9           0.000075942   -0.000384984    0.000018611
      8        1          -0.000034101   -0.000001367    0.000005062
      9        1           0.000040332    0.000029818   -0.000032107
     10        1           0.000077588    0.000022766   -0.000024477
 -------------------------------------------------------------------
 Cartesian Forces:  Max     0.006288854 RMS     0.002260627
 Leave Link  716 at Wed May 12 11:56:20 2021, MaxMem=  2147483648 cpu:         0.2
 (Enter /opt/cluster/programs/g09_d.01/g09/l103.exe)

 GradGradGradGradGradGradGradGradGradGradGradGradGradGradGradGradGradGrad
 Berny optimization.
 Using GEDIIS/GDIIS optimizer.
 FormGI is forming the generalized inverse of G from B-inverse, IUseBI=4.
 Internal  Forces:  Max     0.005390989 RMS     0.001352572
 Search for a local minimum.
 Step number   3 out of a maximum of   43
 All quantities printed in internal units (Hartrees-Bohrs-Radians)
 RMS Force = .18176D-03 SwitMx=.10000D-02 MixMth= 2
 Mixed Optimization -- En-DIIS/RFO-DIIS
 Swapping is turned off.
 Update second derivatives using D2CorX and points    1    2    3
[...]
 Dipole        =-2.16812330D-01-8.29834796D-01 1.01311837D-01
 ***** Axes restored to original set *****
 -------------------------------------------------------------------
 Center     Atomic                   Forces (Hartrees/Bohr)
 Number     Number              X              Y              Z
 -------------------------------------------------------------------
      1        6          -0.000929114   -0.000761959    0.005469108
      2        6           0.001766335    0.002539005   -0.006077787
      3        6          -0.001374900   -0.004276898   -0.003836591
      4        6           0.000532137    0.002504359    0.004533643
      5        1          -0.000006783   -0.000017486   -0.000030994
      6        1           0.000012798   -0.000005820   -0.000007474
      7        9          -0.000010473    0.000002872   -0.000057199
      8        1          -0.000014282    0.000004615    0.000004870
      9        1           0.000011333    0.000001721   -0.000004860
     10        1           0.000012950    0.000009592    0.000007283
 -------------------------------------------------------------------
 Cartesian Forces:  Max     0.006077787 RMS     0.002159299
 Leave Link  716 at Wed May 12 11:56:26 2021, MaxMem=  2147483648 cpu:         0.2
 (Enter /opt/cluster/programs/g09_d.01/g09/l103.exe)

 GradGradGradGradGradGradGradGradGradGradGradGradGradGradGradGradGradGrad
 Berny optimization.
 Using GEDIIS/GDIIS optimizer.
 FormGI is forming the generalized inverse of G from B-inverse, IUseBI=4.
 Internal  Forces:  Max     0.005351353 RMS     0.001331380
 Search for a local minimum.
 Step number   4 out of a maximum of   43
 All quantities printed in internal units (Hartrees-Bohrs-Radians)
 RMS Force = .31180D-04 SwitMx=.10000D-02 MixMth= 2
 Mixed Optimization -- En-DIIS/RFO-DIIS
 Swapping is turned off.
 Update second derivatives using D2CorX and points    1    2    3    4
 DE= -2.74D-06 DEPred=-2.63D-06 R= 1.04D+00
 TightC=F SS=  1.41D+00  RLast= 7.98D-03 DXNew= 5.0454D-01 2.3946D-02
 Trust test= 1.04D+00 RLast= 7.98D-03 DXMaxT set to 3.00D-01
 ITU=  1  1  1  0
     Eigenvalues ---    0.01730   0.02281   0.02822   0.02833   0.02886
     Eigenvalues ---    0.03060   0.13638   0.15971   0.16000   0.16002
     Eigenvalues ---    0.16099   0.17659   0.22245   0.25336   0.34670
     Eigenvalues ---    0.35194   0.35383   0.35407   0.35563   0.35685
     Eigenvalues ---    0.38665   0.57176   0.659711000.000001000.00000
     Eigenvalues --- 1000.000001000.000001000.000001000.000001000.00000
     Eigenvalues --- 1000.000001000.000001000.00000
 En-DIIS/RFO-DIIS IScMMF=        0 using points:     4    3    2
 RFO step:  Lambda=-1.93913665D-06.
 NNeg= 0 NP= 3 Switch=  2.50D-03 Rises=F DC=  1.90D-05 SmlDif=  1.00D-05
 RMS Error=  0.1116242489D-03 NUsed= 3 EDIIS=F
 DidBck=F Rises=F RFO-DIIS coefs:    0.91222    0.14393   -0.05614
 Iteration  1 RMS(Cart)=  0.00054418 RMS(Int)=  0.00000069
 Iteration  2 RMS(Cart)=  0.00000042 RMS(Int)=  0.00000062
 Iteration  1 RMS(Cart)=  0.00000027 RMS(Int)=  0.00000019
 ITry= 1 IFail=0 DXMaxC= 1.20D-03 DCOld= 1.00D+10 DXMaxT= 3.00D-01 DXLimC= 3.00D+00 Rises=F
 Variable       Old X    -DE/DX   Delta X   Delta X   Delta X     New X
                                 (Linear)    (Quad)   (Total)
    R1        2.51440   0.00002  -0.00001   0.00006   0.00006   2.51446
    R2        2.04496   0.00000  -0.00002   0.00003   0.00001   2.04497
    R3        2.04659   0.00001  -0.00001   0.00002   0.00002   2.04661
    R4        2.77018  -0.00005   0.00008  -0.00013  -0.00005   2.77013
    R5        2.66931   0.00000  -0.00012  -0.00001  -0.00013   2.66918
    R6        2.52908   0.00004   0.00001   0.00006   0.00007   2.52915
    R7        2.05459   0.00000  -0.00001   0.00000  -0.00001   2.05458
    R8        2.05024   0.00001  -0.00001   0.00003   0.00002   2.05026
    R9        2.04885   0.00001  -0.00001   0.00003   0.00002   2.04887
    A1        2.11795   0.00004  -0.00003   0.00030   0.00027   2.11822
    A2        2.09602  -0.00003   0.00003  -0.00023  -0.00020   2.09582
    A3        2.06912  -0.00001   0.00001  -0.00006  -0.00005   2.06907
    A4        2.24549  -0.00002   0.00007  -0.00062  -0.00055   2.24494
    A5        2.05493   0.00027   0.00002   0.00012   0.00014   2.05507
    A6        1.97699   0.00000  -0.00010   0.00036   0.00026   1.97725
    A7        2.16567   0.00011   0.00001   0.00012   0.00013   2.16580
    A8        2.01090  -0.00011  -0.00001  -0.00013  -0.00013   2.01077
    A9        2.10193   0.00023   0.00004  -0.00001   0.00003   2.10196
   A10        2.12533   0.00000  -0.00001   0.00000  -0.00001   2.12532
   A11        2.11020   0.00002   0.00000   0.00011   0.00011   2.11032
   A12        2.04742  -0.00002   0.00000  -0.00012  -0.00012   2.04730
    D1       -3.06506  -0.00132   0.00011   0.00120   0.00131  -3.06375
    D2       -0.04738   0.00136   0.00003  -0.00027  -0.00024  -0.04762
    D3        0.09102  -0.00136  -0.00024   0.00045   0.00021   0.09123
    D4        3.10871   0.00132  -0.00033  -0.00102  -0.00135   3.10736
    D5        2.44365   0.00535   0.00000   0.00000   0.00000   2.44366
    D6       -0.59417   0.00274  -0.00041   0.00020  -0.00021  -0.59439
    D7       -0.57858   0.00275   0.00008   0.00143   0.00150  -0.57708
    D8        2.66678   0.00014  -0.00033   0.00162   0.00129   2.66807
    D9        0.08513  -0.00135  -0.00026   0.00038   0.00012   0.08525
   D10       -3.08026  -0.00137  -0.00024  -0.00017  -0.00040  -3.08066
   D11        3.11782   0.00137   0.00017   0.00017   0.00034   3.11816
   D12       -0.04756   0.00135   0.00019  -0.00038  -0.00019  -0.04775
         Item               Value     Threshold  Converged?
 Maximum Force            0.000095     0.000450     YES
 RMS     Force            0.000031     0.000300     YES
 Maximum Displacement     0.001204     0.001800     YES
 RMS     Displacement     0.000544     0.001200     YES
 Predicted change in Energy=-1.914751D-07
 Optimization completed.
    -- Stationary point found.
                           ----------------------------
                           !   Optimized Parameters   !
                           ! (Angstroms and Degrees)  !
 --------------------------                            --------------------------
 ! Name  Definition              Value          Derivative Info.                !
 --------------------------------------------------------------------------------
 ! R1    R(1,2)                  1.3306         -DE/DX =    0.0                 !
 ! R2    R(1,5)                  1.0821         -DE/DX =    0.0                 !
 ! R3    R(1,6)                  1.083          -DE/DX =    0.0                 !
 ! R4    R(2,3)                  1.4659         -DE/DX =   -0.0001              !
 ! R5    R(2,7)                  1.4125         -DE/DX =    0.0                 !
 ! R6    R(3,4)                  1.3383         -DE/DX =    0.0                 !
 ! R7    R(3,8)                  1.0872         -DE/DX =    0.0                 !
 ! R8    R(4,9)                  1.0849         -DE/DX =    0.0                 !
 ! R9    R(4,10)                 1.0842         -DE/DX =    0.0                 !
 ! A1    A(2,1,5)              121.3497         -DE/DX =    0.0                 !
 ! A2    A(2,1,6)              120.0932         -DE/DX =    0.0                 !
 ! A3    A(5,1,6)              118.5521         -DE/DX =    0.0                 !
 ! A4    A(1,2,3)              128.6569         -DE/DX =    0.0                 !
 ! A5    A(1,2,7)              117.7389         -DE/DX =    0.0003              !
 ! A6    A(3,2,7)              113.2733         -DE/DX =    0.0                 !
 ! A7    A(2,3,4)              124.0837         -DE/DX =    0.0001              !
 ! A8    A(2,3,8)              115.2162         -DE/DX =   -0.0001              !
 ! A9    A(4,3,8)              120.4319         -DE/DX =    0.0002              !
 ! A10   A(3,4,9)              121.7724         -DE/DX =    0.0                 !
 ! A11   A(3,4,10)             120.9058         -DE/DX =    0.0                 !
 ! A12   A(9,4,10)             117.3085         -DE/DX =    0.0                 !
 ! D1    D(5,1,2,3)           -175.6151         -DE/DX =   -0.0013              !
 ! D2    D(5,1,2,7)             -2.7145         -DE/DX =    0.0014              !
 ! D3    D(6,1,2,3)              5.215          -DE/DX =   -0.0014              !
 ! D4    D(6,1,2,7)            178.1157         -DE/DX =    0.0013              !
 ! D5    D(1,2,3,4)            140.011          -DE/DX =    0.0054              !
 ! D6    D(1,2,3,8)            -34.0436         -DE/DX =    0.0027              !
 ! D7    D(7,2,3,4)            -33.1502         -DE/DX =    0.0028              !
 ! D8    D(7,2,3,8)            152.7952         -DE/DX =    0.0001              !
 ! D9    D(2,3,4,9)              4.8775         -DE/DX =   -0.0014              !
 ! D10   D(2,3,4,10)          -176.4857         -DE/DX =   -0.0014              !
 ! D11   D(8,3,4,9)            178.6381         -DE/DX =    0.0014              !
 ! D12   D(8,3,4,10)            -2.7251         -DE/DX =    0.0014              !
 --------------------------------------------------------------------------------
 Lowest energy point so far.  Saving SCF results.
 GradGradGradGradGradGradGradGradGradGradGradGradGradGradGradGradGradGrad

 Largest change from initial coordinates is atom    8       0.018 Angstoms.
 Leave Link  103 at Wed May 12 11:56:26 2021, MaxMem=  2147483648 cpu:         0.1
 (Enter /opt/cluster/programs/g09_d.01/g09/l202.exe)
                          Input orientation:                          
 ---------------------------------------------------------------------
 Center     Atomic      Atomic             Coordinates (Angstroms)
 Number     Number       Type             X           Y           Z
 ---------------------------------------------------------------------
      1          6           0       -1.648372   -0.732121   -0.186724
      2          6           0       -0.520736   -0.084234    0.094488
      3          6           0        0.833151   -0.625626    0.245463
      4          6           0        1.937035   -0.023750   -0.213141
      5          1           0       -2.579047   -0.201792   -0.340469
      6          1           0       -1.651519   -1.813098   -0.252995
      7          9           0       -0.564436    1.327213    0.128646
      8          1           0        0.888148   -1.621802    0.677558
      9          1           0        1.903906    0.960637   -0.668090
     10          1           0        2.908049   -0.497536   -0.122789
 ---------------------------------------------------------------------
                    Distance matrix (angstroms):
                    1          2          3          4          5
     1  C    0.000000
     2  C    1.330565   0.000000
     3  C    2.521128   1.465916   0.000000
     4  C    3.654809   2.477687   1.338332   0.000000
     5  H    1.082147   2.107049   3.487986   4.521384   0.000000
     6  H    1.083011   2.094848   2.798595   4.010122   1.861254
     7  F    2.348453   1.412536   2.404262   2.863437   2.572272
     8  H    2.823553   2.165419   1.087243   2.108857   3.882557
     9  H    3.964319   2.748121   2.120690   1.084939   4.642784
    10  H    4.562904   3.460432   2.111212   1.084207   5.499370
                    6          7          8          9         10
     6  H    0.000000
     7  F    3.344989   0.000000
     8  H    2.711537   3.332865   0.000000
     9  H    4.528461   2.619518   3.084076   0.000000
    10  H    4.747348   3.930785   2.446329   1.852546   0.000000
 Stoichiometry    C4H5F
 Framework group  C1[X(C4H5F)]
 Deg. of freedom    24
 Full point group                 C1      NOp   1
 RotChk:  IX=0 Diff= 3.21D-16
 Largest Abelian subgroup         C1      NOp   1
 Largest concise Abelian subgroup C1      NOp   1
                         Standard orientation:                         
 ---------------------------------------------------------------------
 Center     Atomic      Atomic             Coordinates (Angstroms)
 Number     Number       Type             X           Y           Z
 ---------------------------------------------------------------------
      1          6           0        1.644717   -0.740819    0.183763
      2          6           0        0.520365   -0.085050   -0.092286
      3          6           0       -0.835758   -0.618774   -0.250328
      4          6           0       -1.937491   -0.016551    0.212967
      5          1           0        2.577580   -0.216273    0.343954
      6          1           0        1.642908   -1.822411    0.239173
      7          9           0        0.570470    1.326456   -0.112207
      8          1           0       -0.894703   -1.610301   -0.692477
      9          1           0       -1.900495    0.963058    0.677824
     10          1           0       -2.910517   -0.485012    0.116686
 ---------------------------------------------------------------------
 Rotational constants (GHZ):      9.2524632      4.1784022      2.9851293
 Leave Link  202 at Wed May 12 11:56:26 2021, MaxMem=  2147483648 cpu:         0.0
 (Enter /opt/cluster/programs/g09_d.01/g09/l601.exe)
 Copying SCF densities to generalized density rwf, IOpCl= 0 IROHF=0.

 **********************************************************************

            Population analysis using the SCF density.

 **********************************************************************

 Orbital symmetries:
       Occupied  (A) (A) (A) (A) (A) (A) (A) (A) (A) (A) (A) (A)
                 (A) (A) (A) (A) (A) (A) (A)
       Virtual   (A) (A) (A) (A) (A) (A) (A) (A) (A) (A) (A) (A)
                 (A) (A) (A) (A) (A) (A) (A) (A) (A) (A) (A) (A)
                 (A) (A) (A) (A) (A) (A) (A) (A) (A) (A) (A) (A)
                 (A) (A) (A) (A) (A) (A) (A) (A) (A) (A) (A) (A)
                 (A) (A) (A) (A) (A) (A) (A) (A)
 The electronic state is 1-A.
 Alpha  occ. eigenvalues --  -24.83087 -10.40280 -10.32944 -10.31557 -10.31016
 Alpha  occ. eigenvalues --   -1.31076  -0.92771  -0.86430  -0.73178  -0.66410
 Alpha  occ. eigenvalues --   -0.60223  -0.58525  -0.55074  -0.52768  -0.50537
 Alpha  occ. eigenvalues --   -0.48342  -0.45534  -0.40443  -0.33109
 Alpha virt. eigenvalues --    0.02080   0.06800   0.08152   0.09545   0.10246
 Alpha virt. eigenvalues --    0.11530   0.12082   0.13024   0.14000   0.14760
 Alpha virt. eigenvalues --    0.15963   0.16798   0.18411   0.19442   0.20206
 Alpha virt. eigenvalues --    0.21363   0.23239   0.24626   0.25254   0.28494
 Alpha virt. eigenvalues --    0.29482   0.30796   0.32293   0.38995   0.41196
 Alpha virt. eigenvalues --    0.42373   0.43497   0.45634   0.48763   0.50136
 Alpha virt. eigenvalues --    0.52121   0.67936   0.74375   0.77157   0.78708
 Alpha virt. eigenvalues --    0.81283   0.83012   0.85142   0.88991   0.92995
 Alpha virt. eigenvalues --    0.98675   1.02689   1.04172   1.09458   1.13474
 Alpha virt. eigenvalues --    1.15665   1.17074   1.23813   1.30654   1.31852
 Alpha virt. eigenvalues --    1.39290   1.41429   1.66715   1.81633   1.85369
 Alpha virt. eigenvalues --    2.37946
          Condensed to atoms (all electrons):
               1          2          3          4          5          6
     1  C    6.187684   0.027041  -0.301673  -0.051683   0.373824   0.335997
     2  C    0.027041   5.460365   0.009742   0.080826  -0.035630  -0.016127
     3  C   -0.301673   0.009742   6.100166   0.161302   0.013993   0.017796
     4  C   -0.051683   0.080826   0.161302   5.468568   0.001216   0.000534
     5  H    0.373824  -0.035630   0.013993   0.001216   0.449594  -0.019427
     6  H    0.335997  -0.016127   0.017796   0.000534  -0.019427   0.468872
     7  F   -0.154372   0.288916  -0.148074   0.002349  -0.003412   0.004304
     8  H    0.006378  -0.015087   0.331764  -0.014446   0.000049   0.000346
     9  H   -0.002972   0.004032  -0.051673   0.395613   0.000002  -0.000002
    10  H    0.003144   0.017777  -0.030724   0.359470   0.000001  -0.000002
               7          8          9         10
     1  C   -0.154372   0.006378  -0.002972   0.003144
     2  C    0.288916  -0.015087   0.004032   0.017777
     3  C   -0.148074   0.331764  -0.051673  -0.030724
     4  C    0.002349  -0.014446   0.395613   0.359470
     5  H   -0.003412   0.000049   0.000002   0.000001
     6  H    0.004304   0.000346  -0.000002  -0.000002
     7  F    9.320199   0.003798  -0.000234   0.000258
     8  H    0.003798   0.469129   0.002534  -0.003746
     9  H   -0.000234   0.002534   0.455022  -0.023060
    10  H    0.000258  -0.003746  -0.023060   0.479075
 Mulliken charges:
               1
     1  C   -0.423369
     2  C    0.178145
     3  C   -0.102619
     4  C   -0.403750
     5  H    0.219790
     6  H    0.207710
     7  F   -0.313731
     8  H    0.219280
     9  H    0.220738
    10  H    0.197807
 Sum of Mulliken charges =   0.00000
 Mulliken charges with hydrogens summed into heavy atoms:
               1
     1  C    0.004131
     2  C    0.178145
     3  C    0.116660
     4  C    0.014796
     7  F   -0.313731
 Electronic spatial extent (au):  <R**2>=            423.5803
 Charge=              0.0000 electrons
 Dipole moment (field-independent basis, Debye):
    X=             -0.5511    Y=             -2.1092    Z=              0.2575  Tot=              2.1952
 Quadrupole moment (field-independent basis, Debye-Ang):
   XX=            -25.1921   YY=            -30.0345   ZZ=            -31.9617
   XY=             -1.2858   XZ=              0.2555   YZ=              1.4661
 Traceless Quadrupole moment (field-independent basis, Debye-Ang):
   XX=              3.8707   YY=             -0.9717   ZZ=             -2.8990
   XY=             -1.2858   XZ=              0.2555   YZ=              1.4661
 Octapole moment (field-independent basis, Debye-Ang**2):
  XXX=              2.4725  YYY=              1.7698  ZZZ=             -1.0356  XYY=             -0.1415
  XXY=              1.3509  XXZ=              3.1906  XZZ=              1.2015  YZZ=              4.5917
  YYZ=             -0.3629  XYZ=             -2.3547
 Hexadecapole moment (field-independent basis, Debye-Ang**3):
 XXXX=           -324.1814 YYYY=           -137.0711 ZZZZ=            -46.4847 XXXY=              9.8146
 XXXZ=              1.8850 YYYX=             -1.0800 YYYZ=              2.4956 ZZZX=             -1.0844
 ZZZY=              0.7400 XXYY=            -81.8492 XXZZ=            -75.3361 YYZZ=            -31.6234
 XXYZ=              1.9199 YYXZ=              1.4354 ZZXY=              2.3430
 N-N= 1.575958999140D+02 E-N=-9.128720438354D+02  KE= 2.536693259329D+02
 No NMR shielding tensors so no spin-rotation constants.
 Leave Link  601 at Wed May 12 11:56:26 2021, MaxMem=  2147483648 cpu:         0.6
 (Enter /opt/cluster/programs/g09_d.01/g09/l9999.exe)
 1\1\GINC-NODE13\FOpt\RwB97XD\6-31+G\C4H5F1\BOITTIER\12-May-2021\0\\#p 
 wB97XD/6-31+G Opt=ModRedun\\B.pdb\\0,1\C,-1.6483723479,-0.7321211367,-
 0.1867238753\C,-0.5207358304,-0.0842335155,0.0944881537\C,0.8331510438
 ,-0.6256259067,0.2454628401\C,1.9370347725,-0.0237498018,-0.2131414353
 \H,-2.5790473465,-0.2017921763,-0.3404694697\H,-1.6515191743,-1.813098
 0521,-0.2529951634\F,-0.5644356289,1.3272127398,0.1286457601\H,0.88814
 78695,-1.621801559,0.6775581332\H,1.903905935,0.960637224,-0.668090174
 1\H,2.9080487071,-0.4975358158,-0.1227887694\\Version=ES64L-G09RevD.01
 \State=1-A\HF=-255.0976836\RMSD=7.007e-09\RMSF=2.159e-03\Dipole=0.2129
 368,-0.8297438,-0.1099119\Quadrupole=2.8867784,-0.7092168,-2.1775616,0
 .9364516,0.1883805,-1.0774247\PG=C01 [X(C4H5F1)]\\@


 HE WHO LAUGHS LAST PROBABLY DIDN'T GET THE JOKE.
 Job cpu time:       0 days  0 hours  2 minutes 15.1 seconds.
 File lengths (MBytes):  RWF=      5 Int=      0 D2E=      0 Chk=      2 Scr=      1
 Normal termination of Gaussian 09 at Wed May 12 11:56:26 2021.
