B.pdb                                                                   
FOpt      RwB97XD                                                     6-31+G              
Number of atoms                            I               10
Info1-9                                    I   N=           9
          21          21           0           0           0         110
           2          18        -802
Charge                                     I                0
Multiplicity                               I                1
Number of electrons                        I               38
Number of alpha electrons                  I               19
Number of beta electrons                   I               19
Number of basis functions                  I               75
Number of independent functions            I               75
Number of point charges in /Mol/           I                0
Number of translation vectors              I                0
Atomic numbers                             I   N=          10
           6           6           6           6           1           1
           9           1           1           1
Nuclear charges                            R   N=          10
  6.00000000E+00  6.00000000E+00  6.00000000E+00  6.00000000E+00  1.00000000E+00
  1.00000000E+00  9.00000000E+00  1.00000000E+00  1.00000000E+00  1.00000000E+00
Current cartesian coordinates              R   N=          30
  1.60505855E+00  2.51363933E+00  1.09963203E-01  8.80450210E-01  1.06200131E-01
  6.11570421E-02 -1.62867208E+00 -1.04279888E+00  2.50523799E-01 -3.80623782E+00
  1.68248178E-01 -1.90927014E-01  3.57487061E+00  3.02625355E+00 -8.47922520E-02
  2.28872878E-01  4.00495661E+00  3.68609402E-01  2.77741661E+00 -1.75813521E+00
 -1.88050504E-01 -1.63016319E+00 -3.02221133E+00  7.93949918E-01 -3.86809600E+00
  2.12659849E+00 -8.02693135E-01 -5.60582690E+00 -7.84112963E-01  3.30784173E-02
Force Field                                I                0
Int Atom Types                             I   N=          10
           0           0           0           0           0           0
           0           0           0           0
MM charges                                 R   N=          10
  0.00000000E+00  0.00000000E+00  0.00000000E+00  0.00000000E+00  0.00000000E+00
  0.00000000E+00  0.00000000E+00  0.00000000E+00  0.00000000E+00  0.00000000E+00
Integer atomic weights                     I   N=          10
          12          12          12          12           1           1
          19           1           1           1
Real atomic weights                        R   N=          10
  1.20000000E+01  1.20000000E+01  1.20000000E+01  1.20000000E+01  1.00782504E+00
  1.00782504E+00  1.89984032E+01  1.00782504E+00  1.00782504E+00  1.00782504E+00
Atom fragment info                         I   N=          10
           0           0           0           0           0           0
           0           0           0           0
Atom residue num                           I   N=          10
           0           0           0           0           0           0
           0           0           0           0
Nuclear spins                              I   N=          10
           0           0           0           0           1           1
           1           1           1           1
Nuclear ZEff                               R   N=          10
 -3.60000000E+00 -3.60000000E+00 -3.60000000E+00 -3.60000000E+00 -1.00000000E+00
 -1.00000000E+00 -6.75000000E+00 -1.00000000E+00 -1.00000000E+00 -1.00000000E+00
Nuclear ZNuc                               R   N=          10
  6.00000000E+00  6.00000000E+00  6.00000000E+00  6.00000000E+00  1.00000000E+00
  1.00000000E+00  9.00000000E+00  1.00000000E+00  1.00000000E+00  1.00000000E+00
Nuclear QMom                               R   N=          10
  0.00000000E+00  0.00000000E+00  0.00000000E+00  0.00000000E+00  0.00000000E+00
  0.00000000E+00  0.00000000E+00  0.00000000E+00  0.00000000E+00  0.00000000E+00
Nuclear GFac                               R   N=          10
  0.00000000E+00  0.00000000E+00  0.00000000E+00  0.00000000E+00  2.79284600E+00
  2.79284600E+00  2.62886700E+00  2.79284600E+00  2.79284600E+00  2.79284600E+00
MicOpt                                     I   N=          10
          -1          -1          -1          -1          -1          -1
          -1          -1          -1          -1
Number of contracted shells                I               30
Number of primitive shells                 I               75
Pure/Cartesian d shells                    I                1
Pure/Cartesian f shells                    I                0
Highest angular momentum                   I                1
Largest degree of contraction              I                6
Shell types                                I   N=          30
           0          -1          -1          -1           0          -1
          -1          -1           0          -1          -1          -1
           0          -1          -1          -1           0           0
           0           0           0          -1          -1          -1
           0           0           0           0           0           0
Number of primitives per shell             I   N=          30
           6           3           1           1           6           3
           1           1           6           3           1           1
           6           3           1           1           3           1
           3           1           6           3           1           1
           3           1           3           1           3           1
Shell to atom map                          I   N=          30
           1           1           1           1           2           2
           2           2           3           3           3           3
           4           4           4           4           5           5
           6           6           7           7           7           7
           8           8           9           9          10          10
Primitive exponents                        R   N=          75
  3.04752488E+03  4.57369518E+02  1.03948685E+02  2.92101553E+01  9.28666296E+00
  3.16392696E+00  7.86827235E+00  1.88128854E+00  5.44249258E-01  1.68714478E-01
  4.38000000E-02  3.04752488E+03  4.57369518E+02  1.03948685E+02  2.92101553E+01
  9.28666296E+00  3.16392696E+00  7.86827235E+00  1.88128854E+00  5.44249258E-01
  1.68714478E-01  4.38000000E-02  3.04752488E+03  4.57369518E+02  1.03948685E+02
  2.92101553E+01  9.28666296E+00  3.16392696E+00  7.86827235E+00  1.88128854E+00
  5.44249258E-01  1.68714478E-01  4.38000000E-02  3.04752488E+03  4.57369518E+02
  1.03948685E+02  2.92101553E+01  9.28666296E+00  3.16392696E+00  7.86827235E+00
  1.88128854E+00  5.44249258E-01  1.68714478E-01  4.38000000E-02  1.87311370E+01
  2.82539436E+00  6.40121692E-01  1.61277759E-01  1.87311370E+01  2.82539436E+00
  6.40121692E-01  1.61277759E-01  7.00171309E+03  1.05136609E+03  2.39285690E+02
  6.73974453E+01  2.15199573E+01  7.40310130E+00  2.08479528E+01  4.80830834E+00
  1.34406986E+00  3.58151393E-01  1.07600000E-01  1.87311370E+01  2.82539436E+00
  6.40121692E-01  1.61277759E-01  1.87311370E+01  2.82539436E+00  6.40121692E-01
  1.61277759E-01  1.87311370E+01  2.82539436E+00  6.40121692E-01  1.61277759E-01
Contraction coefficients                   R   N=          75
  1.83473713E-03  1.40373228E-02  6.88426223E-02  2.32184443E-01  4.67941348E-01
  3.62311985E-01 -1.19332420E-01 -1.60854152E-01  1.14345644E+00  1.00000000E+00
  1.00000000E+00  1.83473713E-03  1.40373228E-02  6.88426223E-02  2.32184443E-01
  4.67941348E-01  3.62311985E-01 -1.19332420E-01 -1.60854152E-01  1.14345644E+00
  1.00000000E+00  1.00000000E+00  1.83473713E-03  1.40373228E-02  6.88426223E-02
  2.32184443E-01  4.67941348E-01  3.62311985E-01 -1.19332420E-01 -1.60854152E-01
  1.14345644E+00  1.00000000E+00  1.00000000E+00  1.83473713E-03  1.40373228E-02
  6.88426223E-02  2.32184443E-01  4.67941348E-01  3.62311985E-01 -1.19332420E-01
 -1.60854152E-01  1.14345644E+00  1.00000000E+00  1.00000000E+00  3.34946043E-02
  2.34726953E-01  8.13757326E-01  1.00000000E+00  3.34946043E-02  2.34726953E-01
  8.13757326E-01  1.00000000E+00  1.81961690E-03  1.39160796E-02  6.84053245E-02
  2.33185760E-01  4.71267439E-01  3.56618546E-01 -1.08506975E-01 -1.46451658E-01
  1.12868858E+00  1.00000000E+00  1.00000000E+00  3.34946043E-02  2.34726953E-01
  8.13757326E-01  1.00000000E+00  3.34946043E-02  2.34726953E-01  8.13757326E-01
  1.00000000E+00  3.34946043E-02  2.34726953E-01  8.13757326E-01  1.00000000E+00
P(S=P) Contraction coefficients            R   N=          75
  0.00000000E+00  0.00000000E+00  0.00000000E+00  0.00000000E+00  0.00000000E+00
  0.00000000E+00  6.89990666E-02  3.16423961E-01  7.44308291E-01  1.00000000E+00
  1.00000000E+00  0.00000000E+00  0.00000000E+00  0.00000000E+00  0.00000000E+00
  0.00000000E+00  0.00000000E+00  6.89990666E-02  3.16423961E-01  7.44308291E-01
  1.00000000E+00  1.00000000E+00  0.00000000E+00  0.00000000E+00  0.00000000E+00
  0.00000000E+00  0.00000000E+00  0.00000000E+00  6.89990666E-02  3.16423961E-01
  7.44308291E-01  1.00000000E+00  1.00000000E+00  0.00000000E+00  0.00000000E+00
  0.00000000E+00  0.00000000E+00  0.00000000E+00  0.00000000E+00  6.89990666E-02
  3.16423961E-01  7.44308291E-01  1.00000000E+00  1.00000000E+00  0.00000000E+00
  0.00000000E+00  0.00000000E+00  0.00000000E+00  0.00000000E+00  0.00000000E+00
  0.00000000E+00  0.00000000E+00  0.00000000E+00  0.00000000E+00  0.00000000E+00
  0.00000000E+00  0.00000000E+00  0.00000000E+00  7.16287242E-02  3.45912103E-01
  7.22469956E-01  1.00000000E+00  1.00000000E+00  0.00000000E+00  0.00000000E+00
  0.00000000E+00  0.00000000E+00  0.00000000E+00  0.00000000E+00  0.00000000E+00
  0.00000000E+00  0.00000000E+00  0.00000000E+00  0.00000000E+00  0.00000000E+00
Coordinates of each shell                  R   N=          90
  1.60505855E+00  2.51363933E+00  1.09963203E-01  1.60505855E+00  2.51363933E+00
  1.09963203E-01  1.60505855E+00  2.51363933E+00  1.09963203E-01  1.60505855E+00
  2.51363933E+00  1.09963203E-01  8.80450210E-01  1.06200131E-01  6.11570421E-02
  8.80450210E-01  1.06200131E-01  6.11570421E-02  8.80450210E-01  1.06200131E-01
  6.11570421E-02  8.80450210E-01  1.06200131E-01  6.11570421E-02 -1.62867208E+00
 -1.04279888E+00  2.50523799E-01 -1.62867208E+00 -1.04279888E+00  2.50523799E-01
 -1.62867208E+00 -1.04279888E+00  2.50523799E-01 -1.62867208E+00 -1.04279888E+00
  2.50523799E-01 -3.80623782E+00  1.68248178E-01 -1.90927014E-01 -3.80623782E+00
  1.68248178E-01 -1.90927014E-01 -3.80623782E+00  1.68248178E-01 -1.90927014E-01
 -3.80623782E+00  1.68248178E-01 -1.90927014E-01  3.57487061E+00  3.02625355E+00
 -8.47922520E-02  3.57487061E+00  3.02625355E+00 -8.47922520E-02  2.28872878E-01
  4.00495661E+00  3.68609402E-01  2.28872878E-01  4.00495661E+00  3.68609402E-01
  2.77741661E+00 -1.75813521E+00 -1.88050504E-01  2.77741661E+00 -1.75813521E+00
 -1.88050504E-01  2.77741661E+00 -1.75813521E+00 -1.88050504E-01  2.77741661E+00
 -1.75813521E+00 -1.88050504E-01 -1.63016319E+00 -3.02221133E+00  7.93949918E-01
 -1.63016319E+00 -3.02221133E+00  7.93949918E-01 -3.86809600E+00  2.12659849E+00
 -8.02693135E-01 -3.86809600E+00  2.12659849E+00 -8.02693135E-01 -5.60582690E+00
 -7.84112963E-01  3.30784173E-02 -5.60582690E+00 -7.84112963E-01  3.30784173E-02
Constraint Structure                       R   N=          30
  1.64029345E+00  2.51780161E+00  1.06128760E-01  8.74506617E-01  1.13674978E-01
  5.71017054E-02 -1.63430508E+00 -1.02628354E+00  2.46871783E-01 -3.83181853E+00
  1.73475124E-01 -1.85924634E-01  3.61867417E+00  3.00287740E+00 -8.44293334E-02
  2.90344829E-01  4.03593949E+00  3.57494461E-01  2.77434477E+00 -1.78224369E+00
 -1.83382953E-01 -1.62897595E+00 -3.01081345E+00  7.78436626E-01 -3.91691866E+00
  2.13458755E+00 -7.88099095E-01 -5.62428607E+00 -7.94406786E-01  4.19782271E-02
Num ILSW                                   I              100
ILSW                                       I   N=         100
           0           1           0           0           2           0
           0           0           0           0        4639          -1
           0           0           0           0           2           0
           0           0           0           0           1           0
           1           0           0           0           0           0
           0           0      100000           0          -1           0
           0           0           0           0           0           0
           0           0           0           1           0           0
           0           0           1           0           0           0
           0           0         121          41           0           0
           0           0          58           0           0           0
           0           0           0          10           0           0
           0           0           0           0           0           0
           0           0           0           0           0           0
           0           0           0           0           0           0
           0           0           0           0           0           0
           0           0           0           0
Num RLSW                                   I               41
RLSW                                       R   N=          41
  1.00000000E+00  1.00000000E+00  1.00000000E+00  1.00000000E+00  1.00000000E+00
  0.00000000E+00  2.00000000E-01  2.22036000E-01  0.00000000E+00  7.77964000E-01
  0.00000000E+00  2.00000000E-01  0.00000000E+00  0.00000000E+00  1.00000000E+00
  0.00000000E+00  0.00000000E+00  1.00000000E+00  0.00000000E+00  0.00000000E+00
  0.00000000E+00  0.00000000E+00  1.00000000E+00  0.00000000E+00  0.00000000E+00
  0.00000000E+00  0.00000000E+00  1.00000000E+00  0.00000000E+00  0.00000000E+00
  0.00000000E+00  0.00000000E+00  1.00000000E+00  0.00000000E+00  0.00000000E+00
  0.00000000E+00  0.00000000E+00  0.00000000E+00  1.00000000E+00  1.00000000E+00
  0.00000000E+00
MxBond                                     I                3
NBond                                      I   N=          10
           3           3           3           3           1           1
           1           1           1           1
IBond                                      I   N=          30
           2           5           6           1           3           7
           2           4           8           3           9          10
           1           0           0           1           0           0
           2           0           0           3           0           0
           4           0           0           4           0           0
RBond                                      R   N=          30
  2.00000000E+00  1.00000000E+00  1.00000000E+00  2.00000000E+00  1.00000000E+00
  1.00000000E+00  1.00000000E+00  2.00000000E+00  1.00000000E+00  2.00000000E+00
  1.00000000E+00  1.00000000E+00  1.00000000E+00  0.00000000E+00  0.00000000E+00
  1.00000000E+00  0.00000000E+00  0.00000000E+00  1.00000000E+00  0.00000000E+00
  0.00000000E+00  1.00000000E+00  0.00000000E+00  0.00000000E+00  1.00000000E+00
  0.00000000E+00  0.00000000E+00  1.00000000E+00  0.00000000E+00  0.00000000E+00
Virial Ratio                               R      2.005623424206094E+00
SCF Energy                                 R     -2.550987551355121E+02
Total Energy                               R     -2.550987551355121E+02
RMS Force                                  R      1.705796277430313E-04
RMS Density                                R      4.278713164722401E-09
External E-field                           R   N=          35
  0.00000000E+00  0.00000000E+00  0.00000000E+00  0.00000000E+00  0.00000000E+00
  0.00000000E+00  0.00000000E+00  0.00000000E+00  0.00000000E+00  0.00000000E+00
  0.00000000E+00  0.00000000E+00  0.00000000E+00  0.00000000E+00  0.00000000E+00
  0.00000000E+00  0.00000000E+00  0.00000000E+00  0.00000000E+00  0.00000000E+00
  0.00000000E+00  0.00000000E+00  0.00000000E+00  0.00000000E+00  0.00000000E+00
  0.00000000E+00  0.00000000E+00  0.00000000E+00  0.00000000E+00  0.00000000E+00
  0.00000000E+00  0.00000000E+00  0.00000000E+00  0.00000000E+00  0.00000000E+00
IOpCl                                      I                0
IROHF                                      I                0
Alpha Orbital Energies                     R   N=          75
 -2.48307631E+01 -1.04032623E+01 -1.03313702E+01 -1.03199171E+01 -1.03107951E+01
 -1.31100297E+00 -9.31643797E-01 -8.59114303E-01 -7.46912308E-01 -6.51431376E-01
 -6.15406380E-01 -5.81168129E-01 -5.48393391E-01 -5.33937440E-01 -5.05430153E-01
 -4.84228875E-01 -4.57166132E-01 -4.10833022E-01 -3.30913136E-01  1.25526948E-02
  7.28738123E-02  8.37497413E-02  9.04074092E-02  1.07414889E-01  1.15798875E-01
  1.22550006E-01  1.30315319E-01  1.45168376E-01  1.56303456E-01  1.64999261E-01
  1.76027311E-01  1.82225741E-01  1.91446905E-01  2.10984730E-01  2.16090434E-01
  2.19309576E-01  2.30114833E-01  2.48081772E-01  2.77776776E-01  2.92001720E-01
  3.20253804E-01  3.25619619E-01  3.81907425E-01  4.06242083E-01  4.21315093E-01
  4.32638136E-01  4.70325519E-01  4.86252662E-01  5.03767506E-01  5.36798786E-01
  6.87553786E-01  7.26470718E-01  7.44361747E-01  7.79157234E-01  8.04807441E-01
  8.40969666E-01  8.52677513E-01  8.84960828E-01  9.27783580E-01  1.00667422E+00
  1.03573167E+00  1.07501558E+00  1.07887801E+00  1.12369327E+00  1.15913982E+00
  1.17320556E+00  1.23820440E+00  1.32684262E+00  1.33391507E+00  1.40125969E+00
  1.47068192E+00  1.66251717E+00  1.82562165E+00  1.86001448E+00  2.37201037E+00
Alpha MO coefficients                      R   N=        5625
 -1.31316493E-06 -1.64879691E-04  6.84180562E-05  1.28625126E-05 -5.83539376E-06
  2.39427331E-03 -3.24703692E-03  2.65408482E-04  2.69840280E-04  1.30196541E-02
 -1.14990301E-03 -3.07447354E-03  2.71148713E-05 -1.48336507E-05  4.96826797E-04
  3.32765122E-04 -3.10444956E-04 -6.16363174E-05 -1.41673299E-04  3.16178628E-03
 -4.10653209E-03 -2.40792059E-04 -2.81598894E-02  1.21430298E-03 -3.56965161E-04
 -3.27325569E-04 -9.31158587E-06 -2.26444118E-04 -2.08267706E-06 -7.46631147E-05
  3.28576941E-05  1.80972098E-03 -2.16212536E-03  2.73324698E-03 -3.33146062E-04
  1.37713098E-02  2.93731723E-03  1.77739461E-03 -9.15204539E-05  3.30169959E-06
 -5.42549445E-05 -2.04986932E-04  3.07952743E-06 -1.24142426E-05 -2.78789709E-03
 -5.74764799E-04  7.20481160E-04 -4.04096647E-04 -1.45810080E-03 -3.14385765E-04
 -3.14903561E-04 -2.39693498E-04  2.95232725E-04  9.66088196E-04 -2.83914558E-04
 -1.80520915E-03  9.95030060E-01  2.76454117E-02 -9.43067799E-04  9.07107499E-04
  1.34578292E-04 -1.56831628E-02  1.73472329E-03 -1.61074008E-03 -2.66350572E-04
  7.90869425E-03 -8.43652945E-04  7.21809196E-04  1.26919435E-04  2.44245813E-04
  7.21118038E-04  6.49477077E-06 -1.56963478E-04  7.60005345E-05  3.43093753E-04
  4.65962742E-03 -1.23439711E-03  3.41532583E-04  7.99554697E-04  1.10760992E-05
  9.56369349E-03 -2.94807651E-03 -3.61564300E-03  9.35378846E-05 -1.94748066E-03
  1.57018306E-03  1.52739712E-03 -4.26608110E-04  9.95501708E-01  3.63544789E-02
  9.29487882E-04 -7.50649628E-04 -9.00401962E-05 -3.66169594E-02  6.56119710E-04
 -1.09935451E-03 -1.13387045E-04  4.21105214E-02 -1.13175455E-02 -7.23576404E-03
  1.73628921E-03  1.93911206E-03 -9.25369739E-04 -4.81143180E-04 -3.75747419E-04
  3.36001035E-05  7.52709142E-03  2.46757806E-03  3.53159919E-03 -3.83928044E-04
 -1.81384779E-02 -1.74147943E-02 -6.27327229E-05 -7.77222522E-04 -6.97497684E-05
 -2.78601643E-04 -2.01730658E-04  4.95171193E-05  3.08649068E-05 -1.39388536E-03
 -5.48167358E-04 -1.06939366E-04 -2.85899511E-04 -2.13491344E-02 -3.14133915E-03
  3.14312427E-03 -8.76112571E-04 -4.10523766E-05  4.48343193E-04 -3.33158021E-04
 -1.13005342E-03  4.46028072E-05  7.69480680E-04 -4.95212585E-05  7.67944690E-05
  1.10544679E-05 -1.11684013E-03  6.09145756E-04 -7.04451293E-04 -1.00476279E-04
  7.53937617E-03 -3.47497881E-03  3.80313020E-03  5.02505876E-04 -3.97952687E-05
  6.99695673E-04 -2.08921141E-05  1.80056721E-04 -2.17154442E-05  4.88623267E-04
 -4.20930863E-04 -2.97530334E-04  6.34472031E-05  1.99910329E-04 -2.95934669E-05
 -7.01053575E-04  2.26456774E-03 -2.37197757E-04 -2.69167021E-05  1.67402753E-02
 -7.28821055E-04 -2.56556114E-03 -1.34155379E-03 -1.96126484E-03 -1.06753963E-03
  7.69125044E-04  2.41842885E-04 -4.39816424E-05  8.48786438E-03 -7.77358788E-03
  4.93166179E-04  3.02317173E-04 -3.48554958E-02  3.08456264E-03 -7.98273918E-03
  1.95825215E-03  9.94755789E-01  3.65202296E-02  6.18935023E-05  4.90930662E-04
 -1.37065835E-04 -3.72095500E-02 -6.51327176E-04 -6.06498211E-03  1.49748259E-03
  7.49149551E-02 -9.76488560E-03  1.61095668E-02 -4.87445874E-03  3.64152337E-02
 -3.80923622E-05 -7.49909833E-04  3.98280764E-04 -1.41168969E-04  9.68412008E-03
  5.50029341E-03 -6.67271308E-04  4.50858052E-04 -5.54344897E-02 -1.16266131E-02
  5.05267582E-03 -2.03081408E-03 -1.48698441E-04 -5.81606832E-04  1.42905703E-04
  8.57145901E-04 -6.01347908E-06 -2.07580398E-04  1.13423710E-04 -6.58684508E-05
 -2.11289773E-05  5.43849640E-04 -3.90996366E-04  5.01746876E-04  1.26167816E-04
  2.93066287E-03 -4.02598582E-04  1.20190881E-03 -2.68012430E-06 -7.56377604E-04
  2.45679761E-03 -4.59250383E-04 -6.22185103E-04 -1.30521330E-04  1.28490544E-03
 -1.18367376E-03 -3.08454458E-04  1.84884075E-05 -4.06562174E-05  1.20168398E-05
  6.11642764E-04  1.03205276E-03  3.75315222E-04 -1.48021972E-04 -1.64739283E-02
  1.00966253E-03  3.39096127E-03  9.92202977E-05  1.14528356E-04 -2.10291036E-04
  1.46352037E-04 -9.26200588E-05  2.07509036E-06  1.12127671E-04 -1.20399151E-03
  8.76699110E-04  2.79383373E-04 -2.51712717E-02  1.17451991E-02  1.04978287E-02
 -4.67505934E-04 -3.66757086E-02 -2.60577871E-03  1.07582272E-03 -6.63310416E-04
  2.14593804E-04  1.01665687E-02 -5.46757185E-03  2.71472458E-03 -1.06265244E-03
  9.69432551E-03  1.83706250E-02  2.02366221E-03 -1.01779564E-04  9.94657676E-01
  3.54029786E-02  4.55112779E-04 -2.12251506E-04  1.16384150E-04 -3.12952027E-02
 -3.61669940E-03  2.01668363E-03 -7.45728390E-04  3.25031809E-02  7.81881989E-03
 -5.45015221E-03  2.04686617E-03 -1.02866228E-04 -7.02728864E-04  7.43280451E-06
  1.35119711E-04 -4.65669714E-06 -7.77433665E-05  5.07291000E-05 -4.53717201E-05
 -9.43686540E-06  2.11491705E-04 -3.70468383E-04  3.28147593E-04  3.80745849E-05
  2.50281191E-03 -7.75856337E-04  4.93187229E-05  1.43224487E-04 -8.67535548E-05
 -5.30376734E-05 -6.47096151E-04  3.83178645E-03 -7.08578656E-04  4.23265678E-03
  9.95292114E-01  3.56223733E-02 -2.73794312E-04 -6.15492913E-04 -1.86663753E-05
 -3.30146522E-02  1.86360678E-03  4.84256244E-03  8.45751981E-05  1.79309973E-02
 -7.94044957E-04 -6.67791458E-03 -3.60673865E-04 -4.95027925E-03 -1.58768200E-03
 -3.95779969E-04 -1.30618007E-03 -8.34683073E-06  9.74036370E-03  2.14311783E-03
  8.08611122E-03  1.05307687E-04  7.04447424E-03 -1.02520836E-02 -3.39743642E-03
  8.07873722E-04  3.35420181E-04 -2.73219024E-04 -8.35476499E-05 -1.45763119E-04
  1.21059211E-05  1.13578323E-03  1.59808646E-03 -2.59108932E-04 -1.70858204E-04
 -2.08992414E-02 -4.79432939E-03 -3.46291916E-03 -1.36661021E-04  1.16343618E-03
 -2.57633674E-04  4.86962847E-05 -1.94600558E-05 -8.58367341E-06  1.76036348E-03
 -4.32205737E-04 -6.03721614E-04  2.73156618E-04 -3.32273030E-03 -1.58825463E-03
 -1.45500126E-04  1.35075302E-04 -7.15511960E-04  4.03236350E-03 -6.16011055E-04
  4.02543569E-03 -1.89209579E-06 -1.54505932E-04  9.48382401E-05 -1.16057340E-04
 -9.57306832E-06  2.02752968E-04 -5.75712618E-04  2.54845139E-04  4.27490358E-05
  1.39931754E-03  3.61509105E-06 -3.41475810E-04  7.40468367E-05 -1.07163108E-04
  5.65198628E-04 -3.92322759E-05  1.56291261E-04 -1.21628589E-04 -5.07333711E-04
 -9.75782241E-03  1.98683774E-02 -2.08503077E-04 -1.63741250E-02 -7.21229137E-04
 -1.81840268E-02  3.63214176E-02 -2.51546052E-03 -3.21599094E-03 -1.94648800E-01
  1.99003662E-02  4.12185148E-02  1.11509546E-03 -5.92863688E-02  1.15853507E-01
  6.89341997E-02 -6.74412452E-02 -8.69230494E-03  3.18955751E-02 -4.22038035E-02
  4.78780858E-02  3.90151705E-03  2.77329392E-01 -7.68454882E-03  5.12354646E-02
  9.19013431E-04 -8.98189773E-03  1.84864432E-02  1.41466683E-02  1.64115674E-03
 -1.40939201E-03 -1.26489552E-02  2.32694649E-02 -2.97589719E-02  2.73162869E-03
 -1.35980478E-01  4.78912870E-03 -3.13584335E-02  4.29397143E-03 -8.42262966E-04
  2.79957933E-03  3.45634124E-03 -4.74202604E-04  1.15772769E-04  2.91392236E-02
  4.04976927E-03 -9.39431552E-03  5.02220179E-03  6.61254922E-02  1.02656114E-02
 -2.61761168E-03  4.08700784E-03  1.04430515E-03 -1.22719708E-02  3.48730530E-03
  1.84532386E-02 -2.25580675E-01  4.77699208E-01 -7.04172404E-02  6.79053296E-02
  9.47405147E-03  5.47498320E-01 -5.78500403E-02  5.48484800E-02  8.04897773E-03
 -7.30567988E-03  9.62716893E-03 -8.79849595E-03 -1.02409682E-03  1.83168378E-03
 -9.00807412E-03  7.25833113E-04  1.79576479E-03 -6.51502575E-04 -5.73671593E-03
 -8.72988202E-02  1.67512120E-01 -3.67672105E-02 -6.93243721E-02 -1.97037200E-04
  1.26662035E-01 -3.17050698E-03 -1.11593101E-02 -8.11820904E-04  2.30486524E-02
  4.45327485E-04 -8.99975767E-03  1.97736522E-03 -1.21665352E-01  2.45650873E-01
 -7.05443896E-02  5.30355975E-02  7.66242013E-03  1.69772622E-01 -2.62290300E-02
 -1.02733428E-02  9.24715396E-04  2.86436678E-03 -1.43367811E-02  2.85405360E-03
 -3.48462470E-03 -1.38048711E-01  2.69981519E-01 -7.29984346E-04  6.29436513E-02
 -1.45040958E-02  1.71154434E-01 -2.70456569E-03 -1.84612908E-03  1.91756159E-03
 -1.01899430E-01  9.76864218E-03 -2.75810849E-02  8.00993958E-03 -9.84807578E-02
  1.88841790E-01  7.68607963E-02 -3.10390977E-02  1.31592295E-02  1.33940458E-01
  1.14435312E-02  4.96735112E-03 -9.53065975E-05  7.46197443E-02  1.77152433E-02
 -3.59458517E-03  1.78375121E-03  3.60164115E-02  2.49643022E-03  4.58259786E-02
  1.11724347E-02  4.56876684E-02 -1.03074442E-01 -4.31644501E-02  3.67574194E-02
  5.32424379E-03 -1.27599857E-01 -1.84073230E-02  1.85797215E-02  2.31795342E-03
 -1.83022063E-02  8.23147545E-03 -3.84766857E-03 -3.06659004E-04  6.32477812E-02
  5.13226507E-03  4.87071647E-02  5.49298997E-03  4.38121969E-02  9.47835869E-03
 -1.40647239E-01  2.72228230E-01 -1.76271547E-02 -8.23650081E-02 -1.58840064E-03
  2.26337484E-01 -2.63669255E-03 -3.86050582E-03 -7.10963287E-04 -1.49621096E-01
  6.95073184E-03  3.26551103E-02  8.56052537E-04 -8.62380769E-02  1.79589819E-01
  8.48346561E-02  1.54165917E-01  2.07646608E-03  1.19273487E-01  2.03182758E-02
  2.34858123E-03  1.99929294E-03 -3.68015649E-02  6.02421138E-02  7.99686868E-02
 -1.09795693E-03  8.86338905E-02 -1.75498265E-01  1.06421167E-01 -9.88525524E-03
  1.21471380E-02 -1.23359644E-01  2.51621944E-03  2.54557801E-02 -4.37496970E-03
  7.70237323E-02  9.12601723E-02  2.70799472E-03 -3.06808826E-03  1.14494796E-01
 -2.22136171E-01 -5.11251377E-02  4.17811155E-02 -1.31851773E-02 -1.97264488E-01
 -6.43399408E-03  8.48071149E-04 -7.51623285E-04  1.08592200E-01  1.77016759E-02
 -1.74734697E-02  8.44449306E-03  8.12203571E-02  1.51192770E-02  7.69694725E-02
  1.14896572E-02  2.96351717E-02 -6.71505055E-02 -1.66658122E-02  6.77348357E-02
  4.79102080E-03 -8.90814274E-02 -7.25420480E-03  3.36077949E-02  2.25474299E-03
 -2.02411364E-02  5.32556437E-03 -3.42496564E-03 -2.08161719E-03 -5.49756680E-02
 -9.69842999E-04 -5.95911485E-02 -5.38554194E-03 -6.86999015E-02 -1.38431793E-02
 -8.45285352E-02  1.63932931E-01  2.49822959E-02  3.38645593E-02 -3.27301520E-03
  1.46063791E-01  3.92262538E-03  1.32687795E-02 -1.42694097E-03  9.14626500E-02
 -8.06525801E-03 -1.24534901E-02 -3.28531217E-03  7.26991057E-02 -1.56481063E-01
  1.28302408E-01  1.78759420E-01 -1.26241260E-02 -1.47378674E-01  3.49590448E-02
  4.75824698E-02 -3.36408988E-03 -9.71845927E-03 -1.18688755E-02 -6.06529714E-02
  6.34668900E-03  7.06660352E-02 -1.44988397E-01 -2.11241367E-01  4.95491291E-02
 -1.95089873E-02 -1.26765415E-01 -4.62812332E-02  2.90443893E-02 -8.42604946E-03
  1.18690868E-01 -9.22973564E-02  3.69791915E-02 -1.06772904E-02 -1.18365047E-01
  2.34913805E-01 -5.45931428E-02  1.89519278E-02 -6.06168810E-03  2.09164716E-01
 -2.28807598E-02  8.11147798E-03 -1.98077053E-03 -1.96002284E-01 -3.52061790E-02
  2.47313949E-02 -9.82348485E-03  8.14805198E-02  3.14515202E-02  7.37941223E-02
  2.92066774E-02 -3.46022650E-02  7.98710600E-02  1.49089672E-01 -3.22120230E-02
 -1.84438693E-02  1.04352101E-01  8.15709769E-02 -1.46197177E-02 -1.00271264E-02
  3.17749132E-02 -4.58281620E-03  7.69802291E-03  2.62149498E-04 -7.80236264E-02
 -2.05331735E-02  1.06448623E-01  4.23869482E-02  1.10966390E-01  3.99037189E-02
 -6.39795688E-02  1.25738804E-01 -1.39608488E-02  1.80354572E-01  1.56454929E-02
  1.65100148E-01 -2.42598436E-02  5.40516417E-02  7.38949928E-03  2.78673754E-01
 -1.96504875E-02 -4.46003236E-02 -5.96281491E-04  7.55272663E-02 -1.68579175E-01
 -1.53941576E-01  4.81167825E-02  2.75010965E-02 -1.68420555E-01 -2.81419901E-02
  2.66961789E-03  6.37773543E-03 -2.02221007E-01 -2.82321603E-02 -1.28515019E-01
 -7.69233790E-04 -7.41872430E-02  1.50032214E-01 -3.43710580E-02 -8.18461310E-02
  3.07682697E-02  1.58218211E-01 -1.85810274E-03 -3.38952732E-02  1.51666564E-02
 -5.19268446E-02 -4.87505504E-02  1.92230931E-02  5.75342235E-03  5.69999753E-02
 -1.16193108E-01  1.17215439E-01 -1.01502625E-01  3.89369823E-02 -1.29599226E-01
  4.57439446E-02 -2.63216218E-02  1.10602708E-02 -2.26715581E-02  1.37825545E-02
  1.09702995E-04 -3.81862244E-03  7.94915586E-02  4.07812112E-02  1.30724299E-01
  5.36786157E-02 -4.37719751E-02  1.03393649E-01  1.92898824E-01 -2.64667522E-01
 -1.99939296E-02  1.25674391E-01  1.12116908E-01 -1.57990828E-01 -1.14410830E-02
  5.48654381E-02 -3.18797441E-03  5.05260433E-03  6.40147773E-04  1.14271995E-01
  4.81019037E-02 -1.07550207E-01 -5.34398369E-02 -8.12746151E-02 -3.26224316E-02