 Entering Gaussian System, Link 0=/opt/cluster/programs/g09_d.01/g09//g09
 Input=/home/unibas/boittier/RDKit_G2/B.pdb/SCAN_1_2_3_4_S_17_20.0/1_SCAN_1_2_3_4_F/1_SCAN_B.pdb.com
 Output=/scratch/boittier/1_SCAN_B.pdb/1_SCAN_B.pdb.out
 Initial command:
 /opt/cluster/programs/g09_d.01/g09/l1.exe "/scratch/boittier/1_SCAN_B.pdb/Gau-162571.inp" -scrdir="/scratch/boittier/1_SCAN_B.pdb/"
 Entering Link 1 = /opt/cluster/programs/g09_d.01/g09/l1.exe PID=    162572.
  
 Copyright (c) 1988,1990,1992,1993,1995,1998,2003,2009,2013,
            Gaussian, Inc.  All Rights Reserved.
  
 This is part of the Gaussian(R) 09 program.  It is based on
 the Gaussian(R) 03 system (copyright 2003, Gaussian, Inc.),
 the Gaussian(R) 98 system (copyright 1998, Gaussian, Inc.),
 the Gaussian(R) 94 system (copyright 1995, Gaussian, Inc.),
 the Gaussian 92(TM) system (copyright 1992, Gaussian, Inc.),
 the Gaussian 90(TM) system (copyright 1990, Gaussian, Inc.),
 the Gaussian 88(TM) system (copyright 1988, Gaussian, Inc.),
 the Gaussian 86(TM) system (copyright 1986, Carnegie Mellon
 University), and the Gaussian 82(TM) system (copyright 1983,
 Carnegie Mellon University). Gaussian is a federally registered
 trademark of Gaussian, Inc.
  
 This software contains proprietary and confidential information,
 including trade secrets, belonging to Gaussian, Inc.
  
 This software is provided under written license and may be
 used, copied, transmitted, or stored only in accord with that
 written license.
  
 The following legend is applicable only to US Government
 contracts under FAR:
  
                    RESTRICTED RIGHTS LEGEND
  
 Use, reproduction and disclosure by the US Government is
 subject to restrictions as set forth in subparagraphs (a)
 and (c) of the Commercial Computer Software - Restricted
 Rights clause in FAR 52.227-19.
  
 Gaussian, Inc.
 340 Quinnipiac St., Bldg. 40, Wallingford CT 06492
  
  
 ---------------------------------------------------------------
 Warning -- This program may not be used in any manner that
 competes with the business of Gaussian, Inc. or will provide
 assistance to any competitor of Gaussian, Inc.  The licensee
 of this program is prohibited from giving any competitor of
 Gaussian, Inc. access to this program.  By using this program,
 the user acknowledges that Gaussian, Inc. is engaged in the
 business of creating and licensing software in the field of
 computational chemistry and represents and warrants to the
 licensee that it is not a competitor of Gaussian, Inc. and that
 it will not use this program in any manner prohibited above.
 ---------------------------------------------------------------
  

 Cite this work as:
 Gaussian 09, Revision D.01,
 M. J. Frisch, G. W. Trucks, H. B. Schlegel, G. E. Scuseria, 
 M. A. Robb, J. R. Cheeseman, G. Scalmani, V. Barone, B. Mennucci, 
 G. A. Petersson, H. Nakatsuji, M. Caricato, X. Li, H. P. Hratchian, 
 A. F. Izmaylov, J. Bloino, G. Zheng, J. L. Sonnenberg, M. Hada, 
 M. Ehara, K. Toyota, R. Fukuda, J. Hasegawa, M. Ishida, T. Nakajima, 
 Y. Honda, O. Kitao, H. Nakai, T. Vreven, J. A. Montgomery, Jr., 
 J. E. Peralta, F. Ogliaro, M. Bearpark, J. J. Heyd, E. Brothers, 
 K. N. Kudin, V. N. Staroverov, T. Keith, R. Kobayashi, J. Normand, 
 K. Raghavachari, A. Rendell, J. C. Burant, S. S. Iyengar, J. Tomasi, 
 M. Cossi, N. Rega, J. M. Millam, M. Klene, J. E. Knox, J. B. Cross, 
 V. Bakken, C. Adamo, J. Jaramillo, R. Gomperts, R. E. Stratmann, 
 O. Yazyev, A. J. Austin, R. Cammi, C. Pomelli, J. W. Ochterski, 
 R. L. Martin, K. Morokuma, V. G. Zakrzewski, G. A. Voth, 
 P. Salvador, J. J. Dannenberg, S. Dapprich, A. D. Daniels, 
 O. Farkas, J. B. Foresman, J. V. Ortiz, J. Cioslowski, 
 and D. J. Fox, Gaussian, Inc., Wallingford CT, 2013.
 
 ******************************************
 Gaussian 09:  ES64L-G09RevD.01 24-Apr-2013
                12-May-2021 
 ******************************************
 %chk=/home/unibas/boittier/RDKit_G2/B.pdb/SCAN_1_2_3_4_S_17_20.0/1_SCAN_1_2_3_4_
 F/B.pdb.chk
 %nproc=8
 Will use up to    8 processors via shared memory.
 %mem=16GB
 -----------------------------
 #p wB97XD/6-31+G Opt=ModRedun
 -----------------------------
 1/14=-1,18=120,19=15,26=3,38=1/1,3;
 2/9=110,12=2,17=6,18=5,40=1/2;
 3/5=1,6=6,7=10,11=2,16=1,25=1,30=1,71=1,74=-58/1,2,3;
 4//1;
 5/5=2,38=5/2;
 6/7=2,8=2,9=2,10=2,28=1/1;
 7//1,2,3,16;
 1/14=-1,18=20,19=15,26=3/3(2);
 2/9=110/2;
 99//99;
 2/9=110/2;
 3/5=1,6=6,7=10,11=2,16=1,25=1,30=1,71=1,74=-58/1,2,3;
 4/5=5,16=3,69=1/1;
 5/5=2,38=5/2;
 7//1,2,3,16;
 1/14=-1,18=20,19=15,26=3/3(-5);
 2/9=110/2;
 6/7=2,8=2,9=2,10=2,19=2,28=1/1;
 99/9=1/99;
 Leave Link    1 at Wed May 12 11:55:58 2021, MaxMem=  2147483648 cpu:         0.2
 (Enter /opt/cluster/programs/g09_d.01/g09/l101.exe)
 -----
 B.pdb
 -----
 Symbolic Z-matrix:
 Charge =  0 Multiplicity = 1
 C                    -1.70729  -0.68245   0.0955 
 C                    -0.52056  -0.08448  -0.05495 
 C                     0.80484  -0.68395  -0.1228 
 C                     1.95796  -0.03054   0.10521 
 H                    -2.62082  -0.10826   0.18329 
 H                    -1.77474  -1.76366   0.12157 
 F                    -0.50125   1.3371   -0.05825 
 H                     0.80777  -1.75617  -0.30727 
 H                     1.98066   1.03497   0.30796 
 H                     2.90871  -0.55221   0.08089 
 
 The following ModRedundant input section has been read:
 D       1       2       3       4 F                                           
 
 NAtoms=     10 NQM=       10 NQMF=       0 NMMI=      0 NMMIF=      0
                NMic=       0 NMicF=      0.
                    Isotopes and Nuclear Properties:
 (Nuclear quadrupole moments (NQMom) in fm**2, nuclear magnetic moments (NMagM)
  in nuclear magnetons)

  Atom         1           2           3           4           5           6           7           8           9          10
 IAtWgt=          12          12          12          12           1           1          19           1           1           1
 AtmWgt=  12.0000000  12.0000000  12.0000000  12.0000000   1.0078250   1.0078250  18.9984033   1.0078250   1.0078250   1.0078250
 NucSpn=           0           0           0           0           1           1           1           1           1           1
 AtZEff=   0.0000000   0.0000000   0.0000000   0.0000000   0.0000000   0.0000000   0.0000000   0.0000000   0.0000000   0.0000000
 NQMom=    0.0000000   0.0000000   0.0000000   0.0000000   0.0000000   0.0000000   0.0000000   0.0000000   0.0000000   0.0000000
 NMagM=    0.0000000   0.0000000   0.0000000   0.0000000   2.7928460   2.7928460   2.6288670   2.7928460   2.7928460   2.7928460
 AtZNuc=   6.0000000   6.0000000   6.0000000   6.0000000   1.0000000   1.0000000   9.0000000   1.0000000   1.0000000   1.0000000
 Leave Link  101 at Wed May 12 11:55:58 2021, MaxMem=  2147483648 cpu:         4.2
 (Enter /opt/cluster/programs/g09_d.01/g09/l103.exe)

 GradGradGradGradGradGradGradGradGradGradGradGradGradGradGradGradGradGrad
 Berny optimization.
 Initialization pass.
                           ----------------------------
                           !    Initial Parameters    !
                           ! (Angstroms and Degrees)  !
 --------------------------                            --------------------------
 ! Name  Definition              Value          Derivative Info.                !
 --------------------------------------------------------------------------------
 ! R1    R(1,2)                  1.3374         estimate D2E/DX2                !
 ! R2    R(1,5)                  1.0826         estimate D2E/DX2                !
 ! R3    R(1,6)                  1.0836         estimate D2E/DX2                !
 ! R4    R(2,3)                  1.4562         estimate D2E/DX2                !
 ! R5    R(2,7)                  1.4217         estimate D2E/DX2                !
 ! R6    R(3,4)                  1.3449         estimate D2E/DX2                !
 ! R7    R(3,8)                  1.088          estimate D2E/DX2                !
 ! R8    R(4,9)                  1.0849         estimate D2E/DX2                !
 ! R9    R(4,10)                 1.0847         estimate D2E/DX2                !
 ! A1    A(2,1,5)              121.3848         estimate D2E/DX2                !
 ! A2    A(2,1,6)              120.2699         estimate D2E/DX2                !
 ! A3    A(5,1,6)              118.342          estimate D2E/DX2                !
 ! A4    A(1,2,3)              128.9628         estimate D2E/DX2                !
 ! A5    A(1,2,7)              117.3481         estimate D2E/DX2                !
 ! A6    A(3,2,7)              113.525          estimate D2E/DX2                !
 ! A7    A(2,3,4)              124.9236         estimate D2E/DX2                !
 ! A8    A(2,3,8)              114.585          estimate D2E/DX2                !
 ! A9    A(4,3,8)              120.3489         estimate D2E/DX2                !
 ! A10   A(3,4,9)              121.7907         estimate D2E/DX2                !
 ! A11   A(3,4,10)             120.9345         estimate D2E/DX2                !
 ! A12   A(9,4,10)             117.2706         estimate D2E/DX2                !
 ! D1    D(5,1,2,3)            176.6887         estimate D2E/DX2                !
 ! D2    D(5,1,2,7)              1.6858         estimate D2E/DX2                !
 ! D3    D(6,1,2,3)             -3.9716         estimate D2E/DX2                !
 ! D4    D(6,1,2,7)           -178.9745         estimate D2E/DX2                !
 ! D5    D(1,2,3,4)           -159.9891         Frozen                          !
 ! D6    D(1,2,3,8)             15.6649         estimate D2E/DX2                !
 ! D7    D(7,2,3,4)             15.1703         estimate D2E/DX2                !
 ! D8    D(7,2,3,8)           -169.1757         estimate D2E/DX2                !
 ! D9    D(2,3,4,9)             -3.552          estimate D2E/DX2                !
 ! D10   D(2,3,4,10)           177.2072         estimate D2E/DX2                !
 ! D11   D(8,3,4,9)           -178.972          estimate D2E/DX2                !
 ! D12   D(8,3,4,10)             1.7873         estimate D2E/DX2                !
 --------------------------------------------------------------------------------
 Trust Radius=3.00D-01 FncErr=1.00D-07 GrdErr=1.00D-06
 Number of steps in this run=     43 maximum allowed number of steps=    100.
 GradGradGradGradGradGradGradGradGradGradGradGradGradGradGradGradGradGrad

 Leave Link  103 at Wed May 12 11:55:58 2021, MaxMem=  2147483648 cpu:         0.1
 (Enter /opt/cluster/programs/g09_d.01/g09/l202.exe)
                          Input orientation:                          
 ---------------------------------------------------------------------
 Center     Atomic      Atomic             Coordinates (Angstroms)
 Number     Number       Type             X           Y           Z
 ---------------------------------------------------------------------
      1          6           0       -1.707286   -0.682449    0.095502
      2          6           0       -0.520560   -0.084482   -0.054949
      3          6           0        0.804837   -0.683952   -0.122803
      4          6           0        1.957961   -0.030538    0.105212
      5          1           0       -2.620819   -0.108260    0.183292
      6          1           0       -1.774742   -1.763661    0.121567
      7          9           0       -0.501254    1.337096   -0.058245
      8          1           0        0.807765   -1.756173   -0.307273
      9          1           0        1.980658    1.034974    0.307960
     10          1           0        2.908708   -0.552211    0.080892
 ---------------------------------------------------------------------
                    Distance matrix (angstroms):
                    1          2          3          4          5
     1  C    0.000000
     2  C    1.337355   0.000000
     3  C    2.521591   1.456244   0.000000
     4  C    3.722784   2.484276   1.344855   0.000000
     5  H    1.082563   2.113862   3.487153   4.580105   0.000000
     6  H    1.083628   2.103277   2.807083   4.115465   1.860110
     7  F    2.357268   1.421713   2.407213   2.818666   2.576810
     8  H    2.764162   2.150038   1.087978   2.114453   3.835552
     9  H    4.073771   2.764232   2.126692   1.084868   4.743007
    10  H    4.617854   3.463683   2.117810   1.084737   5.548265
                    6          7          8          9         10
     6  H    0.000000
     7  F    3.356903   0.000000
     8  H    2.617881   3.368065   0.000000
     9  H    4.687230   2.526909   3.089448   0.000000
    10  H    4.837765   3.900856   2.452378   1.852564   0.000000
 Stoichiometry    C4H5F
 Framework group  C1[X(C4H5F)]
 Deg. of freedom    24
 Full point group                 C1      NOp   1
 Largest Abelian subgroup         C1      NOp   1
 Largest concise Abelian subgroup C1      NOp   1
                         Standard orientation:                         
 ---------------------------------------------------------------------
 Center     Atomic      Atomic             Coordinates (Angstroms)
 Number     Number       Type             X           Y           Z
 ---------------------------------------------------------------------
      1          6           0       -1.707286   -0.682449    0.095502
      2          6           0       -0.520560   -0.084482   -0.054949
      3          6           0        0.804837   -0.683952   -0.122803
      4          6           0        1.957961   -0.030538    0.105212
      5          1           0       -2.620819   -0.108261    0.183292
      6          1           0       -1.774742   -1.763661    0.121567
      7          9           0       -0.501254    1.337096   -0.058245
      8          1           0        0.807765   -1.756173   -0.307273
      9          1           0        1.980658    1.034974    0.307960
     10          1           0        2.908708   -0.552211    0.080892
 ---------------------------------------------------------------------
 Rotational constants (GHZ):      9.4876769      4.1814793      2.9278876
 Leave Link  202 at Wed May 12 11:55:58 2021, MaxMem=  2147483648 cpu:         0.0
 (Enter /opt/cluster/programs/g09_d.01/g09/l301.exe)
 Standard basis: 6-31+G (6D, 7F)
 Ernie: Thresh=  0.10000D-02 Tol=  0.10000D-05 Strict=F.
 There are    75 symmetry adapted cartesian basis functions of A   symmetry.
 There are    75 symmetry adapted basis functions of A   symmetry.
    75 basis functions,   150 primitive gaussians,    75 cartesian basis functions
    19 alpha electrons       19 beta electrons
       nuclear repulsion energy       157.3806524019 Hartrees.
 IExCor= 4639 DFT=T Ex+Corr=wB97XD ExCW=0 ScaHFX=  1.000000
 ScaDFX=  1.000000  1.000000  1.000000  1.000000 ScalE2=  1.000000  1.000000
 IRadAn=      0 IRanWt=     -1 IRanGd=            0 ICorTp=0 IEmpDi=121
  HFx wShort=  0.000000 wLong=  0.200000 cFull=  0.222036 cShort=  0.000000 cLong=  0.777964
  DFx wShort=  0.000000 wLong=  0.200000 cFull=  0.000000 cShort=  0.000000 cLong=  1.000000
 NAtoms=   10 NActive=   10 NUniq=   10 SFac= 1.00D+00 NAtFMM=   60 NAOKFM=F Big=F
 Integral buffers will be    131072 words long.
 Raffenetti 2 integral format.
 Two-electron integral symmetry is turned on.
 R6Disp:  Grimme-D2 Dispersion energy=       -0.0029425643 Hartrees.
 Nuclear repulsion after empirical dispersion term =      157.3777098376 Hartrees.
 Leave Link  301 at Wed May 12 11:55:58 2021, MaxMem=  2147483648 cpu:         0.3
 (Enter /opt/cluster/programs/g09_d.01/g09/l302.exe)
 NPDir=0 NMtPBC=     1 NCelOv=     1 NCel=       1 NClECP=     1 NCelD=      1
         NCelK=      1 NCelE2=     1 NClLst=     1 CellRange=     0.0.
 One-electron integrals computed using PRISM.
 NBasis=    75 RedAO= T EigKep=  3.69D-05  NBF=    75
 NBsUse=    75 1.00D-06 EigRej= -1.00D+00 NBFU=    75
 Precomputing XC quadrature grid using
 IXCGrd= 4 IRadAn=           0 IRanWt=          -1 IRanGd=           0 AccXCQ= 0.00D+00.
 Generated NRdTot=       0 NPtTot=           0 NUsed=           0 NTot=          32
 NSgBfM=    75    75    75    75    75 MxSgAt=    10 MxSgA2=    10.
 Leave Link  302 at Wed May 12 11:55:59 2021, MaxMem=  2147483648 cpu:         0.9
 (Enter /opt/cluster/programs/g09_d.01/g09/l303.exe)
 DipDrv:  MaxL=1.
 Leave Link  303 at Wed May 12 11:55:59 2021, MaxMem=  2147483648 cpu:         0.2
 (Enter /opt/cluster/programs/g09_d.01/g09/l401.exe)
 ExpMin= 4.38D-02 ExpMax= 7.00D+03 ExpMxC= 1.05D+03 IAcc=2 IRadAn=         4 AccDes= 0.00D+00
 Harris functional with IExCor= 4639 and IRadAn=       4 diagonalized for initial guess.
 HarFok:  IExCor= 4639 AccDes= 0.00D+00 IRadAn=         4 IDoV= 1 UseB2=F ITyADJ=14
 ICtDFT=  3500011 ScaDFX=  1.000000  1.000000  1.000000  1.000000
 FoFCou: FMM=F IPFlag=           0 FMFlag=      100000 FMFlg1=           0
         NFxFlg=           0 DoJE=T BraDBF=F KetDBF=T FulRan=T
         wScrn=  0.000000 ICntrl=     500 IOpCl=  0 I1Cent=   200000004 NGrid=           0
         NMat0=    1 NMatS0=      1 NMatT0=    0 NMatD0=    1 NMtDS0=    0 NMtDT0=    0
 Petite list used in FoFCou.
 Harris En= -244.788349690308    
 JPrj=0 DoOrth=F DoCkMO=F.
 Leave Link  401 at Wed May 12 11:55:59 2021, MaxMem=  2147483648 cpu:         1.3
 (Enter /opt/cluster/programs/g09_d.01/g09/l502.exe)
 Closed shell SCF:
 Using DIIS extrapolation, IDIIS=  1040.
 Integral symmetry usage will be decided dynamically.
 Keep R1 ints in memory in canonical form, NReq=9056162.
 IVT=       36600 IEndB=       36600 NGot=  2147483648 MDV=  2139321699
 LenX=  2139321699 LenY=  2139315633
 Requested convergence on RMS density matrix=1.00D-08 within 128 cycles.
 Requested convergence on MAX density matrix=1.00D-06.
 Requested convergence on             energy=1.00D-06.
 No special actions if energy rises.
 FoFCou: FMM=F IPFlag=           0 FMFlag=           0 FMFlg1=           0
         NFxFlg=           0 DoJE=F BraDBF=F KetDBF=F FulRan=T
         wScrn=  0.000000 ICntrl=     600 IOpCl=  0 I1Cent=           0 NGrid=           0
         NMat0=    1 NMatS0=   2850 NMatT0=    0 NMatD0=    1 NMtDS0=    0 NMtDT0=    0
 Symmetry not used in FoFCou.

 Cycle   1  Pass 1  IDiag  1:
 E= -254.939546751489    
 DIIS: error= 5.74D-02 at cycle   1 NSaved=   1.
 NSaved= 1 IEnMin= 1 EnMin= -254.939546751489     IErMin= 1 ErrMin= 5.74D-02
 ErrMax= 5.74D-02  0.00D+00 EMaxC= 1.00D-01 BMatC= 2.55D-01 BMatP= 2.55D-01
 IDIUse=3 WtCom= 4.26D-01 WtEn= 5.74D-01
 Coeff-Com:  0.100D+01
 Coeff-En:   0.100D+01
 Coeff:      0.100D+01
 Gap=     0.430 Goal=   None    Shift=    0.000
 GapD=    0.430 DampG=2.000 DampE=0.500 DampFc=1.0000 IDamp=-1.
 RMSDP=2.19D-02 MaxDP=5.95D-01              OVMax= 1.64D-01

 Cycle   2  Pass 1  IDiag  1:
 E= -254.905249164189     Delta-E=        0.034297587301 Rises=F Damp=F
 DIIS: error= 5.32D-02 at cycle   2 NSaved=   2.
 NSaved= 2 IEnMin= 1 EnMin= -254.939546751489     IErMin= 2 ErrMin= 5.32D-02
 ErrMax= 5.32D-02  0.00D+00 EMaxC= 1.00D-01 BMatC= 2.88D-01 BMatP= 2.55D-01
 IDIUse=2 WtCom= 0.00D+00 WtEn= 1.00D+00
 Coeff-En:   0.547D+00 0.453D+00
 Coeff:      0.547D+00 0.453D+00
 Gap=     0.401 Goal=   None    Shift=    0.000
 RMSDP=7.65D-03 MaxDP=1.09D-01 DE= 3.43D-02 OVMax= 8.77D-02

 Cycle   3  Pass 1  IDiag  1:
 E= -255.099922755559     Delta-E=       -0.194673591371 Rises=F Damp=F
 DIIS: error= 2.46D-03 at cycle   3 NSaved=   3.
 NSaved= 3 IEnMin= 3 EnMin= -255.099922755559     IErMin= 3 ErrMin= 2.46D-03
 ErrMax= 2.46D-03  0.00D+00 EMaxC= 1.00D-01 BMatC= 6.17D-04 BMatP= 2.55D-01
 IDIUse=3 WtCom= 9.75D-01 WtEn= 2.46D-02
 Coeff-Com: -0.742D-03-0.323D-01 0.103D+01
 Coeff-En:   0.000D+00 0.000D+00 0.100D+01
 Coeff:     -0.724D-03-0.315D-01 0.103D+01
 Gap=     0.344 Goal=   None    Shift=    0.000
 RMSDP=2.67D-03 MaxDP=6.06D-02 DE=-1.95D-01 OVMax= 1.40D-02

 Cycle   4  Pass 1  IDiag  1:
 E= -255.100398988588     Delta-E=       -0.000476233028 Rises=F Damp=F
 DIIS: error= 1.71D-03 at cycle   4 NSaved=   4.
 NSaved= 4 IEnMin= 4 EnMin= -255.100398988588     IErMin= 4 ErrMin= 1.71D-03
 ErrMax= 1.71D-03  0.00D+00 EMaxC= 1.00D-01 BMatC= 2.60D-04 BMatP= 6.17D-04
 IDIUse=3 WtCom= 9.83D-01 WtEn= 1.71D-02
 Coeff-Com: -0.915D-02-0.269D-01 0.474D+00 0.562D+00
 Coeff-En:   0.000D+00 0.000D+00 0.000D+00 0.100D+01
 Coeff:     -0.899D-02-0.265D-01 0.466D+00 0.569D+00
 Gap=     0.344 Goal=   None    Shift=    0.000
 RMSDP=4.12D-04 MaxDP=6.97D-03 DE=-4.76D-04 OVMax= 7.53D-03

 Cycle   5  Pass 1  IDiag  1:
 E= -255.100683081581     Delta-E=       -0.000284092993 Rises=F Damp=F
 DIIS: error= 3.68D-04 at cycle   5 NSaved=   5.
 NSaved= 5 IEnMin= 5 EnMin= -255.100683081581     IErMin= 5 ErrMin= 3.68D-04
 ErrMax= 3.68D-04  0.00D+00 EMaxC= 1.00D-01 BMatC= 8.41D-06 BMatP= 2.60D-04
 IDIUse=3 WtCom= 9.96D-01 WtEn= 3.68D-03
 Coeff-Com: -0.213D-02-0.501D-02 0.118D-01 0.959D-01 0.899D+00
 Coeff-En:   0.000D+00 0.000D+00 0.000D+00 0.000D+00 0.100D+01
 Coeff:     -0.212D-02-0.500D-02 0.117D-01 0.955D-01 0.900D+00
 Gap=     0.344 Goal=   None    Shift=    0.000
 RMSDP=3.03D-04 MaxDP=6.75D-03 DE=-2.84D-04 OVMax= 1.70D-03

 Cycle   6  Pass 1  IDiag  1:
 E= -255.100695764138     Delta-E=       -0.000012682557 Rises=F Damp=F
 DIIS: error= 2.04D-04 at cycle   6 NSaved=   6.
 NSaved= 6 IEnMin= 6 EnMin= -255.100695764138     IErMin= 6 ErrMin= 2.04D-04
 ErrMax= 2.04D-04  0.00D+00 EMaxC= 1.00D-01 BMatC= 2.28D-06 BMatP= 8.41D-06
 IDIUse=3 WtCom= 9.98D-01 WtEn= 2.04D-03
 Coeff-Com:  0.704D-03 0.217D-02-0.813D-01-0.626D-01 0.395D+00 0.746D+00
 Coeff-En:   0.000D+00 0.000D+00 0.000D+00 0.000D+00 0.000D+00 0.100D+01
 Coeff:      0.703D-03 0.217D-02-0.811D-01-0.625D-01 0.394D+00 0.747D+00
 Gap=     0.344 Goal=   None    Shift=    0.000
 RMSDP=1.07D-04 MaxDP=2.10D-03 DE=-1.27D-05 OVMax= 8.74D-04

 Cycle   7  Pass 1  IDiag  1:
 E= -255.100698933892     Delta-E=       -0.000003169754 Rises=F Damp=F
 DIIS: error= 2.82D-05 at cycle   7 NSaved=   7.
 NSaved= 7 IEnMin= 7 EnMin= -255.100698933892     IErMin= 7 ErrMin= 2.82D-05
 ErrMax= 2.82D-05  0.00D+00 EMaxC= 1.00D-01 BMatC= 4.41D-08 BMatP= 2.28D-06
 IDIUse=1 WtCom= 1.00D+00 WtEn= 0.00D+00
 Coeff-Com:  0.197D-03 0.414D-03-0.880D-02-0.102D-01 0.965D-03 0.744D-01
 Coeff-Com:  0.943D+00
 Coeff:      0.197D-03 0.414D-03-0.880D-02-0.102D-01 0.965D-03 0.744D-01
 Coeff:      0.943D+00
 Gap=     0.344 Goal=   None    Shift=    0.000
 RMSDP=1.66D-05 MaxDP=2.66D-04 DE=-3.17D-06 OVMax= 1.25D-04

 Cycle   8  Pass 1  IDiag  1:
 E= -255.100699003136     Delta-E=       -0.000000069244 Rises=F Damp=F
 DIIS: error= 1.50D-05 at cycle   8 NSaved=   8.
 NSaved= 8 IEnMin= 8 EnMin= -255.100699003136     IErMin= 8 ErrMin= 1.50D-05
 ErrMax= 1.50D-05  0.00D+00 EMaxC= 1.00D-01 BMatC= 1.69D-08 BMatP= 4.41D-08
 IDIUse=1 WtCom= 1.00D+00 WtEn= 0.00D+00
 Coeff-Com: -0.277D-04-0.182D-03 0.815D-02 0.499D-02-0.525D-01-0.721D-01
 Coeff-Com:  0.443D+00 0.668D+00
 Coeff:     -0.277D-04-0.182D-03 0.815D-02 0.499D-02-0.525D-01-0.721D-01
 Coeff:      0.443D+00 0.668D+00
 Gap=     0.344 Goal=   None    Shift=    0.000
 RMSDP=8.43D-06 MaxDP=1.92D-04 DE=-6.92D-08 OVMax= 9.32D-05

 Cycle   9  Pass 1  IDiag  1:
 E= -255.100699024837     Delta-E=       -0.000000021701 Rises=F Damp=F
 DIIS: error= 3.89D-06 at cycle   9 NSaved=   9.
 NSaved= 9 IEnMin= 9 EnMin= -255.100699024837     IErMin= 9 ErrMin= 3.89D-06
 ErrMax= 3.89D-06  0.00D+00 EMaxC= 1.00D-01 BMatC= 7.79D-10 BMatP= 1.69D-08
 IDIUse=1 WtCom= 1.00D+00 WtEn= 0.00D+00
 Coeff-Com: -0.156D-04-0.540D-04 0.208D-02 0.130D-02-0.931D-02-0.209D-01
 Coeff-Com:  0.305D-02 0.158D+00 0.865D+00
 Coeff:     -0.156D-04-0.540D-04 0.208D-02 0.130D-02-0.931D-02-0.209D-01
 Coeff:      0.305D-02 0.158D+00 0.865D+00
 Gap=     0.344 Goal=   None    Shift=    0.000
 RMSDP=2.48D-06 MaxDP=4.06D-05 DE=-2.17D-08 OVMax= 1.56D-05

 Cycle  10  Pass 1  IDiag  1:
 E= -255.100699025870     Delta-E=       -0.000000001033 Rises=F Damp=F
 DIIS: error= 5.83D-07 at cycle  10 NSaved=  10.
 NSaved=10 IEnMin=10 EnMin= -255.100699025870     IErMin=10 ErrMin= 5.83D-07
 ErrMax= 5.83D-07  0.00D+00 EMaxC= 1.00D-01 BMatC= 4.69D-11 BMatP= 7.79D-10
 IDIUse=1 WtCom= 1.00D+00 WtEn= 0.00D+00
 Coeff-Com:  0.188D-05 0.125D-04-0.427D-03-0.345D-03 0.362D-02 0.252D-02
 Coeff-Com: -0.461D-01-0.134D-01 0.189D+00 0.865D+00
 Coeff:      0.188D-05 0.125D-04-0.427D-03-0.345D-03 0.362D-02 0.252D-02
 Coeff:     -0.461D-01-0.134D-01 0.189D+00 0.865D+00
 Gap=     0.344 Goal=   None    Shift=    0.000
 RMSDP=7.13D-07 MaxDP=1.06D-05 DE=-1.03D-09 OVMax= 5.46D-06

 Cycle  11  Pass 1  IDiag  1:
 E= -255.100699025953     Delta-E=       -0.000000000083 Rises=F Damp=F
 DIIS: error= 1.37D-07 at cycle  11 NSaved=  11.
 NSaved=11 IEnMin=11 EnMin= -255.100699025953     IErMin=11 ErrMin= 1.37D-07
 ErrMax= 1.37D-07  0.00D+00 EMaxC= 1.00D-01 BMatC= 1.31D-12 BMatP= 4.69D-11
 IDIUse=1 WtCom= 1.00D+00 WtEn= 0.00D+00
 Coeff-Com:  0.584D-06 0.127D-05-0.709D-04-0.456D-04 0.319D-03 0.658D-03
 Coeff-Com:  0.183D-02-0.404D-02-0.545D-01-0.542D-01 0.111D+01
 Coeff:      0.584D-06 0.127D-05-0.709D-04-0.456D-04 0.319D-03 0.658D-03
 Coeff:      0.183D-02-0.404D-02-0.545D-01-0.542D-01 0.111D+01
 Gap=     0.344 Goal=   None    Shift=    0.000
 RMSDP=1.39D-07 MaxDP=1.91D-06 DE=-8.32D-11 OVMax= 1.64D-06

 Cycle  12  Pass 1  IDiag  1:
 E= -255.100699025957     Delta-E=       -0.000000000004 Rises=F Damp=F
 DIIS: error= 5.05D-08 at cycle  12 NSaved=  12.
 NSaved=12 IEnMin=12 EnMin= -255.100699025957     IErMin=12 ErrMin= 5.05D-08
 ErrMax= 5.05D-08  0.00D+00 EMaxC= 1.00D-01 BMatC= 9.41D-14 BMatP= 1.31D-12
 IDIUse=1 WtCom= 1.00D+00 WtEn= 0.00D+00
 Coeff-Com: -0.669D-07-0.828D-06 0.216D-04 0.120D-04-0.129D-03-0.205D-03
 Coeff-Com:  0.178D-02 0.980D-03-0.451D-02-0.343D-01-0.104D+00 0.114D+01
 Coeff:     -0.669D-07-0.828D-06 0.216D-04 0.120D-04-0.129D-03-0.205D-03
 Coeff:      0.178D-02 0.980D-03-0.451D-02-0.343D-01-0.104D+00 0.114D+01
 Gap=     0.344 Goal=   None    Shift=    0.000
 RMSDP=3.66D-08 MaxDP=5.40D-07 DE=-4.43D-12 OVMax= 3.51D-07

 Cycle  13  Pass 1  IDiag  1:
 E= -255.100699025957     Delta-E=        0.000000000000 Rises=F Damp=F
 DIIS: error= 5.60D-09 at cycle  13 NSaved=  13.
 NSaved=13 IEnMin=13 EnMin= -255.100699025957     IErMin=13 ErrMin= 5.60D-09
 ErrMax= 5.60D-09  0.00D+00 EMaxC= 1.00D-01 BMatC= 1.66D-15 BMatP= 9.41D-14
 IDIUse=1 WtCom= 1.00D+00 WtEn= 0.00D+00
 Coeff-Com: -0.120D-07 0.633D-07 0.782D-06-0.527D-06-0.542D-06-0.144D-04
 Coeff-Com: -0.177D-03 0.125D-03 0.188D-02 0.550D-02-0.249D-01-0.115D+00
 Coeff-Com:  0.113D+01
 Coeff:     -0.120D-07 0.633D-07 0.782D-06-0.527D-06-0.542D-06-0.144D-04
 Coeff:     -0.177D-03 0.125D-03 0.188D-02 0.550D-02-0.249D-01-0.115D+00
 Coeff:      0.113D+01
 Gap=     0.344 Goal=   None    Shift=    0.000
 RMSDP=5.99D-09 MaxDP=8.22D-08 DE=-1.71D-13 OVMax= 4.95D-08

 SCF Done:  E(RwB97XD) =  -255.100699026     A.U. after   13 cycles
            NFock= 13  Conv=0.60D-08     -V/T= 2.0058
 KE= 2.536195383802D+02 PE=-9.123877209905D+02 EE= 2.462897737468D+02
 Leave Link  502 at Wed May 12 11:56:00 2021, MaxMem=  2147483648 cpu:        12.8
 (Enter /opt/cluster/programs/g09_d.01/g09/l601.exe)
 Copying SCF densities to generalized density rwf, IOpCl= 0 IROHF=0.

 **********************************************************************

            Population analysis using the SCF density.

 **********************************************************************

 Orbital symmetries:
       Occupied  (A) (A) (A) (A) (A) (A) (A) (A) (A) (A) (A) (A)
                 (A) (A) (A) (A) (A) (A) (A)
       Virtual   (A) (A) (A) (A) (A) (A) (A) (A) (A) (A) (A) (A)
                 (A) (A) (A) (A) (A) (A) (A) (A) (A) (A) (A) (A)
                 (A) (A) (A) (A) (A) (A) (A) (A) (A) (A) (A) (A)
                 (A) (A) (A) (A) (A) (A) (A) (A) (A) (A) (A) (A)
                 (A) (A) (A) (A) (A) (A) (A) (A)
 The electronic state is 1-A.
 Alpha  occ. eigenvalues --  -24.83069 -10.40488 -10.33053 -10.31560 -10.31352
 Alpha  occ. eigenvalues --   -1.30775  -0.92812  -0.86398  -0.73320  -0.66428
 Alpha  occ. eigenvalues --   -0.60178  -0.58641  -0.54334  -0.53096  -0.50446
 Alpha  occ. eigenvalues --   -0.48090  -0.45861  -0.41092  -0.32783
 Alpha virt. eigenvalues --    0.01583   0.06750   0.08044   0.09806   0.10347
 Alpha virt. eigenvalues --    0.11419   0.12110   0.12873   0.14291   0.15068
 Alpha virt. eigenvalues --    0.16191   0.16553   0.18793   0.19765   0.19898
 Alpha virt. eigenvalues --    0.22053   0.22161   0.24536   0.26145   0.28698
 Alpha virt. eigenvalues --    0.30190   0.30446   0.32531   0.38736   0.40900
 Alpha virt. eigenvalues --    0.42142   0.43365   0.45260   0.49335   0.50017
 Alpha virt. eigenvalues --    0.53440   0.69569   0.74146   0.76993   0.78618
 Alpha virt. eigenvalues --    0.82175   0.82955   0.84320   0.88462   0.92318
 Alpha virt. eigenvalues --    0.99977   1.03135   1.03793   1.10736   1.14140
 Alpha virt. eigenvalues --    1.15636   1.19761   1.25174   1.29129   1.34119
 Alpha virt. eigenvalues --    1.42477   1.46973   1.66278   1.82467   1.85982
 Alpha virt. eigenvalues --    2.38866
          Condensed to atoms (all electrons):
               1          2          3          4          5          6
     1  C    6.413976  -0.303707  -0.092771  -0.158731   0.387762   0.338346
     2  C   -0.303707   5.964541  -0.332409   0.241111  -0.053270  -0.017174
     3  C   -0.092771  -0.332409   6.268466   0.135673   0.019320   0.015330
     4  C   -0.158731   0.241111   0.135673   5.442326  -0.000690   0.000908
     5  H    0.387762  -0.053270   0.019320  -0.000690   0.446842  -0.019514
     6  H    0.338346  -0.017174   0.015330   0.000908  -0.019514   0.469280
     7  F   -0.165664   0.301139  -0.144538  -0.000066  -0.002360   0.004078
     8  H   -0.021807   0.025620   0.289837   0.011163   0.000094   0.000693
     9  H   -0.008416   0.009013  -0.068441   0.413262   0.000003  -0.000002
    10  H    0.003613   0.019939  -0.037326   0.361600   0.000001  -0.000002
               7          8          9         10
     1  C   -0.165664  -0.021807  -0.008416   0.003613
     2  C    0.301139   0.025620   0.009013   0.019939
     3  C   -0.144538   0.289837  -0.068441  -0.037326
     4  C   -0.000066   0.011163   0.413262   0.361600
     5  H   -0.002360   0.000094   0.000003   0.000001
     6  H    0.004078   0.000693  -0.000002  -0.000002
     7  F    9.324285   0.003495   0.000183   0.000468
     8  H    0.003495   0.475440   0.002466  -0.003351
     9  H    0.000183   0.002466   0.451223  -0.023473
    10  H    0.000468  -0.003351  -0.023473   0.480815
 Mulliken charges:
               1
     1  C   -0.392601
     2  C    0.145198
     3  C   -0.053140
     4  C   -0.446556
     5  H    0.221812
     6  H    0.208058
     7  F   -0.321019
     8  H    0.216351
     9  H    0.224181
    10  H    0.197716
 Sum of Mulliken charges =   0.00000
 Mulliken charges with hydrogens summed into heavy atoms:
               1
     1  C    0.037269
     2  C    0.145198
     3  C    0.163211
     4  C   -0.024659
     7  F   -0.321019
 Electronic spatial extent (au):  <R**2>=            425.9639
 Charge=              0.0000 electrons
 Dipole moment (field-independent basis, Debye):
    X=              0.3819    Y=             -2.1378    Z=              0.1630  Tot=              2.1778
 Quadrupole moment (field-independent basis, Debye-Ang):
   XX=            -24.8337   YY=            -29.5616   ZZ=            -32.7168
   XY=              1.3378   XZ=             -0.0834   YZ=              0.7109
 Traceless Quadrupole moment (field-independent basis, Debye-Ang):
   XX=              4.2037   YY=             -0.5242   ZZ=             -3.6795
   XY=              1.3378   XZ=             -0.0834   YZ=              0.7109
 Octapole moment (field-independent basis, Debye-Ang**2):
  XXX=             -2.8420  YYY=              1.2415  ZZZ=             -0.5090  XYY=              0.6426
  XXY=              1.8358  XXZ=              2.0035  XZZ=             -1.6484  YZZ=              4.9147
  YYZ=             -0.1717  XYZ=              1.0711
 Hexadecapole moment (field-independent basis, Debye-Ang**3):
 XXXX=           -330.6792 YYYY=           -137.6920 ZZZZ=            -39.6991 XXXY=             -8.5121
 XXXZ=             -0.6732 YYYX=              1.8849 YYYZ=              1.4904 ZZZX=              0.4673
 ZZZY=              0.0004 XXYY=            -81.2623 XXZZ=            -78.0789 YYZZ=            -32.1786
 XXYZ=              0.8433 YYXZ=             -0.5586 ZZXY=             -2.1257
 N-N= 1.573777098376D+02 E-N=-9.123877211593D+02  KE= 2.536195383802D+02
 No NMR shielding tensors so no spin-rotation constants.
 Leave Link  601 at Wed May 12 11:56:01 2021, MaxMem=  2147483648 cpu:         0.6
 (Enter /opt/cluster/programs/g09_d.01/g09/l701.exe)
 Compute integral first derivatives.
 ... and contract with generalized density number  0.
 R6Disp: Adding Grimme-D2 dispersion energy 1st derivatives to the gradient.
 Leave Link  701 at Wed May 12 11:56:01 2021, MaxMem=  2147483648 cpu:         0.6
 (Enter /opt/cluster/programs/g09_d.01/g09/l702.exe)
 L702 exits ... SP integral derivatives will be done elsewhere.
 Leave Link  702 at Wed May 12 11:56:01 2021, MaxMem=  2147483648 cpu:         0.2
 (Enter /opt/cluster/programs/g09_d.01/g09/l703.exe)
 Compute integral first derivatives, UseDBF=F ICtDFT=           0.
 Integral derivatives from FoFJK, PRISM(SPDF).
 Calling FoFJK, ICntrl=      2127 FMM=F ISym2X=0 I1Cent= 0 IOpClX= 0 NMat=1 NMatS=1 NMatT=0.
 FoFJK:  IHMeth= 1 ICntrl=    2127 DoSepK=T KAlg= 0 I1Cent=   0 FoldK=F
 IRaf=         1 NMat=   1 IRICut=       1 DoRegI=T DoRafI=F ISym2E= 0.
 FoFCou: FMM=F IPFlag=           0 FMFlag=      100000 FMFlg1=         800
         NFxFlg=           0 DoJE=F BraDBF=F KetDBF=F FulRan=T
         wScrn=  0.000000 ICntrl=    2527 IOpCl=  0 I1Cent=           0 NGrid=           0
         NMat0=    1 NMatS0=      1 NMatT0=    0 NMatD0=    1 NMtDS0=    0 NMtDT0=    0
 Symmetry not used in FoFCou.
 Leave Link  703 at Wed May 12 11:56:01 2021, MaxMem=  2147483648 cpu:         3.3
 (Enter /opt/cluster/programs/g09_d.01/g09/l716.exe)
 Dipole        = 1.50255980D-01-8.41076956D-01 6.41151873D-02
 ***** Axes restored to original set *****
 -------------------------------------------------------------------
 Center     Atomic                   Forces (Hartrees/Bohr)
 Number     Number              X              Y              Z
 -------------------------------------------------------------------
      1        6           0.005305540    0.002186955   -0.004327149
      2        6          -0.006799833    0.005592354    0.005150157
      3        6           0.006543956   -0.000236627    0.003887379
      4        6          -0.005279760   -0.001820846   -0.004002704
      5        1           0.000596312    0.000084812   -0.000087739
      6        1           0.000481429    0.000352663    0.000029333
      7        9           0.000110466   -0.006393988   -0.000223440
      8        1           0.000063846    0.000551708   -0.000140187
      9        1          -0.000359719   -0.000209946   -0.000104956
     10        1          -0.000662235   -0.000107085   -0.000180693
 -------------------------------------------------------------------
 Cartesian Forces:  Max     0.006799833 RMS     0.003181006
 Leave Link  716 at Wed May 12 11:56:01 2021, MaxMem=  2147483648 cpu:         0.2
 (Enter /opt/cluster/programs/g09_d.01/g09/l103.exe)

 GradGradGradGradGradGradGradGradGradGradGradGradGradGradGradGradGradGrad
 Berny optimization.
 FormGI is forming the generalized inverse of G from B-inverse, IUseBI=4.
 Internal  Forces:  Max     0.007329029 RMS     0.002305302
 Search for a local minimum.
 Step number   1 out of a maximum of   43
 All quantities printed in internal units (Hartrees-Bohrs-Radians)
 RMS Force = .21771D-02 SwitMx=.10000D-02 MixMth= 1
 Mixed Optimization -- RFO/linear search
 Second derivative matrix not updated -- first step.
 ITU=  0
     Eigenvalues ---    0.01757   0.02152   0.02818   0.02819   0.02917
     Eigenvalues ---    0.02918   0.15971   0.16000   0.16000   0.16000
     Eigenvalues ---    0.16000   0.22007   0.24952   0.25000   0.35047
     Eigenvalues ---    0.35413   0.35428   0.35560   0.35686   0.37439
     Eigenvalues ---    0.42203   0.56131   0.578021000.000001000.00000
     Eigenvalues --- 1000.000001000.000001000.000001000.000001000.00000
     Eigenvalues --- 1000.000001000.000001000.00000
 RFO step:  Lambda=-3.13264709D-04 EMin= 1.75668014D-02
 Linear search not attempted -- first point.
 Iteration  1 RMS(Cart)=  0.00894700 RMS(Int)=  0.00002608
 Iteration  2 RMS(Cart)=  0.00002593 RMS(Int)=  0.00000360
 Iteration  3 RMS(Cart)=  0.00000000 RMS(Int)=  0.00000360
 Iteration  1 RMS(Cart)=  0.00000041 RMS(Int)=  0.00000028
 ITry= 1 IFail=0 DXMaxC= 2.31D-02 DCOld= 1.00D+10 DXMaxT= 3.00D-01 DXLimC= 3.00D+00 Rises=F
 Variable       Old X    -DE/DX   Delta X   Delta X   Delta X     New X
                                 (Linear)    (Quad)   (Total)
    R1        2.52723  -0.00733   0.00000  -0.01267  -0.01267   2.51456
    R2        2.04575  -0.00047   0.00000  -0.00131  -0.00131   2.04444
    R3        2.04776  -0.00038   0.00000  -0.00106  -0.00106   2.04670
    R4        2.75190   0.00105   0.00000   0.00280   0.00280   2.75470
    R5        2.68665  -0.00639   0.00000  -0.01513  -0.01513   2.67151
    R6        2.54141  -0.00716   0.00000  -0.01276  -0.01276   2.52865
    R7        2.05598  -0.00052   0.00000  -0.00149  -0.00149   2.05449
    R8        2.05010  -0.00023   0.00000  -0.00065  -0.00065   2.04946
    R9        2.04986  -0.00053   0.00000  -0.00149  -0.00149   2.04837
    A1        2.11856  -0.00022   0.00000  -0.00135  -0.00135   2.11722
    A2        2.09911  -0.00036   0.00000  -0.00222  -0.00222   2.09688
    A3        2.06546   0.00057   0.00000   0.00359   0.00359   2.06905
    A4        2.25083  -0.00060   0.00000  -0.00235  -0.00236   2.24846
    A5        2.04811   0.00071   0.00000   0.00260   0.00259   2.05070
    A6        1.98138   0.00001   0.00000   0.00033   0.00032   1.98170
    A7        2.18033  -0.00106   0.00000  -0.00488  -0.00488   2.17545
    A8        1.99989   0.00058   0.00000   0.00301   0.00300   2.00289
    A9        2.10049   0.00060   0.00000   0.00228   0.00227   2.10276
   A10        2.12565  -0.00019   0.00000  -0.00123  -0.00123   2.12442
   A11        2.11071  -0.00035   0.00000  -0.00221  -0.00221   2.10849
   A12        2.04676   0.00055   0.00000   0.00340   0.00339   2.05015
    D1        3.08380   0.00096   0.00000   0.00513   0.00513   3.08893
    D2        0.02942  -0.00092   0.00000  -0.00370  -0.00371   0.02572
    D3       -0.06932   0.00101   0.00000   0.00679   0.00680  -0.06252
    D4       -3.12369  -0.00087   0.00000  -0.00204  -0.00204  -3.12573
    D5       -2.79234  -0.00341   0.00000   0.00000   0.00000  -2.79234
    D6        0.27340  -0.00165   0.00000   0.00636   0.00636   0.27976
    D7        0.26477  -0.00155   0.00000   0.00865   0.00865   0.27342
    D8       -2.95267   0.00020   0.00000   0.01501   0.01501  -2.93767
    D9       -0.06199   0.00090   0.00000   0.00253   0.00253  -0.05946
   D10        3.09285   0.00101   0.00000   0.00652   0.00652   3.09937
   D11       -3.12365  -0.00094   0.00000  -0.00417  -0.00417  -3.12782
   D12        0.03119  -0.00083   0.00000  -0.00018  -0.00018   0.03101
         Item               Value     Threshold  Converged?
 Maximum Force            0.007329     0.000450     NO 
 RMS     Force            0.002177     0.000300     NO 
 Maximum Displacement     0.023117     0.001800     NO 
 RMS     Displacement     0.008952     0.001200     NO 
 Predicted change in Energy=-1.568190D-04
 Lowest energy point so far.  Saving SCF results.
 GradGradGradGradGradGradGradGradGradGradGradGradGradGradGradGradGradGrad

 Leave Link  103 at Wed May 12 11:56:01 2021, MaxMem=  2147483648 cpu:         0.0
 (Enter /opt/cluster/programs/g09_d.01/g09/l202.exe)
                          Input orientation:                          
 ---------------------------------------------------------------------
 Center     Atomic      Atomic             Coordinates (Angstroms)
 Number     Number       Type             X           Y           Z
 ---------------------------------------------------------------------
      1          6           0       -1.700910   -0.678811    0.096686
      2          6           0       -0.520420   -0.083089   -0.052265
      3          6           0        0.805139   -0.685639   -0.121440
      4          6           0        1.950436   -0.032648    0.107521
      5          1           0       -2.613816   -0.104415    0.181016
      6          1           0       -1.764768   -1.759576    0.126711
      7          9           0       -0.499517    1.330409   -0.064272
      8          1           0        0.809378   -1.755683   -0.313721
      9          1           0        1.968425    1.031899    0.313944
     10          1           0        2.901321   -0.552102    0.076976
 ---------------------------------------------------------------------
                    Distance matrix (angstroms):
                    1          2          3          4          5
     1  C    0.000000
     2  C    1.330649   0.000000
     3  C    2.515533   1.457724   0.000000
     4  C    3.708094   2.476531   1.338105   0.000000
     5  H    1.081869   2.106462   3.481171   4.565408   0.000000
     6  H    1.083067   2.095482   2.796308   4.096997   1.861019
     7  F    2.346533   1.413704   2.402050   2.808862   2.566934
     8  H    2.762179   2.152741   1.087191   2.109101   3.832716
     9  H    4.054349   2.751664   2.119606   1.084525   4.722903
    10  H    4.604016   3.456152   2.109782   1.083950   5.534256
                    6          7          8          9         10
     6  H    0.000000
     7  F    3.344450   0.000000
     8  H    2.611556   3.361458   0.000000
     9  H    4.665203   2.514536   3.083499   0.000000
    10  H    4.820047   3.889665   2.444888   1.853512   0.000000
 Stoichiometry    C4H5F
 Framework group  C1[X(C4H5F)]
 Deg. of freedom    24
 Full point group                 C1      NOp   1
 RotChk:  IX=0 Diff= 4.86D-03
 Largest Abelian subgroup         C1      NOp   1
 Largest concise Abelian subgroup C1      NOp   1
                         Standard orientation:                         
 ---------------------------------------------------------------------
 Center     Atomic      Atomic             Coordinates (Angstroms)
 Number     Number       Type             X           Y           Z
 ---------------------------------------------------------------------
      1          6           0       -1.699485   -0.681946    0.096007
      2          6           0       -0.520512   -0.082990   -0.051981
      3          6           0        0.806486   -0.682136   -0.123113
      4          6           0        1.950276   -0.026901    0.106962
      5          1           0       -2.613757   -0.109983    0.182065
      6          1           0       -1.760694   -1.762932    0.123473
      7          9           0       -0.503062    1.330580   -0.060618
      8          1           0        0.813260   -1.751704   -0.317952
      9          1           0        1.965750    1.037191    0.315921
     10          1           0        2.902414   -0.543957    0.074804
 ---------------------------------------------------------------------
 Rotational constants (GHZ):      9.5548531      4.2083095      2.9480635
 Leave Link  202 at Wed May 12 11:56:01 2021, MaxMem=  2147483648 cpu:         0.0
 (Enter /opt/cluster/programs/g09_d.01/g09/l301.exe)
 Standard basis: 6-31+G (6D, 7F)
 Ernie: Thresh=  0.10000D-02 Tol=  0.10000D-05 Strict=F.
 There are    75 symmetry adapted cartesian basis functions of A   symmetry.
 There are    75 symmetry adapted basis functions of A   symmetry.
    75 basis functions,   150 primitive gaussians,    75 cartesian basis functions
    19 alpha electrons       19 beta electrons
       nuclear repulsion energy       157.8918122326 Hartrees.
 IExCor= 4639 DFT=T Ex+Corr=wB97XD ExCW=0 ScaHFX=  1.000000
 ScaDFX=  1.000000  1.000000  1.000000  1.000000 ScalE2=  1.000000  1.000000
 IRadAn=      0 IRanWt=     -1 IRanGd=            0 ICorTp=0 IEmpDi=121
  HFx wShort=  0.000000 wLong=  0.200000 cFull=  0.222036 cShort=  0.000000 cLong=  0.777964
  DFx wShort=  0.000000 wLong=  0.200000 cFull=  0.000000 cShort=  0.000000 cLong=  1.000000
 NAtoms=   10 NActive=   10 NUniq=   10 SFac= 1.00D+00 NAtFMM=   60 NAOKFM=F Big=F
 Integral buffers will be    131072 words long.
 Raffenetti 2 integral format.
 Two-electron integral symmetry is turned on.
 R6Disp:  Grimme-D2 Dispersion energy=       -0.0029404154 Hartrees.
 Nuclear repulsion after empirical dispersion term =      157.8888718171 Hartrees.
 Leave Link  301 at Wed May 12 11:56:01 2021, MaxMem=  2147483648 cpu:         0.3
 (Enter /opt/cluster/programs/g09_d.01/g09/l302.exe)
 NPDir=0 NMtPBC=     1 NCelOv=     1 NCel=       1 NClECP=     1 NCelD=      1
         NCelK=      1 NCelE2=     1 NClLst=     1 CellRange=     0.0.
 One-electron integrals computed using PRISM.
 NBasis=    75 RedAO= T EigKep=  3.57D-05  NBF=    75
 NBsUse=    75 1.00D-06 EigRej= -1.00D+00 NBFU=    75
 Precomputing XC quadrature grid using
 IXCGrd= 4 IRadAn=           0 IRanWt=          -1 IRanGd=           0 AccXCQ= 0.00D+00.
 Generated NRdTot=       0 NPtTot=           0 NUsed=           0 NTot=          32
 NSgBfM=    75    75    75    75    75 MxSgAt=    10 MxSgA2=    10.
 Leave Link  302 at Wed May 12 11:56:01 2021, MaxMem=  2147483648 cpu:         0.9
 (Enter /opt/cluster/programs/g09_d.01/g09/l303.exe)
 DipDrv:  MaxL=1.
 Leave Link  303 at Wed May 12 11:56:01 2021, MaxMem=  2147483648 cpu:         0.3
 (Enter /opt/cluster/programs/g09_d.01/g09/l401.exe)
 Initial guess from the checkpoint file:  "/home/unibas/boittier/RDKit_G2/B.pdb/SCAN_1_2_3_4_S_17_20.0/1_SCAN_1_2_3_4_F/B.pdb.chk"
 B after Tr=     0.000000    0.000000    0.000000
         Rot=    0.999999    0.000134    0.000063   -0.001059 Ang=   0.12 deg.
 Guess basis will be translated and rotated to current coordinates.
 JPrj=2 DoOrth=T DoCkMO=T.
 Generating alternative initial guess.
 ExpMin= 4.38D-02 ExpMax= 7.00D+03 ExpMxC= 1.05D+03 IAcc=2 IRadAn=         4 AccDes= 0.00D+00
 Harris functional with IExCor= 4639 and IRadAn=       4 diagonalized for initial guess.
 HarFok:  IExCor= 4639 AccDes= 0.00D+00 IRadAn=         4 IDoV= 1 UseB2=F ITyADJ=14
 ICtDFT=  3500011 ScaDFX=  1.000000  1.000000  1.000000  1.000000
 FoFCou: FMM=F IPFlag=           0 FMFlag=      100000 FMFlg1=           0
         NFxFlg=           0 DoJE=T BraDBF=F KetDBF=T FulRan=T
         wScrn=  0.000000 ICntrl=     500 IOpCl=  0 I1Cent=   200000004 NGrid=           0
         NMat0=    1 NMatS0=      1 NMatT0=    0 NMatD0=    1 NMtDS0=    0 NMtDT0=    0
 Petite list used in FoFCou.
 Harris En= -244.786177264320    
 Leave Link  401 at Wed May 12 11:56:02 2021, MaxMem=  2147483648 cpu:         1.7
 (Enter /opt/cluster/programs/g09_d.01/g09/l502.exe)
 Closed shell SCF:
 Using DIIS extrapolation, IDIIS=  1040.
 Integral symmetry usage will be decided dynamically.
 Keep R1 ints in memory in canonical form, NReq=9056162.
 IVT=       36600 IEndB=       36600 NGot=  2147483648 MDV=  2139321699
 LenX=  2139321699 LenY=  2139315633
 Requested convergence on RMS density matrix=1.00D-08 within 128 cycles.
 Requested convergence on MAX density matrix=1.00D-06.
 Requested convergence on             energy=1.00D-06.
 No special actions if energy rises.
 FoFCou: FMM=F IPFlag=           0 FMFlag=           0 FMFlg1=           0
         NFxFlg=           0 DoJE=F BraDBF=F KetDBF=F FulRan=T
         wScrn=  0.000000 ICntrl=     600 IOpCl=  0 I1Cent=           0 NGrid=           0
         NMat0=    1 NMatS0=   2850 NMatT0=    0 NMatD0=    1 NMtDS0=    0 NMtDT0=    0
 Symmetry not used in FoFCou.

 Cycle   1  Pass 1  IDiag  1:
 E= -255.100768073658    
 DIIS: error= 5.39D-04 at cycle   1 NSaved=   1.
 NSaved= 1 IEnMin= 1 EnMin= -255.100768073658     IErMin= 1 ErrMin= 5.39D-04
 ErrMax= 5.39D-04  0.00D+00 EMaxC= 1.00D-01 BMatC= 5.44D-05 BMatP= 5.44D-05
 IDIUse=3 WtCom= 9.95D-01 WtEn= 5.39D-03
 Coeff-Com:  0.100D+01
 Coeff-En:   0.100D+01
 Coeff:      0.100D+01
 Gap=     0.570 Goal=   None    Shift=    0.000
 RMSDP=7.52D-04 MaxDP=1.63D-02              OVMax= 2.29D-03

 Cycle   2  Pass 1  IDiag  1:
 E= -255.100850696797     Delta-E=       -0.000082623139 Rises=F Damp=F
 DIIS: error= 1.59D-04 at cycle   2 NSaved=   2.
 NSaved= 2 IEnMin= 2 EnMin= -255.100850696797     IErMin= 2 ErrMin= 1.59D-04
 ErrMax= 1.59D-04  0.00D+00 EMaxC= 1.00D-01 BMatC= 4.11D-06 BMatP= 5.44D-05
 IDIUse=3 WtCom= 9.98D-01 WtEn= 1.59D-03
 Coeff-Com:  0.280D-01 0.972D+00
 Coeff-En:   0.000D+00 0.100D+01
 Coeff:      0.280D-01 0.972D+00
 Gap=     0.347 Goal=   None    Shift=    0.000
 RMSDP=1.40D-04 MaxDP=3.63D-03 DE=-8.26D-05 OVMax= 9.67D-04

 Cycle   3  Pass 1  IDiag  1:
 E= -255.100856851440     Delta-E=       -0.000006154643 Rises=F Damp=F
 DIIS: error= 1.16D-04 at cycle   3 NSaved=   3.
 NSaved= 3 IEnMin= 3 EnMin= -255.100856851440     IErMin= 3 ErrMin= 1.16D-04
 ErrMax= 1.16D-04  0.00D+00 EMaxC= 1.00D-01 BMatC= 1.27D-06 BMatP= 4.11D-06
 IDIUse=3 WtCom= 9.99D-01 WtEn= 1.16D-03
 Coeff-Com: -0.654D-01 0.325D+00 0.740D+00
 Coeff-En:   0.000D+00 0.000D+00 0.100D+01
 Coeff:     -0.654D-01 0.325D+00 0.741D+00
 Gap=     0.347 Goal=   None    Shift=    0.000
 RMSDP=3.82D-05 MaxDP=6.74D-04 DE=-6.15D-06 OVMax= 3.48D-04

 Cycle   4  Pass 1  IDiag  1:
 E= -255.100858246460     Delta-E=       -0.000001395020 Rises=F Damp=F
 DIIS: error= 3.81D-05 at cycle   4 NSaved=   4.
 NSaved= 4 IEnMin= 4 EnMin= -255.100858246460     IErMin= 4 ErrMin= 3.81D-05
 ErrMax= 3.81D-05  0.00D+00 EMaxC= 1.00D-01 BMatC= 1.56D-07 BMatP= 1.27D-06
 IDIUse=1 WtCom= 1.00D+00 WtEn= 0.00D+00
 Coeff-Com: -0.251D-01 0.513D-01 0.287D+00 0.687D+00
 Coeff:     -0.251D-01 0.513D-01 0.287D+00 0.687D+00
 Gap=     0.347 Goal=   None    Shift=    0.000
 RMSDP=1.28D-05 MaxDP=2.43D-04 DE=-1.40D-06 OVMax= 1.47D-04

 Cycle   5  Pass 1  IDiag  1:
 E= -255.100858418560     Delta-E=       -0.000000172099 Rises=F Damp=F
 DIIS: error= 1.22D-05 at cycle   5 NSaved=   5.
 NSaved= 5 IEnMin= 5 EnMin= -255.100858418560     IErMin= 5 ErrMin= 1.22D-05
 ErrMax= 1.22D-05  0.00D+00 EMaxC= 1.00D-01 BMatC= 2.42D-08 BMatP= 1.56D-07
 IDIUse=1 WtCom= 1.00D+00 WtEn= 0.00D+00
 Coeff-Com:  0.851D-02-0.656D-01-0.962D-01 0.253D+00 0.900D+00
 Coeff:      0.851D-02-0.656D-01-0.962D-01 0.253D+00 0.900D+00
 Gap=     0.347 Goal=   None    Shift=    0.000
 RMSDP=8.50D-06 MaxDP=1.84D-04 DE=-1.72D-07 OVMax= 1.10D-04

 Cycle   6  Pass 1  IDiag  1:
 E= -255.100858462911     Delta-E=       -0.000000044352 Rises=F Damp=F
 DIIS: error= 2.80D-06 at cycle   6 NSaved=   6.
 NSaved= 6 IEnMin= 6 EnMin= -255.100858462911     IErMin= 6 ErrMin= 2.80D-06
 ErrMax= 2.80D-06  0.00D+00 EMaxC= 1.00D-01 BMatC= 3.25D-10 BMatP= 2.42D-08
 IDIUse=1 WtCom= 1.00D+00 WtEn= 0.00D+00
 Coeff-Com:  0.115D-03 0.451D-02-0.430D-02-0.479D-01-0.118D+00 0.117D+01
 Coeff:      0.115D-03 0.451D-02-0.430D-02-0.479D-01-0.118D+00 0.117D+01
 Gap=     0.347 Goal=   None    Shift=    0.000
 RMSDP=2.77D-06 MaxDP=5.48D-05 DE=-4.44D-08 OVMax= 2.83D-05

 Cycle   7  Pass 1  IDiag  1:
 E= -255.100858464314     Delta-E=       -0.000000001402 Rises=F Damp=F
 DIIS: error= 1.40D-06 at cycle   7 NSaved=   7.
 NSaved= 7 IEnMin= 7 EnMin= -255.100858464314     IErMin= 7 ErrMin= 1.40D-06
 ErrMax= 1.40D-06  0.00D+00 EMaxC= 1.00D-01 BMatC= 1.22D-10 BMatP= 3.25D-10
 IDIUse=1 WtCom= 1.00D+00 WtEn= 0.00D+00
 Coeff-Com: -0.319D-03 0.540D-02 0.270D-02-0.355D-01-0.990D-01 0.542D+00
 Coeff-Com:  0.585D+00
 Coeff:     -0.319D-03 0.540D-02 0.270D-02-0.355D-01-0.990D-01 0.542D+00
 Coeff:      0.585D+00
 Gap=     0.347 Goal=   None    Shift=    0.000
 RMSDP=5.52D-07 MaxDP=8.41D-06 DE=-1.40D-09 OVMax= 5.34D-06

 Cycle   8  Pass 1  IDiag  1:
 E= -255.100858464462     Delta-E=       -0.000000000148 Rises=F Damp=F
 DIIS: error= 2.25D-07 at cycle   8 NSaved=   8.
 NSaved= 8 IEnMin= 8 EnMin= -255.100858464462     IErMin= 8 ErrMin= 2.25D-07
 ErrMax= 2.25D-07  0.00D+00 EMaxC= 1.00D-01 BMatC= 4.65D-12 BMatP= 1.22D-10
 IDIUse=1 WtCom= 1.00D+00 WtEn= 0.00D+00
 Coeff-Com: -0.945D-04 0.280D-03 0.143D-02 0.615D-03 0.530D-03-0.868D-01
 Coeff-Com:  0.880D-01 0.996D+00
 Coeff:     -0.945D-04 0.280D-03 0.143D-02 0.615D-03 0.530D-03-0.868D-01
 Coeff:      0.880D-01 0.996D+00
 Gap=     0.347 Goal=   None    Shift=    0.000
 RMSDP=1.92D-07 MaxDP=2.87D-06 DE=-1.48D-10 OVMax= 1.89D-06

 Cycle   9  Pass 1  IDiag  1:
 E= -255.100858464473     Delta-E=       -0.000000000011 Rises=F Damp=F
 DIIS: error= 5.17D-08 at cycle   9 NSaved=   9.
 NSaved= 9 IEnMin= 9 EnMin= -255.100858464473     IErMin= 9 ErrMin= 5.17D-08
 ErrMax= 5.17D-08  0.00D+00 EMaxC= 1.00D-01 BMatC= 2.14D-13 BMatP= 4.65D-12
 IDIUse=1 WtCom= 1.00D+00 WtEn= 0.00D+00
 Coeff-Com:  0.164D-05-0.203D-03 0.529D-04 0.183D-02 0.443D-02-0.371D-01
 Coeff-Com: -0.114D-01 0.143D+00 0.899D+00
 Coeff:      0.164D-05-0.203D-03 0.529D-04 0.183D-02 0.443D-02-0.371D-01
 Coeff:     -0.114D-01 0.143D+00 0.899D+00
 Gap=     0.347 Goal=   None    Shift=    0.000
 RMSDP=4.87D-08 MaxDP=8.41D-07 DE=-1.09D-11 OVMax= 3.46D-07

 Cycle  10  Pass 1  IDiag  1:
 E= -255.100858464472     Delta-E=        0.000000000001 Rises=F Damp=F
 DIIS: error= 2.86D-08 at cycle  10 NSaved=  10.
 NSaved=10 IEnMin= 9 EnMin= -255.100858464473     IErMin=10 ErrMin= 2.86D-08
 ErrMax= 2.86D-08  0.00D+00 EMaxC= 1.00D-01 BMatC= 6.01D-14 BMatP= 2.14D-13
 IDIUse=1 WtCom= 1.00D+00 WtEn= 0.00D+00
 Coeff-Com:  0.946D-05-0.103D-03-0.123D-03 0.675D-03 0.163D-02-0.595D-02
 Coeff-Com: -0.131D-01-0.502D-01 0.364D+00 0.703D+00
 Coeff:      0.946D-05-0.103D-03-0.123D-03 0.675D-03 0.163D-02-0.595D-02
 Coeff:     -0.131D-01-0.502D-01 0.364D+00 0.703D+00
 Gap=     0.347 Goal=   None    Shift=    0.000
 RMSDP=1.53D-08 MaxDP=3.13D-07 DE= 7.39D-13 OVMax= 1.35D-07

 Cycle  11  Pass 1  IDiag  1:
 E= -255.100858464473     Delta-E=       -0.000000000001 Rises=F Damp=F
 DIIS: error= 7.61D-09 at cycle  11 NSaved=  11.
 NSaved=11 IEnMin= 9 EnMin= -255.100858464473     IErMin=11 ErrMin= 7.61D-09
 ErrMax= 7.61D-09  0.00D+00 EMaxC= 1.00D-01 BMatC= 3.40D-15 BMatP= 6.01D-14
 IDIUse=1 WtCom= 1.00D+00 WtEn= 0.00D+00
 Coeff-Com:  0.230D-05-0.700D-05-0.343D-04-0.110D-04-0.254D-05 0.199D-02
 Coeff-Com: -0.159D-02-0.239D-01-0.909D-02 0.143D+00 0.890D+00
 Coeff:      0.230D-05-0.700D-05-0.343D-04-0.110D-04-0.254D-05 0.199D-02
 Coeff:     -0.159D-02-0.239D-01-0.909D-02 0.143D+00 0.890D+00
 Gap=     0.347 Goal=   None    Shift=    0.000
 RMSDP=4.91D-09 MaxDP=7.69D-08 DE=-6.82D-13 OVMax= 4.73D-08

 SCF Done:  E(RwB97XD) =  -255.100858464     A.U. after   11 cycles
            NFock= 11  Conv=0.49D-08     -V/T= 2.0056
 KE= 2.536793411620D+02 PE=-9.134526771298D+02 EE= 2.467836056862D+02
 Leave Link  502 at Wed May 12 11:56:03 2021, MaxMem=  2147483648 cpu:        11.1
 (Enter /opt/cluster/programs/g09_d.01/g09/l701.exe)
 Compute integral first derivatives.
 ... and contract with generalized density number  0.
 R6Disp: Adding Grimme-D2 dispersion energy 1st derivatives to the gradient.
 Leave Link  701 at Wed May 12 11:56:03 2021, MaxMem=  2147483648 cpu:         0.6
 (Enter /opt/cluster/programs/g09_d.01/g09/l702.exe)
 L702 exits ... SP integral derivatives will be done elsewhere.
 Leave Link  702 at Wed May 12 11:56:03 2021, MaxMem=  2147483648 cpu:         0.2
 (Enter /opt/cluster/programs/g09_d.01/g09/l703.exe)
 Compute integral first derivatives, UseDBF=F ICtDFT=           0.
 Integral derivatives from FoFJK, PRISM(SPDF).
 Calling FoFJK, ICntrl=      2127 FMM=F ISym2X=0 I1Cent= 0 IOpClX= 0 NMat=1 NMatS=1 NMatT=0.
 FoFJK:  IHMeth= 1 ICntrl=    2127 DoSepK=T KAlg= 0 I1Cent=   0 FoldK=F
 IRaf=         1 NMat=   1 IRICut=       1 DoRegI=T DoRafI=F ISym2E= 0.
 FoFCou: FMM=F IPFlag=           0 FMFlag=      100000 FMFlg1=         800
         NFxFlg=           0 DoJE=F BraDBF=F KetDBF=F FulRan=T
         wScrn=  0.000000 ICntrl=    2527 IOpCl=  0 I1Cent=           0 NGrid=           0
         NMat0=    1 NMatS0=      1 NMatT0=    0 NMatD0=    1 NMtDS0=    0 NMtDT0=    0
 Symmetry not used in FoFCou.
 Leave Link  703 at Wed May 12 11:56:04 2021, MaxMem=  2147483648 cpu:         3.3
 (Enter /opt/cluster/programs/g09_d.01/g09/l716.exe)
 Dipole        = 1.50938965D-01-8.26517418D-01 6.09049183D-02
 ***** Axes restored to original set *****
 -------------------------------------------------------------------
 Center     Atomic                   Forces (Hartrees/Bohr)
 Number     Number              X              Y              Z
 -------------------------------------------------------------------
      1        6          -0.000893480   -0.001301054   -0.003340528
      2        6          -0.000132042    0.004274938    0.003645826
      3        6          -0.000056509   -0.002648332    0.002642477
      4        6           0.000834650    0.001231378   -0.003109777
      5        1          -0.000096634   -0.000057317   -0.000013923
      6        1          -0.000063597    0.000031919    0.000099355
      7        9           0.000378095   -0.001677522   -0.000013271
      8        1          -0.000180990    0.000034466   -0.000036642
      9        1           0.000080664    0.000015008    0.000052953
     10        1           0.000129843    0.000096516    0.000073529
 -------------------------------------------------------------------
 Cartesian Forces:  Max     0.004274938 RMS     0.001572464
 Leave Link  716 at Wed May 12 11:56:04 2021, MaxMem=  2147483648 cpu:         0.2
 (Enter /opt/cluster/programs/g09_d.01/g09/l103.exe)

 GradGradGradGradGradGradGradGradGradGradGradGradGradGradGradGradGradGrad
 Berny optimization.
 Using GEDIIS/GDIIS optimizer.
 FormGI is forming the generalized inverse of G from B-inverse, IUseBI=4.
 Internal  Forces:  Max     0.003272328 RMS     0.000958039
 Search for a local minimum.
 Step number   2 out of a maximum of   43
 All quantities printed in internal units (Hartrees-Bohrs-Radians)
 RMS Force = .51281D-03 SwitMx=.10000D-02 MixMth= 2
 Mixed Optimization -- En-DIIS/RFO-DIIS
 Update second derivatives using D2CorX and points    1    2
 DE= -1.59D-04 DEPred=-1.57D-04 R= 1.02D+00
 TightC=F SS=  1.41D+00  RLast= 3.40D-02 DXNew= 5.0454D-01 1.0187D-01
 Trust test= 1.02D+00 RLast= 3.40D-02 DXMaxT set to 3.00D-01
 ITU=  1  0
 Use linear search instead of GDIIS.
     Eigenvalues ---    0.01744   0.02151   0.02817   0.02825   0.02910
     Eigenvalues ---    0.02918   0.15937   0.15996   0.16000   0.16000
     Eigenvalues ---    0.16173   0.21624   0.24037   0.24982   0.34004
     Eigenvalues ---    0.35111   0.35414   0.35461   0.35589   0.35727
     Eigenvalues ---    0.39302   0.56861   0.699181000.000001000.00000
     Eigenvalues --- 1000.000001000.000001000.000001000.000001000.00000
     Eigenvalues --- 1000.000001000.000001000.00000
 RFO step:  Lambda=-2.30812262D-05 EMin= 1.74443079D-02
 Quartic linear search produced a step of  0.01495.
 Iteration  1 RMS(Cart)=  0.00225549 RMS(Int)=  0.00000327
 Iteration  2 RMS(Cart)=  0.00000417 RMS(Int)=  0.00000052
 Iteration  3 RMS(Cart)=  0.00000000 RMS(Int)=  0.00000052
 Iteration  1 RMS(Cart)=  0.00000038 RMS(Int)=  0.00000026
 ITry= 1 IFail=0 DXMaxC= 5.01D-03 DCOld= 1.00D+10 DXMaxT= 3.00D-01 DXLimC= 3.00D+00 Rises=F
 Variable       Old X    -DE/DX   Delta X   Delta X   Delta X     New X
                                 (Linear)    (Quad)   (Total)
    R1        2.51456   0.00117  -0.00019   0.00131   0.00112   2.51568
    R2        2.04444   0.00005  -0.00002   0.00006   0.00004   2.04448
    R3        2.04670  -0.00002  -0.00002  -0.00013  -0.00014   2.04656
    R4        2.75470   0.00127   0.00004   0.00361   0.00366   2.75836
    R5        2.67151  -0.00167  -0.00023  -0.00490  -0.00513   2.66638
    R6        2.52865   0.00104  -0.00019   0.00114   0.00095   2.52960
    R7        2.05449  -0.00003  -0.00002  -0.00017  -0.00020   2.05430
    R8        2.04946   0.00003  -0.00001   0.00005   0.00004   2.04949
    R9        2.04837   0.00006  -0.00002   0.00010   0.00007   2.04844
    A1        2.11722   0.00009  -0.00002   0.00049   0.00047   2.11769
    A2        2.09688   0.00003  -0.00003   0.00006   0.00003   2.09691
    A3        2.06905  -0.00012   0.00005  -0.00054  -0.00049   2.06855
    A4        2.24846  -0.00070  -0.00004  -0.00307  -0.00311   2.24535
    A5        2.05070   0.00099   0.00004   0.00379   0.00383   2.05453
    A6        1.98170  -0.00020   0.00000  -0.00067  -0.00067   1.98103
    A7        2.17545  -0.00009  -0.00007  -0.00081  -0.00088   2.17457
    A8        2.00289  -0.00016   0.00004  -0.00071  -0.00066   2.00222
    A9        2.10276   0.00034   0.00003   0.00161   0.00165   2.10440
   A10        2.12442   0.00000  -0.00002  -0.00005  -0.00006   2.12435
   A11        2.10849   0.00017  -0.00003   0.00094   0.00091   2.10940
   A12        2.05015  -0.00017   0.00005  -0.00085  -0.00081   2.04935
    D1        3.08893   0.00085   0.00008   0.00121   0.00129   3.09022
    D2        0.02572  -0.00080  -0.00006   0.00055   0.00050   0.02621
    D3       -0.06252   0.00089   0.00010   0.00296   0.00306  -0.05946
    D4       -3.12573  -0.00075  -0.00003   0.00230   0.00227  -3.12347
    D5       -2.79234  -0.00327   0.00000   0.00000   0.00000  -2.79234
    D6        0.27976  -0.00166   0.00010   0.00172   0.00181   0.28157
    D7        0.27342  -0.00164   0.00013   0.00081   0.00094   0.27436
    D8       -2.93767  -0.00003   0.00022   0.00253   0.00275  -2.93491
    D9       -0.05946   0.00089   0.00004   0.00251   0.00255  -0.05691
   D10        3.09937   0.00080   0.00010  -0.00037  -0.00027   3.09910
   D11       -3.12782  -0.00079  -0.00006   0.00080   0.00073  -3.12709
   D12        0.03101  -0.00088   0.00000  -0.00209  -0.00209   0.02893
         Item               Value     Threshold  Converged?
 Maximum Force            0.001672     0.000450     NO 
 RMS     Force            0.000513     0.000300     NO 
 Maximum Displacement     0.005015     0.001800     NO 
 RMS     Displacement     0.002255     0.001200     NO 
 Predicted change in Energy=-1.159083D-05
 Lowest energy point so far.  Saving SCF results.
 GradGradGradGradGradGradGradGradGradGradGradGradGradGradGradGradGradGrad

 Leave Link  103 at Wed May 12 11:56:04 2021, MaxMem=  2147483648 cpu:         0.0
 (Enter /opt/cluster/programs/g09_d.01/g09/l202.exe)
                          Input orientation:                          
 ---------------------------------------------------------------------
 Center     Atomic      Atomic             Coordinates (Angstroms)
 Number     Number       Type             X           Y           Z
 ---------------------------------------------------------------------
      1          6           0       -1.701361   -0.678772    0.096726
      2          6           0       -0.521481   -0.080598   -0.052504
      3          6           0        0.805068   -0.685630   -0.121831
      4          6           0        1.951031   -0.032847    0.107330
      5          1           0       -2.615706   -0.106521    0.180325
      6          1           0       -1.762940   -1.759518    0.129365
      7          9           0       -0.497957    1.330132   -0.065806
      8          1           0        0.807275   -1.755263   -0.315839
      9          1           0        1.969152    1.031286    0.315965
     10          1           0        2.902186   -0.551926    0.077426
 ---------------------------------------------------------------------
                    Distance matrix (angstroms):
                    1          2          3          4          5
     1  C    0.000000
     2  C    1.331240   0.000000
     3  C    2.515950   1.459659   0.000000
     4  C    3.709083   2.478133   1.338608   0.000000
     5  H    1.081890   2.107287   3.482580   4.567915   0.000000
     6  H    1.082991   2.095966   2.794817   4.095786   1.860701
     7  F    2.347401   1.410989   2.400898   2.808066   2.570877
     8  H    2.760851   2.153937   1.087087   2.110442   3.831622
     9  H    4.055247   2.752328   2.120037   1.084544   4.725879
    10  H    4.605335   3.458400   2.110802   1.083990   5.536796
                    6          7          8          9         10
     6  H    0.000000
     7  F    3.344281   0.000000
     8  H    2.608492   3.359437   0.000000
     9  H    4.663896   2.514297   3.084476   0.000000
    10  H    4.819168   3.888912   2.447720   1.853109   0.000000
 Stoichiometry    C4H5F
 Framework group  C1[X(C4H5F)]
 Deg. of freedom    24
 Full point group                 C1      NOp   1
 RotChk:  IX=0 Diff= 1.05D-03
 Largest Abelian subgroup         C1      NOp   1
 Largest concise Abelian subgroup C1      NOp   1
                         Standard orientation:                         
 ---------------------------------------------------------------------
 Center     Atomic      Atomic             Coordinates (Angstroms)
 Number     Number       Type             X           Y           Z
 ---------------------------------------------------------------------
      1          6           0       -1.700423   -0.681482    0.096165
      2          6           0       -0.521815   -0.080495   -0.051805
      3          6           0        0.805915   -0.682651   -0.123541
      4          6           0        1.950669   -0.028256    0.107058
      5          1           0       -2.615877   -0.111322    0.181888
      6          1           0       -1.759818   -1.762443    0.125595
      7          9           0       -0.501129    1.330313   -0.060893
      8          1           0        0.810181   -1.751692   -0.320752
      9          1           0        1.966750    1.035281    0.318871
     10          1           0        2.902851   -0.545331    0.075171
 ---------------------------------------------------------------------
 Rotational constants (GHZ):      9.5574274      4.2068783      2.9478257
 Leave Link  202 at Wed May 12 11:56:04 2021, MaxMem=  2147483648 cpu:         0.0
 (Enter /opt/cluster/programs/g09_d.01/g09/l301.exe)
 Standard basis: 6-31+G (6D, 7F)
 Ernie: Thresh=  0.10000D-02 Tol=  0.10000D-05 Strict=F.
 There are    75 symmetry adapted cartesian basis functions of A   symmetry.
 There are    75 symmetry adapted basis functions of A   symmetry.
    75 basis functions,   150 primitive gaussians,    75 cartesian basis functions
    19 alpha electrons       19 beta electrons
       nuclear repulsion energy       157.8925979435 Hartrees.
 IExCor= 4639 DFT=T Ex+Corr=wB97XD ExCW=0 ScaHFX=  1.000000
 ScaDFX=  1.000000  1.000000  1.000000  1.000000 ScalE2=  1.000000  1.000000
 IRadAn=      0 IRanWt=     -1 IRanGd=            0 ICorTp=0 IEmpDi=121
  HFx wShort=  0.000000 wLong=  0.200000 cFull=  0.222036 cShort=  0.000000 cLong=  0.777964
  DFx wShort=  0.000000 wLong=  0.200000 cFull=  0.000000 cShort=  0.000000 cLong=  1.000000
 NAtoms=   10 NActive=   10 NUniq=   10 SFac= 1.00D+00 NAtFMM=   60 NAOKFM=F Big=F
 Integral buffers will be    131072 words long.
 Raffenetti 2 integral format.
 Two-electron integral symmetry is turned on.
 R6Disp:  Grimme-D2 Dispersion energy=       -0.0029410421 Hartrees.
 Nuclear repulsion after empirical dispersion term =      157.8896569014 Hartrees.
 Leave Link  301 at Wed May 12 11:56:04 2021, MaxMem=  2147483648 cpu:         0.3
 (Enter /opt/cluster/programs/g09_d.01/g09/l302.exe)
 NPDir=0 NMtPBC=     1 NCelOv=     1 NCel=       1 NClECP=     1 NCelD=      1
         NCelK=      1 NCelE2=     1 NClLst=     1 CellRange=     0.0.
 One-electron integrals computed using PRISM.
 NBasis=    75 RedAO= T EigKep=  3.58D-05  NBF=    75
 NBsUse=    75 1.00D-06 EigRej= -1.00D+00 NBFU=    75
 Precomputing XC quadrature grid using
 IXCGrd= 4 IRadAn=           0 IRanWt=          -1 IRanGd=           0 AccXCQ= 0.00D+00.
 Generated NRdTot=       0 NPtTot=           0 NUsed=           0 NTot=          32
 NSgBfM=    75    75    75    75    75 MxSgAt=    10 MxSgA2=    10.
 Leave Link  302 at Wed May 12 11:56:04 2021, MaxMem=  2147483648 cpu:         0.9
 (Enter /opt/cluster/programs/g09_d.01/g09/l303.exe)
 DipDrv:  MaxL=1.
 Leave Link  303 at Wed May 12 11:56:04 2021, MaxMem=  2147483648 cpu:         0.2
 (Enter /opt/cluster/programs/g09_d.01/g09/l401.exe)
 Initial guess from the checkpoint file:  "/home/unibas/boittier/RDKit_G2/B.pdb/SCAN_1_2_3_4_S_17_20.0/1_SCAN_1_2_3_4_F/B.pdb.chk"
 B after Tr=     0.000000    0.000000    0.000000
         Rot=    1.000000   -0.000059   -0.000008    0.000348 Ang=  -0.04 deg.
 Guess basis will be translated and rotated to current coordinates.
 JPrj=2 DoOrth=T DoCkMO=T.
 Leave Link  401 at Wed May 12 11:56:04 2021, MaxMem=  2147483648 cpu:         0.6
 (Enter /opt/cluster/programs/g09_d.01/g09/l502.exe)
 Closed shell SCF:
 Using DIIS extrapolation, IDIIS=  1040.
 Integral symmetry usage will be decided dynamically.
 Keep R1 ints in memory in canonical form, NReq=9056162.
 IVT=       36600 IEndB=       36600 NGot=  2147483648 MDV=  2139321699
 LenX=  2139321699 LenY=  2139315633
 Requested convergence on RMS density matrix=1.00D-08 within 128 cycles.
 Requested convergence on MAX density matrix=1.00D-06.
 Requested convergence on             energy=1.00D-06.
 No special actions if energy rises.
 FoFCou: FMM=F IPFlag=           0 FMFlag=           0 FMFlg1=           0
         NFxFlg=           0 DoJE=F BraDBF=F KetDBF=F FulRan=T
         wScrn=  0.000000 ICntrl=     600 IOpCl=  0 I1Cent=           0 NGrid=           0
         NMat0=    1 NMatS0=   2850 NMatT0=    0 NMatD0=    1 NMtDS0=    0 NMtDT0=    0
 Symmetry not used in FoFCou.

 Cycle   1  Pass 1  IDiag  1:
 E= -255.100862974049    
 DIIS: error= 1.89D-04 at cycle   1 NSaved=   1.
 NSaved= 1 IEnMin= 1 EnMin= -255.100862974049     IErMin= 1 ErrMin= 1.89D-04
 ErrMax= 1.89D-04  0.00D+00 EMaxC= 1.00D-01 BMatC= 6.75D-06 BMatP= 6.75D-06
 IDIUse=3 WtCom= 9.98D-01 WtEn= 1.89D-03
 Coeff-Com:  0.100D+01
 Coeff-En:   0.100D+01
 Coeff:      0.100D+01
 Gap=     0.570 Goal=   None    Shift=    0.000
 RMSDP=1.21D-04 MaxDP=2.36D-03              OVMax= 8.10D-04

 Cycle   2  Pass 1  IDiag  1:
 E= -255.100872069708     Delta-E=       -0.000009095659 Rises=F Damp=F
 DIIS: error= 1.11D-04 at cycle   2 NSaved=   2.
 NSaved= 2 IEnMin= 2 EnMin= -255.100872069708     IErMin= 2 ErrMin= 1.11D-04
 ErrMax= 1.11D-04  0.00D+00 EMaxC= 1.00D-01 BMatC= 1.39D-06 BMatP= 6.75D-06
 IDIUse=3 WtCom= 9.99D-01 WtEn= 1.11D-03
 Coeff-Com:  0.178D+00 0.822D+00
 Coeff-En:   0.000D+00 0.100D+01
 Coeff:      0.178D+00 0.822D+00
 Gap=     0.347 Goal=   None    Shift=    0.000
 RMSDP=4.38D-05 MaxDP=8.78D-04 DE=-9.10D-06 OVMax= 3.10D-04

 Cycle   3  Pass 1  IDiag  1:
 E= -255.100872734676     Delta-E=       -0.000000664968 Rises=F Damp=F
 DIIS: error= 1.04D-04 at cycle   3 NSaved=   3.
 NSaved= 3 IEnMin= 3 EnMin= -255.100872734676     IErMin= 3 ErrMin= 1.04D-04
 ErrMax= 1.04D-04  0.00D+00 EMaxC= 1.00D-01 BMatC= 8.61D-07 BMatP= 1.39D-06
 IDIUse=3 WtCom= 9.99D-01 WtEn= 1.04D-03
 Coeff-Com: -0.948D-01 0.449D+00 0.646D+00
 Coeff-En:   0.000D+00 0.262D+00 0.738D+00
 Coeff:     -0.947D-01 0.449D+00 0.646D+00
 Gap=     0.347 Goal=   None    Shift=    0.000
 RMSDP=2.58D-05 MaxDP=5.80D-04 DE=-6.65D-07 OVMax= 1.75D-04

 Cycle   4  Pass 1  IDiag  1:
 E= -255.100873374260     Delta-E=       -0.000000639584 Rises=F Damp=F
 DIIS: error= 8.22D-06 at cycle   4 NSaved=   4.
 NSaved= 4 IEnMin= 4 EnMin= -255.100873374260     IErMin= 4 ErrMin= 8.22D-06
 ErrMax= 8.22D-06  0.00D+00 EMaxC= 1.00D-01 BMatC= 7.00D-09 BMatP= 8.61D-07
 IDIUse=1 WtCom= 1.00D+00 WtEn= 0.00D+00
 Coeff-Com: -0.145D-01 0.180D-01 0.808D-01 0.916D+00
 Coeff:     -0.145D-01 0.180D-01 0.808D-01 0.916D+00
 Gap=     0.347 Goal=   None    Shift=    0.000
 RMSDP=4.42D-06 MaxDP=6.40D-05 DE=-6.40D-07 OVMax= 4.66D-05

 Cycle   5  Pass 1  IDiag  1:
 E= -255.100873386305     Delta-E=       -0.000000012045 Rises=F Damp=F
 DIIS: error= 4.25D-06 at cycle   5 NSaved=   5.
 NSaved= 5 IEnMin= 5 EnMin= -255.100873386305     IErMin= 5 ErrMin= 4.25D-06
 ErrMax= 4.25D-06  0.00D+00 EMaxC= 1.00D-01 BMatC= 1.51D-09 BMatP= 7.00D-09
 IDIUse=1 WtCom= 1.00D+00 WtEn= 0.00D+00
 Coeff-Com:  0.744D-02-0.540D-01-0.558D-01 0.313D+00 0.790D+00
 Coeff:      0.744D-02-0.540D-01-0.558D-01 0.313D+00 0.790D+00
 Gap=     0.347 Goal=   None    Shift=    0.000
 RMSDP=2.28D-06 MaxDP=3.84D-05 DE=-1.20D-08 OVMax= 2.12D-05

 Cycle   6  Pass 1  IDiag  1:
 E= -255.100873388888     Delta-E=       -0.000000002583 Rises=F Damp=F
 DIIS: error= 1.05D-06 at cycle   6 NSaved=   6.
 NSaved= 6 IEnMin= 6 EnMin= -255.100873388888     IErMin= 6 ErrMin= 1.05D-06
 ErrMax= 1.05D-06  0.00D+00 EMaxC= 1.00D-01 BMatC= 1.14D-10 BMatP= 1.51D-09
 IDIUse=1 WtCom= 1.00D+00 WtEn= 0.00D+00
 Coeff-Com:  0.337D-02-0.172D-01-0.233D-01 0.293D-01 0.228D+00 0.780D+00
 Coeff:      0.337D-02-0.172D-01-0.233D-01 0.293D-01 0.228D+00 0.780D+00
 Gap=     0.347 Goal=   None    Shift=    0.000
 RMSDP=5.02D-07 MaxDP=6.78D-06 DE=-2.58D-09 OVMax= 7.32D-06

 Cycle   7  Pass 1  IDiag  1:
 E= -255.100873389089     Delta-E=       -0.000000000201 Rises=F Damp=F
 DIIS: error= 5.97D-07 at cycle   7 NSaved=   7.
 NSaved= 7 IEnMin= 7 EnMin= -255.100873389089     IErMin= 7 ErrMin= 5.97D-07
 ErrMax= 5.97D-07  0.00D+00 EMaxC= 1.00D-01 BMatC= 2.39D-11 BMatP= 1.14D-10
 IDIUse=1 WtCom= 1.00D+00 WtEn= 0.00D+00
 Coeff-Com: -0.268D-03 0.421D-02 0.169D-02-0.493D-01-0.692D-01 0.288D+00
 Coeff-Com:  0.825D+00
 Coeff:     -0.268D-03 0.421D-02 0.169D-02-0.493D-01-0.692D-01 0.288D+00
 Coeff:      0.825D+00
 Gap=     0.347 Goal=   None    Shift=    0.000
 RMSDP=2.46D-07 MaxDP=3.64D-06 DE=-2.01D-10 OVMax= 2.87D-06

 Cycle   8  Pass 1  IDiag  1:
 E= -255.100873389131     Delta-E=       -0.000000000042 Rises=F Damp=F
 DIIS: error= 8.07D-08 at cycle   8 NSaved=   8.
 NSaved= 8 IEnMin= 8 EnMin= -255.100873389131     IErMin= 8 ErrMin= 8.07D-08
 ErrMax= 8.07D-08  0.00D+00 EMaxC= 1.00D-01 BMatC= 7.26D-13 BMatP= 2.39D-11
 IDIUse=1 WtCom= 1.00D+00 WtEn= 0.00D+00
 Coeff-Com: -0.223D-03 0.179D-02 0.165D-02-0.113D-01-0.258D-01 0.132D-01
 Coeff-Com:  0.162D+00 0.859D+00
 Coeff:     -0.223D-03 0.179D-02 0.165D-02-0.113D-01-0.258D-01 0.132D-01
 Coeff:      0.162D+00 0.859D+00
 Gap=     0.347 Goal=   None    Shift=    0.000
 RMSDP=5.38D-08 MaxDP=7.67D-07 DE=-4.24D-11 OVMax= 5.95D-07

 Cycle   9  Pass 1  IDiag  1:
 E= -255.100873389133     Delta-E=       -0.000000000001 Rises=F Damp=F
 DIIS: error= 3.59D-08 at cycle   9 NSaved=   9.
 NSaved= 9 IEnMin= 9 EnMin= -255.100873389133     IErMin= 9 ErrMin= 3.59D-08
 ErrMax= 3.59D-08  0.00D+00 EMaxC= 1.00D-01 BMatC= 1.16D-13 BMatP= 7.26D-13
 IDIUse=1 WtCom= 1.00D+00 WtEn= 0.00D+00
 Coeff-Com: -0.445D-04 0.626D-04 0.355D-03 0.213D-02 0.725D-05-0.293D-01
 Coeff-Com: -0.510D-01 0.245D+00 0.833D+00
 Coeff:     -0.445D-04 0.626D-04 0.355D-03 0.213D-02 0.725D-05-0.293D-01
 Coeff:     -0.510D-01 0.245D+00 0.833D+00
 Gap=     0.347 Goal=   None    Shift=    0.000
 RMSDP=2.43D-08 MaxDP=3.41D-07 DE=-1.48D-12 OVMax= 2.95D-07

 Cycle  10  Pass 1  IDiag  1:
 E= -255.100873389131     Delta-E=        0.000000000002 Rises=F Damp=F
 DIIS: error= 1.89D-08 at cycle  10 NSaved=  10.
 NSaved=10 IEnMin= 9 EnMin= -255.100873389133     IErMin=10 ErrMin= 1.89D-08
 ErrMax= 1.89D-08  0.00D+00 EMaxC= 1.00D-01 BMatC= 1.40D-14 BMatP= 1.16D-13
 IDIUse=1 WtCom= 1.00D+00 WtEn= 0.00D+00
 Coeff-Com:  0.239D-05-0.112D-03-0.163D-04 0.162D-02 0.199D-02-0.985D-02
 Coeff-Com: -0.304D-01 0.155D-01 0.285D+00 0.736D+00
 Coeff:      0.239D-05-0.112D-03-0.163D-04 0.162D-02 0.199D-02-0.985D-02
 Coeff:     -0.304D-01 0.155D-01 0.285D+00 0.736D+00
 Gap=     0.347 Goal=   None    Shift=    0.000
 RMSDP=1.15D-08 MaxDP=2.15D-07 DE= 1.93D-12 OVMax= 5.92D-08

 Cycle  11  Pass 1  IDiag  1:
 E= -255.100873389132     Delta-E=       -0.000000000001 Rises=F Damp=F
 DIIS: error= 3.88D-09 at cycle  11 NSaved=  11.
 NSaved=11 IEnMin= 9 EnMin= -255.100873389133     IErMin=11 ErrMin= 3.88D-09
 ErrMax= 3.88D-09  0.00D+00 EMaxC= 1.00D-01 BMatC= 1.71D-15 BMatP= 1.40D-14
 IDIUse=1 WtCom= 1.00D+00 WtEn= 0.00D+00
 Coeff-Com:  0.775D-05-0.508D-04-0.652D-04 0.281D-03 0.678D-03 0.991D-03
 Coeff-Com: -0.407D-02-0.331D-01-0.220D-01 0.254D+00 0.803D+00
 Coeff:      0.775D-05-0.508D-04-0.652D-04 0.281D-03 0.678D-03 0.991D-03
 Coeff:     -0.407D-02-0.331D-01-0.220D-01 0.254D+00 0.803D+00
 Gap=     0.347 Goal=   None    Shift=    0.000
 RMSDP=5.34D-09 MaxDP=1.15D-07 DE=-1.48D-12 OVMax= 3.24D-08

 SCF Done:  E(RwB97XD) =  -255.100873389     A.U. after   11 cycles
            NFock= 11  Conv=0.53D-08     -V/T= 2.0056
 KE= 2.536769909828D+02 PE=-9.134473422757D+02 EE= 2.467798210024D+02
 Leave Link  502 at Wed May 12 11:56:05 2021, MaxMem=  2147483648 cpu:        11.3
 (Enter /opt/cluster/programs/g09_d.01/g09/l701.exe)
 Compute integral first derivatives.
 ... and contract with generalized density number  0.
 R6Disp: Adding Grimme-D2 dispersion energy 1st derivatives to the gradient.
 Leave Link  701 at Wed May 12 11:56:06 2021, MaxMem=  2147483648 cpu:         0.6
 (Enter /opt/cluster/programs/g09_d.01/g09/l702.exe)
 L702 exits ... SP integral derivatives will be done elsewhere.
 Leave Link  702 at Wed May 12 11:56:06 2021, MaxMem=  2147483648 cpu:         0.2
 (Enter /opt/cluster/programs/g09_d.01/g09/l703.exe)
 Compute integral first derivatives, UseDBF=F ICtDFT=           0.
 Integral derivatives from FoFJK, PRISM(SPDF).
 Calling FoFJK, ICntrl=      2127 FMM=F ISym2X=0 I1Cent= 0 IOpClX= 0 NMat=1 NMatS=1 NMatT=0.
 FoFJK:  IHMeth= 1 ICntrl=    2127 DoSepK=T KAlg= 0 I1Cent=   0 FoldK=F
 IRaf=         1 NMat=   1 IRICut=       1 DoRegI=T DoRafI=F ISym2E= 0.
 FoFCou: FMM=F IPFlag=           0 FMFlag=      100000 FMFlg1=         800
         NFxFlg=           0 DoJE=F BraDBF=F KetDBF=F FulRan=T
         wScrn=  0.000000 ICntrl=    2527 IOpCl=  0 I1Cent=           0 NGrid=           0
         NMat0=    1 NMatS0=      1 NMatT0=    0 NMatD0=    1 NMtDS0=    0 NMtDT0=    0
 Symmetry not used in FoFCou.
 Leave Link  703 at Wed May 12 11:56:06 2021, MaxMem=  2147483648 cpu:         3.3
 (Enter /opt/cluster/programs/g09_d.01/g09/l716.exe)
 Dipole        = 1.49125368D-01-8.21292033D-01 6.16525012D-02
 ***** Axes restored to original set *****
 -------------------------------------------------------------------
 Center     Atomic                   Forces (Hartrees/Bohr)
 Number     Number              X              Y              Z
 -------------------------------------------------------------------
      1        6          -0.000463083   -0.000683407   -0.003283887
      2        6           0.000663594    0.002021463    0.003626947
      3        6          -0.000514430   -0.001806243    0.002686625
      4        6           0.000314899    0.000867832   -0.002983193
      5        1          -0.000085749   -0.000016011   -0.000002577
      6        1          -0.000014422    0.000003242    0.000004151
      7        9           0.000046549   -0.000433983   -0.000021803
      8        1          -0.000050197   -0.000011326    0.000013717
      9        1           0.000039650    0.000029038   -0.000028009
     10        1           0.000063189    0.000029394   -0.000011972
 -------------------------------------------------------------------
 Cartesian Forces:  Max     0.003626947 RMS     0.001289102
 Leave Link  716 at Wed May 12 11:56:06 2021, MaxMem=  2147483648 cpu:         0.2
 (Enter /opt/cluster/programs/g09_d.01/g09/l103.exe)

 GradGradGradGradGradGradGradGradGradGradGradGradGradGradGradGradGradGrad
 Berny optimization.
 Using GEDIIS/GDIIS optimizer.
 FormGI is forming the generalized inverse of G from B-inverse, IUseBI=4.
 Internal  Forces:  Max     0.003246806 RMS     0.000825652
 Search for a local minimum.
 Step number   3 out of a maximum of   43
 All quantities printed in internal units (Hartrees-Bohrs-Radians)
 RMS Force = .17164D-03 SwitMx=.10000D-02 MixMth= 2
 Mixed Optimization -- En-DIIS/RFO-DIIS
 Swapping is turned off.
 Update second derivatives using D2CorX and points    1    2    3
[...]
 (Enter /opt/cluster/programs/g09_d.01/g09/l716.exe)
 Dipole        = 1.48840453D-01-8.18948821D-01 6.06503465D-02
 ***** Axes restored to original set *****
 -------------------------------------------------------------------
 Center     Atomic                   Forces (Hartrees/Bohr)
 Number     Number              X              Y              Z
 -------------------------------------------------------------------
      1        6          -0.000316699   -0.000233419   -0.003351438
      2        6           0.000690404    0.000795320    0.003595910
      3        6          -0.000562698   -0.001298337    0.002817886
      4        6           0.000213199    0.000749512   -0.003160206
      5        1          -0.000011276   -0.000015463    0.000016261
      6        1           0.000008056   -0.000003610    0.000018600
      7        9          -0.000026387    0.000005697    0.000002670
      8        1          -0.000005014    0.000003714    0.000021526
      9        1           0.000005006   -0.000001931    0.000014136
     10        1           0.000005410   -0.000001482    0.000024655
 -------------------------------------------------------------------
 Cartesian Forces:  Max     0.003595910 RMS     0.001237831
 Leave Link  716 at Wed May 12 11:56:08 2021, MaxMem=  2147483648 cpu:         0.2
 (Enter /opt/cluster/programs/g09_d.01/g09/l103.exe)

 GradGradGradGradGradGradGradGradGradGradGradGradGradGradGradGradGradGrad
 Berny optimization.
 Using GEDIIS/GDIIS optimizer.
 FormGI is forming the generalized inverse of G from B-inverse, IUseBI=4.
 Internal  Forces:  Max     0.003235476 RMS     0.000805941
 Search for a local minimum.
 Step number   4 out of a maximum of   43
 All quantities printed in internal units (Hartrees-Bohrs-Radians)
 RMS Force = .27766D-04 SwitMx=.10000D-02 MixMth= 2
 Mixed Optimization -- En-DIIS/RFO-DIIS
 Swapping is turned off.
 Update second derivatives using D2CorX and points    1    2    3    4
 DE= -2.24D-06 DEPred=-2.26D-06 R= 9.91D-01
 TightC=F SS=  1.41D+00  RLast= 5.61D-03 DXNew= 5.0454D-01 1.6827D-02
 Trust test= 9.91D-01 RLast= 5.61D-03 DXMaxT set to 3.00D-01
 ITU=  1  1  1  0
     Eigenvalues ---    0.01768   0.02160   0.02818   0.02889   0.02923
     Eigenvalues ---    0.03002   0.13722   0.15992   0.16000   0.16002
     Eigenvalues ---    0.16138   0.17870   0.22166   0.25709   0.34931
     Eigenvalues ---    0.35387   0.35434   0.35515   0.35618   0.35865
     Eigenvalues ---    0.39129   0.56954   0.656501000.000001000.00000
     Eigenvalues --- 1000.000001000.000001000.000001000.000001000.00000
     Eigenvalues --- 1000.000001000.000001000.00000
 En-DIIS/RFO-DIIS IScMMF=        0 using points:     4    3    2
 RFO step:  Lambda=-7.36669457D-07.
 NNeg= 0 NP= 3 Switch=  2.50D-03 Rises=F DC=  1.49D-05 SmlDif=  1.00D-05
 RMS Error=  0.7989319521D-04 NUsed= 3 EDIIS=F
 DidBck=F Rises=F RFO-DIIS coefs:    0.98297    0.04009   -0.02306
 Iteration  1 RMS(Cart)=  0.00045830 RMS(Int)=  0.00000044
 Iteration  2 RMS(Cart)=  0.00000021 RMS(Int)=  0.00000040
 Iteration  1 RMS(Cart)=  0.00000030 RMS(Int)=  0.00000021
 ITry= 1 IFail=0 DXMaxC= 1.15D-03 DCOld= 1.00D+10 DXMaxT= 3.00D-01 DXLimC= 3.00D+00 Rises=F
 Variable       Old X    -DE/DX   Delta X   Delta X   Delta X     New X
                                 (Linear)    (Quad)   (Total)
    R1        2.51641   0.00003   0.00001   0.00005   0.00006   2.51648
    R2        2.04468   0.00000   0.00000   0.00001   0.00001   2.04468
    R3        2.04651   0.00001   0.00000   0.00002   0.00002   2.04653
    R4        2.75965  -0.00008   0.00006  -0.00020  -0.00014   2.75951
    R5        2.66404   0.00000  -0.00008  -0.00002  -0.00009   2.66395
    R6        2.52998   0.00002   0.00002   0.00003   0.00005   2.53003
    R7        2.05426  -0.00001   0.00000  -0.00002  -0.00003   2.05423
    R8        2.04958   0.00000   0.00000   0.00001   0.00001   2.04959
    R9        2.04856   0.00000   0.00000   0.00001   0.00001   2.04857
    A1        2.11836   0.00004   0.00000   0.00027   0.00027   2.11863
    A2        2.09660  -0.00003   0.00001  -0.00020  -0.00019   2.09640
    A3        2.06819  -0.00001  -0.00001  -0.00007  -0.00007   2.06812
    A4        2.24229  -0.00004  -0.00002  -0.00036  -0.00038   2.24190
    A5        2.05668   0.00009   0.00005   0.00000   0.00005   2.05674
    A6        1.98199   0.00005  -0.00003   0.00033   0.00030   1.98229
    A7        2.17390   0.00006  -0.00001   0.00013   0.00012   2.17403
    A8        2.00205  -0.00005  -0.00001  -0.00009  -0.00010   2.00195
    A9        2.10522   0.00008   0.00002  -0.00006  -0.00004   2.10519
   A10        2.12438   0.00000   0.00000   0.00000   0.00000   2.12438
   A11        2.10985   0.00001   0.00001   0.00008   0.00009   2.10994
   A12        2.04885  -0.00001  -0.00001  -0.00006  -0.00007   2.04877
    D1        3.09131   0.00081   0.00001  -0.00056  -0.00055   3.09075
    D2        0.02651  -0.00083   0.00001  -0.00009  -0.00009   0.02642
    D3       -0.05920   0.00083   0.00007  -0.00008  -0.00002  -0.05922
    D4       -3.12400  -0.00081   0.00006   0.00039   0.00045  -3.12355
    D5       -2.79234  -0.00324   0.00000   0.00000   0.00000  -2.79234
    D6        0.28134  -0.00167   0.00005  -0.00026  -0.00022   0.28112
    D7        0.27518  -0.00165   0.00001  -0.00047  -0.00046   0.27472
    D8       -2.93433  -0.00009   0.00005  -0.00073  -0.00067  -2.93501
    D9       -0.05800   0.00085   0.00008   0.00055   0.00063  -0.05737
   D10        3.09990   0.00080  -0.00002  -0.00084  -0.00086   3.09905
   D11       -3.12789  -0.00080   0.00003   0.00083   0.00086  -3.12703
   D12        0.03001  -0.00085  -0.00007  -0.00056  -0.00063   0.02939
         Item               Value     Threshold  Converged?
 Maximum Force            0.000076     0.000450     YES
 RMS     Force            0.000028     0.000300     YES
 Maximum Displacement     0.001146     0.001800     YES
 RMS     Displacement     0.000458     0.001200     YES
 Predicted change in Energy=-9.961815D-08
 Optimization completed.
    -- Stationary point found.
                           ----------------------------
                           !   Optimized Parameters   !
                           ! (Angstroms and Degrees)  !
 --------------------------                            --------------------------
 ! Name  Definition              Value          Derivative Info.                !
 --------------------------------------------------------------------------------
 ! R1    R(1,2)                  1.3316         -DE/DX =    0.0                 !
 ! R2    R(1,5)                  1.082          -DE/DX =    0.0                 !
 ! R3    R(1,6)                  1.083          -DE/DX =    0.0                 !
 ! R4    R(2,3)                  1.4603         -DE/DX =   -0.0001              !
 ! R5    R(2,7)                  1.4097         -DE/DX =    0.0                 !
 ! R6    R(3,4)                  1.3388         -DE/DX =    0.0                 !
 ! R7    R(3,8)                  1.0871         -DE/DX =    0.0                 !
 ! R8    R(4,9)                  1.0846         -DE/DX =    0.0                 !
 ! R9    R(4,10)                 1.084          -DE/DX =    0.0                 !
 ! A1    A(2,1,5)              121.3731         -DE/DX =    0.0                 !
 ! A2    A(2,1,6)              120.1262         -DE/DX =    0.0                 !
 ! A3    A(5,1,6)              118.4988         -DE/DX =    0.0                 !
 ! A4    A(1,2,3)              128.4735         -DE/DX =    0.0                 !
 ! A5    A(1,2,7)              117.8393         -DE/DX =    0.0001              !
 ! A6    A(3,2,7)              113.5595         -DE/DX =    0.0                 !
 ! A7    A(2,3,4)              124.5556         -DE/DX =    0.0001              !
 ! A8    A(2,3,8)              114.7092         -DE/DX =    0.0                 !
 ! A9    A(4,3,8)              120.6204         -DE/DX =    0.0001              !
 ! A10   A(3,4,9)              121.718          -DE/DX =    0.0                 !
 ! A11   A(3,4,10)             120.8854         -DE/DX =    0.0                 !
 ! A12   A(9,4,10)             117.3903         -DE/DX =    0.0                 !
 ! D1    D(5,1,2,3)            177.1189         -DE/DX =    0.0008              !
 ! D2    D(5,1,2,7)              1.5189         -DE/DX =   -0.0008              !
 ! D3    D(6,1,2,3)             -3.3919         -DE/DX =    0.0008              !
 ! D4    D(6,1,2,7)           -178.9918         -DE/DX =   -0.0008              !
 ! D5    D(1,2,3,4)           -159.9892         -DE/DX =   -0.0032              !
 ! D6    D(1,2,3,8)             16.1194         -DE/DX =   -0.0017              !
 ! D7    D(7,2,3,4)             15.7665         -DE/DX =   -0.0016              !
 ! D8    D(7,2,3,8)           -168.1249         -DE/DX =   -0.0001              !
 ! D9    D(2,3,4,9)             -3.323          -DE/DX =    0.0008              !
 ! D10   D(2,3,4,10)           177.6113         -DE/DX =    0.0008              !
 ! D11   D(8,3,4,9)           -179.2147         -DE/DX =   -0.0008              !
 ! D12   D(8,3,4,10)             1.7196         -DE/DX =   -0.0008              !
 --------------------------------------------------------------------------------
 Lowest energy point so far.  Saving SCF results.
 GradGradGradGradGradGradGradGradGradGradGradGradGradGradGradGradGradGrad

 Largest change from initial coordinates is atom    6       0.011 Angstoms.
 Leave Link  103 at Wed May 12 11:56:08 2021, MaxMem=  2147483648 cpu:         0.1
 (Enter /opt/cluster/programs/g09_d.01/g09/l202.exe)
                          Input orientation:                          
 ---------------------------------------------------------------------
 Center     Atomic      Atomic             Coordinates (Angstroms)
 Number     Number       Type             X           Y           Z
 ---------------------------------------------------------------------
      1          6           0       -1.700985   -0.678737    0.096921
      2          6           0       -0.521804   -0.078316   -0.052278
      3          6           0        0.804550   -0.685411   -0.121725
      4          6           0        1.951103   -0.033391    0.107828
      5          1           0       -2.616858   -0.108666    0.180051
      6          1           0       -1.760362   -1.759593    0.129232
      7          9           0       -0.497793    1.331161   -0.066211
      8          1           0        0.805124   -1.755022   -0.315758
      9          1           0        1.970056    1.030922    0.315704
     10          1           0        2.902237   -0.552603    0.077390
 ---------------------------------------------------------------------
                    Distance matrix (angstroms):
                    1          2          3          4          5
     1  C    0.000000
     2  C    1.331629   0.000000
     3  C    2.515066   1.460344   0.000000
     4  C    3.708684   2.478491   1.338808   0.000000
     5  H    1.081996   2.108116   3.482778   4.569152   0.000000
     6  H    1.082968   2.096107   2.792064   4.093311   1.860572
     7  F    2.348185   1.409750   2.401197   2.808805   2.573749
     8  H    2.758491   2.154414   1.087067   2.111091   3.829657
     9  H    4.055533   2.752306   2.120271   1.084590   4.728303
    10  H    4.604991   3.459164   2.111297   1.084050   5.537873
                    6          7          8          9         10
     6  H    0.000000
     7  F    3.344404   0.000000
     8  H    2.603796   3.359225   0.000000
     9  H    4.662378   2.515211   3.085012   0.000000
    10  H    4.816569   3.889652   2.449135   1.852918   0.000000
 Stoichiometry    C4H5F
 Framework group  C1[X(C4H5F)]
 Deg. of freedom    24
 Full point group                 C1      NOp   1
 RotChk:  IX=0 Diff= 5.95D-16
 Largest Abelian subgroup         C1      NOp   1
 Largest concise Abelian subgroup C1      NOp   1
                         Standard orientation:                         
 ---------------------------------------------------------------------
 Center     Atomic      Atomic             Coordinates (Angstroms)
 Number     Number       Type             X           Y           Z
 ---------------------------------------------------------------------
      1          6           0       -1.699834   -0.682415    0.096283
      2          6           0       -0.522108   -0.078819   -0.051591
      3          6           0        0.805586   -0.682656   -0.123781
      4          6           0        1.950780   -0.028785    0.107284
      5          1           0       -2.616956   -0.114712    0.181805
      6          1           0       -1.756730   -1.763505    0.125057
      7          9           0       -0.501316    1.330748   -0.060883
      8          1           0        0.808486   -1.751616   -0.321345
      9          1           0        1.967426    1.034877    0.318663
     10          1           0        2.903077   -0.545723    0.074602
 ---------------------------------------------------------------------
 Rotational constants (GHZ):      9.5505268      4.2075800      2.9475571
 Leave Link  202 at Wed May 12 11:56:08 2021, MaxMem=  2147483648 cpu:         0.0
 (Enter /opt/cluster/programs/g09_d.01/g09/l601.exe)
 Copying SCF densities to generalized density rwf, IOpCl= 0 IROHF=0.

 **********************************************************************

            Population analysis using the SCF density.

 **********************************************************************

 Orbital symmetries:
       Occupied  (A) (A) (A) (A) (A) (A) (A) (A) (A) (A) (A) (A)
                 (A) (A) (A) (A) (A) (A) (A)
       Virtual   (A) (A) (A) (A) (A) (A) (A) (A) (A) (A) (A) (A)
                 (A) (A) (A) (A) (A) (A) (A) (A) (A) (A) (A) (A)
                 (A) (A) (A) (A) (A) (A) (A) (A) (A) (A) (A) (A)
                 (A) (A) (A) (A) (A) (A) (A) (A) (A) (A) (A) (A)
                 (A) (A) (A) (A) (A) (A) (A) (A)
 The electronic state is 1-A.
 Alpha  occ. eigenvalues --  -24.83264 -10.40345 -10.32906 -10.31399 -10.31152
 Alpha  occ. eigenvalues --   -1.31339  -0.92825  -0.86508  -0.73184  -0.66577
 Alpha  occ. eigenvalues --   -0.60331  -0.58684  -0.54623  -0.53298  -0.50397
 Alpha  occ. eigenvalues --   -0.48208  -0.45748  -0.41060  -0.32843
 Alpha virt. eigenvalues --    0.01826   0.06792   0.08069   0.09819   0.10379
 Alpha virt. eigenvalues --    0.11441   0.12120   0.12886   0.14301   0.15169
 Alpha virt. eigenvalues --    0.16209   0.16567   0.18854   0.19816   0.20146
 Alpha virt. eigenvalues --    0.22070   0.22289   0.24595   0.26154   0.28782
 Alpha virt. eigenvalues --    0.30206   0.30462   0.32588   0.38924   0.40916
 Alpha virt. eigenvalues --    0.42212   0.43670   0.45380   0.49307   0.50090
 Alpha virt. eigenvalues --    0.53504   0.69463   0.74154   0.77035   0.78653
 Alpha virt. eigenvalues --    0.82310   0.83110   0.84617   0.88925   0.92620
 Alpha virt. eigenvalues --    0.99950   1.03179   1.03865   1.10764   1.14197
 Alpha virt. eigenvalues --    1.15765   1.19857   1.25488   1.29255   1.34336
 Alpha virt. eigenvalues --    1.42388   1.46968   1.66198   1.82428   1.86072
 Alpha virt. eigenvalues --    2.39434
          Condensed to atoms (all electrons):
               1          2          3          4          5          6
     1  C    6.480160  -0.350632  -0.097871  -0.167519   0.388532   0.338118
     2  C   -0.350632   5.998728  -0.334578   0.257768  -0.054485  -0.016766
     3  C   -0.097871  -0.334578   6.299364   0.109082   0.019760   0.015274
     4  C   -0.167519   0.257768   0.109082   5.462507  -0.000792   0.000769
     5  H    0.388532  -0.054485   0.019760  -0.000792   0.448318  -0.019458
     6  H    0.338118  -0.016766   0.015274   0.000769  -0.019458   0.469638
     7  F   -0.171025   0.298973  -0.145363  -0.001285  -0.002556   0.004317
     8  H   -0.022757   0.025523   0.290316   0.011541   0.000095   0.000743
     9  H   -0.008784   0.009263  -0.069642   0.414410   0.000004  -0.000003
    10  H    0.003626   0.019706  -0.038117   0.362867   0.000001  -0.000002
               7          8          9         10
     1  C   -0.171025  -0.022757  -0.008784   0.003626
     2  C    0.298973   0.025523   0.009263   0.019706
     3  C   -0.145363   0.290316  -0.069642  -0.038117
     4  C   -0.001285   0.011541   0.414410   0.362867
     5  H   -0.002556   0.000095   0.000004   0.000001
     6  H    0.004317   0.000743  -0.000003  -0.000002
     7  F    9.335170   0.003608   0.000158   0.000478
     8  H    0.003608   0.475448   0.002499  -0.003383
     9  H    0.000158   0.002499   0.451750  -0.023275
    10  H    0.000478  -0.003383  -0.023275   0.480641
 Mulliken charges:
               1
     1  C   -0.391847
     2  C    0.146500
     3  C   -0.048226
     4  C   -0.449348
     5  H    0.220582
     6  H    0.207370
     7  F   -0.322475
     8  H    0.216366
     9  H    0.223622
    10  H    0.197457
 Sum of Mulliken charges =   0.00000
 Mulliken charges with hydrogens summed into heavy atoms:
               1
     1  C    0.036104
     2  C    0.146500
     3  C    0.168139
     4  C   -0.028269
     7  F   -0.322475
 Electronic spatial extent (au):  <R**2>=            423.6919
 Charge=              0.0000 electrons
 Dipole moment (field-independent basis, Debye):
    X=              0.3783    Y=             -2.0816    Z=              0.1542  Tot=              2.1213
 Quadrupole moment (field-independent basis, Debye-Ang):
   XX=            -24.9599   YY=            -29.5215   ZZ=            -32.6596
   XY=              1.2813   XZ=             -0.0979   YZ=              0.7436
 Traceless Quadrupole moment (field-independent basis, Debye-Ang):
   XX=              4.0871   YY=             -0.4745   ZZ=             -3.6126
   XY=              1.2813   XZ=             -0.0979   YZ=              0.7436
 Octapole moment (field-independent basis, Debye-Ang**2):
  XXX=             -2.8403  YYY=              1.3602  ZZZ=             -0.5639  XYY=              0.6305
  XXY=              1.8998  XXZ=              1.8915  XZZ=             -1.6313  YZZ=              4.9051
  YYZ=             -0.2019  XYZ=              1.1252
 Hexadecapole moment (field-independent basis, Debye-Ang**3):
 XXXX=           -329.4900 YYYY=           -136.9032 ZZZZ=            -39.6658 XXXY=             -8.6955
 XXXZ=             -0.7882 YYYX=              1.7318 YYYZ=              1.5420 ZZZX=              0.4787
 ZZZY=              0.0119 XXYY=            -80.9936 XXZZ=            -77.5864 YYZZ=            -31.9791
 XXYZ=              0.9139 YYXZ=             -0.6034 ZZXY=             -2.1419
 N-N= 1.578859938075D+02 E-N=-9.134359321540D+02  KE= 2.536755989075D+02
 No NMR shielding tensors so no spin-rotation constants.
 Leave Link  601 at Wed May 12 11:56:09 2021, MaxMem=  2147483648 cpu:         0.6
 (Enter /opt/cluster/programs/g09_d.01/g09/l9999.exe)
 1\1\GINC-NODE05\FOpt\RwB97XD\6-31+G\C4H5F1\BOITTIER\12-May-2021\0\\#p 
 wB97XD/6-31+G Opt=ModRedun\\B.pdb\\0,1\C,-1.7009850617,-0.6787368269,0
 .0969212927\C,-0.5218036166,-0.0783158412,-0.0522778999\C,0.8045504787
 ,-0.6854114334,-0.1217250503\C,1.9511025642,-0.0333912106,0.1078279225
 \H,-2.616858276,-0.1086658576,0.1800514302\H,-1.7603618163,-1.75959310
 99,0.1292319807\F,-0.4977933885,1.3311608005,-0.066211336\H,0.80512363
 41,-1.755021849,-0.3157576207\H,1.9700563841,1.0309221548,0.3157039962
 \H,2.902237098,-0.5526028266,0.0773902847\\Version=ES64L-G09RevD.01\St
 ate=1-A\HF=-255.1008756\RMSD=9.214e-09\RMSF=1.238e-03\Dipole=0.1469391
 ,-0.819081,0.0634371\Quadrupole=3.0430555,-0.3534655,-2.68959,0.944336
 7,-0.0714181,0.5458295\PG=C01 [X(C4H5F1)]\\@


 I WANT IT ALL - RICH, THIN, AND CHOCOLATE.
 Job cpu time:       0 days  0 hours  1 minutes 18.3 seconds.
 File lengths (MBytes):  RWF=      5 Int=      0 D2E=      0 Chk=      2 Scr=      1
 Normal termination of Gaussian 09 at Wed May 12 11:56:09 2021.
