N.pdb                                                                   
FOpt      RwB97XD                                                     6-31+G              
Number of atoms                            I               13
Info1-9                                    I   N=           9
          24          24           0           0           0         100
           2          18        -802
Charge                                     I                0
Multiplicity                               I                1
Number of electrons                        I               64
Number of alpha electrons                  I               32
Number of beta electrons                   I               32
Number of basis functions                  I              114
Number of independent functions            I              114
Number of point charges in /Mol/           I                0
Number of translation vectors              I                0
Atomic numbers                             I   N=          13
           6           6           1           1           1           6
           8           6           1           1           9           9
           9
Nuclear charges                            R   N=          13
  6.00000000E+00  6.00000000E+00  1.00000000E+00  1.00000000E+00  1.00000000E+00
  6.00000000E+00  8.00000000E+00  6.00000000E+00  1.00000000E+00  1.00000000E+00
  9.00000000E+00  9.00000000E+00  9.00000000E+00
Current cartesian coordinates              R   N=          39
 -4.35498349E+00 -1.90444754E+00 -1.79951179E-01 -2.77569043E+00  3.86494046E-01
  3.72801274E-01 -3.25213919E+00 -3.29903698E+00 -1.24144058E+00 -6.02610048E+00
 -1.36714374E+00 -1.25887709E+00 -4.94352350E+00 -2.80171035E+00  1.59381380E+00
 -2.73776136E-01 -4.76003946E-02  1.76531401E+00 -3.43438300E+00  2.54872808E+00
 -1.85728072E-01  1.97470695E+00 -6.41012864E-02  2.38236592E-02 -2.88430804E-01
 -1.85319592E+00  2.76548936E+00  3.50324563E-03  1.47895064E+00  3.12807867E+00
  1.74525656E+00 -1.91662629E+00 -1.84367551E+00  4.18830951E+00 -5.99381138E-01
  1.34258416E+00  2.35090209E+00  2.20825663E+00 -1.20926044E+00
Force Field                                I                0
Int Atom Types                             I   N=          13
           0           0           0           0           0           0
           0           0           0           0           0           0
           0
MM charges                                 R   N=          13
  0.00000000E+00  0.00000000E+00  0.00000000E+00  0.00000000E+00  0.00000000E+00
  0.00000000E+00  0.00000000E+00  0.00000000E+00  0.00000000E+00  0.00000000E+00
  0.00000000E+00  0.00000000E+00  0.00000000E+00
Integer atomic weights                     I   N=          13
          12          12           1           1           1          12
          16          12           1           1          19          19
          19
Real atomic weights                        R   N=          13
  1.20000000E+01  1.20000000E+01  1.00782504E+00  1.00782504E+00  1.00782504E+00
  1.20000000E+01  1.59949146E+01  1.20000000E+01  1.00782504E+00  1.00782504E+00
  1.89984032E+01  1.89984032E+01  1.89984032E+01
Atom fragment info                         I   N=          13
           0           0           0           0           0           0
           0           0           0           0           0           0
           0
Atom residue num                           I   N=          13
           0           0           0           0           0           0
           0           0           0           0           0           0
           0
Nuclear spins                              I   N=          13
           0           0           1           1           1           0
           0           0           1           1           1           1
           1
Nuclear ZEff                               R   N=          13
 -3.60000000E+00 -3.60000000E+00 -1.00000000E+00 -1.00000000E+00 -1.00000000E+00
 -3.60000000E+00 -5.60000000E+00 -3.60000000E+00 -1.00000000E+00 -1.00000000E+00
 -6.75000000E+00 -6.75000000E+00 -6.75000000E+00
Nuclear ZNuc                               R   N=          13
  6.00000000E+00  6.00000000E+00  1.00000000E+00  1.00000000E+00  1.00000000E+00
  6.00000000E+00  8.00000000E+00  6.00000000E+00  1.00000000E+00  1.00000000E+00
  9.00000000E+00  9.00000000E+00  9.00000000E+00
Nuclear QMom                               R   N=          13
  0.00000000E+00  0.00000000E+00  0.00000000E+00  0.00000000E+00  0.00000000E+00
  0.00000000E+00  0.00000000E+00  0.00000000E+00  0.00000000E+00  0.00000000E+00
  0.00000000E+00  0.00000000E+00  0.00000000E+00
Nuclear GFac                               R   N=          13
  0.00000000E+00  0.00000000E+00  2.79284600E+00  2.79284600E+00  2.79284600E+00
  0.00000000E+00  0.00000000E+00  0.00000000E+00  2.79284600E+00  2.79284600E+00
  2.62886700E+00  2.62886700E+00  2.62886700E+00
MicOpt                                     I   N=          13
          -1          -1          -1          -1          -1          -1
          -1          -1          -1          -1          -1          -1
          -1
Number of contracted shells                I               42
Number of primitive shells                 I              108
Pure/Cartesian d shells                    I                1
Pure/Cartesian f shells                    I                0
Highest angular momentum                   I                1
Largest degree of contraction              I                6
Shell types                                I   N=          42
           0          -1          -1          -1           0          -1
          -1          -1           0           0           0           0
           0           0           0          -1          -1          -1
           0          -1          -1          -1           0          -1
          -1          -1           0           0           0           0
           0          -1          -1          -1           0          -1
          -1          -1           0          -1          -1          -1
Number of primitives per shell             I   N=          42
           6           3           1           1           6           3
           1           1           3           1           3           1
           3           1           6           3           1           1
           6           3           1           1           6           3
           1           1           3           1           3           1
           6           3           1           1           6           3
           1           1           6           3           1           1
Shell to atom map                          I   N=          42
           1           1           1           1           2           2
           2           2           3           3           4           4
           5           5           6           6           6           6
           7           7           7           7           8           8
           8           8           9           9          10          10
          11          11          11          11          12          12
          12          12          13          13          13          13
Primitive exponents                        R   N=         108
  3.04752488E+03  4.57369518E+02  1.03948685E+02  2.92101553E+01  9.28666296E+00
  3.16392696E+00  7.86827235E+00  1.88128854E+00  5.44249258E-01  1.68714478E-01
  4.38000000E-02  3.04752488E+03  4.57369518E+02  1.03948685E+02  2.92101553E+01
  9.28666296E+00  3.16392696E+00  7.86827235E+00  1.88128854E+00  5.44249258E-01
  1.68714478E-01  4.38000000E-02  1.87311370E+01  2.82539436E+00  6.40121692E-01
  1.61277759E-01  1.87311370E+01  2.82539436E+00  6.40121692E-01  1.61277759E-01
  1.87311370E+01  2.82539436E+00  6.40121692E-01  1.61277759E-01  3.04752488E+03
  4.57369518E+02  1.03948685E+02  2.92101553E+01  9.28666296E+00  3.16392696E+00
  7.86827235E+00  1.88128854E+00  5.44249258E-01  1.68714478E-01  4.38000000E-02
  5.48467166E+03  8.25234946E+02  1.88046958E+02  5.29645000E+01  1.68975704E+01
  5.79963534E+00  1.55396162E+01  3.59993359E+00  1.01376175E+00  2.70005823E-01
  8.45000000E-02  3.04752488E+03  4.57369518E+02  1.03948685E+02  2.92101553E+01
  9.28666296E+00  3.16392696E+00  7.86827235E+00  1.88128854E+00  5.44249258E-01
  1.68714478E-01  4.38000000E-02  1.87311370E+01  2.82539436E+00  6.40121692E-01
  1.61277759E-01  1.87311370E+01  2.82539436E+00  6.40121692E-01  1.61277759E-01
  7.00171309E+03  1.05136609E+03  2.39285690E+02  6.73974453E+01  2.15199573E+01
  7.40310130E+00  2.08479528E+01  4.80830834E+00  1.34406986E+00  3.58151393E-01
  1.07600000E-01  7.00171309E+03  1.05136609E+03  2.39285690E+02  6.73974453E+01
  2.15199573E+01  7.40310130E+00  2.08479528E+01  4.80830834E+00  1.34406986E+00
  3.58151393E-01  1.07600000E-01  7.00171309E+03  1.05136609E+03  2.39285690E+02
  6.73974453E+01  2.15199573E+01  7.40310130E+00  2.08479528E+01  4.80830834E+00
  1.34406986E+00  3.58151393E-01  1.07600000E-01
Contraction coefficients                   R   N=         108
  1.83473713E-03  1.40373228E-02  6.88426223E-02  2.32184443E-01  4.67941348E-01
  3.62311985E-01 -1.19332420E-01 -1.60854152E-01  1.14345644E+00  1.00000000E+00
  1.00000000E+00  1.83473713E-03  1.40373228E-02  6.88426223E-02  2.32184443E-01
  4.67941348E-01  3.62311985E-01 -1.19332420E-01 -1.60854152E-01  1.14345644E+00
  1.00000000E+00  1.00000000E+00  3.34946043E-02  2.34726953E-01  8.13757326E-01
  1.00000000E+00  3.34946043E-02  2.34726953E-01  8.13757326E-01  1.00000000E+00
  3.34946043E-02  2.34726953E-01  8.13757326E-01  1.00000000E+00  1.83473713E-03
  1.40373228E-02  6.88426223E-02  2.32184443E-01  4.67941348E-01  3.62311985E-01
 -1.19332420E-01 -1.60854152E-01  1.14345644E+00  1.00000000E+00  1.00000000E+00
  1.83107443E-03  1.39501722E-02  6.84450781E-02  2.32714336E-01  4.70192898E-01
  3.58520853E-01 -1.10777550E-01 -1.48026263E-01  1.13076702E+00  1.00000000E+00
  1.00000000E+00  1.83473713E-03  1.40373228E-02  6.88426223E-02  2.32184443E-01
  4.67941348E-01  3.62311985E-01 -1.19332420E-01 -1.60854152E-01  1.14345644E+00
  1.00000000E+00  1.00000000E+00  3.34946043E-02  2.34726953E-01  8.13757326E-01
  1.00000000E+00  3.34946043E-02  2.34726953E-01  8.13757326E-01  1.00000000E+00
  1.81961690E-03  1.39160796E-02  6.84053245E-02  2.33185760E-01  4.71267439E-01
  3.56618546E-01 -1.08506975E-01 -1.46451658E-01  1.12868858E+00  1.00000000E+00
  1.00000000E+00  1.81961690E-03  1.39160796E-02  6.84053245E-02  2.33185760E-01
  4.71267439E-01  3.56618546E-01 -1.08506975E-01 -1.46451658E-01  1.12868858E+00
  1.00000000E+00  1.00000000E+00  1.81961690E-03  1.39160796E-02  6.84053245E-02
  2.33185760E-01  4.71267439E-01  3.56618546E-01 -1.08506975E-01 -1.46451658E-01
  1.12868858E+00  1.00000000E+00  1.00000000E+00
P(S=P) Contraction coefficients            R   N=         108
  0.00000000E+00  0.00000000E+00  0.00000000E+00  0.00000000E+00  0.00000000E+00
  0.00000000E+00  6.89990666E-02  3.16423961E-01  7.44308291E-01  1.00000000E+00
  1.00000000E+00  0.00000000E+00  0.00000000E+00  0.00000000E+00  0.00000000E+00
  0.00000000E+00  0.00000000E+00  6.89990666E-02  3.16423961E-01  7.44308291E-01
  1.00000000E+00  1.00000000E+00  0.00000000E+00  0.00000000E+00  0.00000000E+00
  0.00000000E+00  0.00000000E+00  0.00000000E+00  0.00000000E+00  0.00000000E+00
  0.00000000E+00  0.00000000E+00  0.00000000E+00  0.00000000E+00  0.00000000E+00
  0.00000000E+00  0.00000000E+00  0.00000000E+00  0.00000000E+00  0.00000000E+00
  6.89990666E-02  3.16423961E-01  7.44308291E-01  1.00000000E+00  1.00000000E+00
  0.00000000E+00  0.00000000E+00  0.00000000E+00  0.00000000E+00  0.00000000E+00
  0.00000000E+00  7.08742682E-02  3.39752839E-01  7.27158577E-01  1.00000000E+00
  1.00000000E+00  0.00000000E+00  0.00000000E+00  0.00000000E+00  0.00000000E+00
  0.00000000E+00  0.00000000E+00  6.89990666E-02  3.16423961E-01  7.44308291E-01
  1.00000000E+00  1.00000000E+00  0.00000000E+00  0.00000000E+00  0.00000000E+00
  0.00000000E+00  0.00000000E+00  0.00000000E+00  0.00000000E+00  0.00000000E+00
  0.00000000E+00  0.00000000E+00  0.00000000E+00  0.00000000E+00  0.00000000E+00
  0.00000000E+00  7.16287242E-02  3.45912103E-01  7.22469956E-01  1.00000000E+00
  1.00000000E+00  0.00000000E+00  0.00000000E+00  0.00000000E+00  0.00000000E+00
  0.00000000E+00  0.00000000E+00  7.16287242E-02  3.45912103E-01  7.22469956E-01
  1.00000000E+00  1.00000000E+00  0.00000000E+00  0.00000000E+00  0.00000000E+00
  0.00000000E+00  0.00000000E+00  0.00000000E+00  7.16287242E-02  3.45912103E-01
  7.22469956E-01  1.00000000E+00  1.00000000E+00
Coordinates of each shell                  R   N=         126
 -4.35498349E+00 -1.90444754E+00 -1.79951179E-01 -4.35498349E+00 -1.90444754E+00
 -1.79951179E-01 -4.35498349E+00 -1.90444754E+00 -1.79951179E-01 -4.35498349E+00
 -1.90444754E+00 -1.79951179E-01 -2.77569043E+00  3.86494046E-01  3.72801274E-01
 -2.77569043E+00  3.86494046E-01  3.72801274E-01 -2.77569043E+00  3.86494046E-01
  3.72801274E-01 -2.77569043E+00  3.86494046E-01  3.72801274E-01 -3.25213919E+00
 -3.29903698E+00 -1.24144058E+00 -3.25213919E+00 -3.29903698E+00 -1.24144058E+00
 -6.02610048E+00 -1.36714374E+00 -1.25887709E+00 -6.02610048E+00 -1.36714374E+00
 -1.25887709E+00 -4.94352350E+00 -2.80171035E+00  1.59381380E+00 -4.94352350E+00
 -2.80171035E+00  1.59381380E+00 -2.73776136E-01 -4.76003946E-02  1.76531401E+00
 -2.73776136E-01 -4.76003946E-02  1.76531401E+00 -2.73776136E-01 -4.76003946E-02
  1.76531401E+00 -2.73776136E-01 -4.76003946E-02  1.76531401E+00 -3.43438300E+00
  2.54872808E+00 -1.85728072E-01 -3.43438300E+00  2.54872808E+00 -1.85728072E-01
 -3.43438300E+00  2.54872808E+00 -1.85728072E-01 -3.43438300E+00  2.54872808E+00
 -1.85728072E-01  1.97470695E+00 -6.41012864E-02  2.38236592E-02  1.97470695E+00
 -6.41012864E-02  2.38236592E-02  1.97470695E+00 -6.41012864E-02  2.38236592E-02
  1.97470695E+00 -6.41012864E-02  2.38236592E-02 -2.88430804E-01 -1.85319592E+00
  2.76548936E+00 -2.88430804E-01 -1.85319592E+00  2.76548936E+00  3.50324563E-03
  1.47895064E+00  3.12807867E+00  3.50324563E-03  1.47895064E+00  3.12807867E+00
  1.74525656E+00 -1.91662629E+00 -1.84367551E+00  1.74525656E+00 -1.91662629E+00
 -1.84367551E+00  1.74525656E+00 -1.91662629E+00 -1.84367551E+00  1.74525656E+00
 -1.91662629E+00 -1.84367551E+00  4.18830951E+00 -5.99381138E-01  1.34258416E+00
  4.18830951E+00 -5.99381138E-01  1.34258416E+00  4.18830951E+00 -5.99381138E-01
  1.34258416E+00  4.18830951E+00 -5.99381138E-01  1.34258416E+00  2.35090209E+00
  2.20825663E+00 -1.20926044E+00  2.35090209E+00  2.20825663E+00 -1.20926044E+00
  2.35090209E+00  2.20825663E+00 -1.20926044E+00  2.35090209E+00  2.20825663E+00
 -1.20926044E+00
Constraint Structure                       R   N=          39
 -4.35498349E+00 -1.90444754E+00 -1.79951179E-01 -2.77569043E+00  3.86494046E-01
  3.72801274E-01 -3.25213919E+00 -3.29903698E+00 -1.24144058E+00 -6.02610048E+00
 -1.36714374E+00 -1.25887709E+00 -4.94352350E+00 -2.80171035E+00  1.59381380E+00
 -2.73776136E-01 -4.76003946E-02  1.76531401E+00 -3.43438300E+00  2.54872808E+00
 -1.85728072E-01  1.97470695E+00 -6.41012864E-02  2.38236592E-02 -2.88430804E-01
 -1.85319592E+00  2.76548936E+00  3.50324563E-03  1.47895064E+00  3.12807867E+00
  1.74525656E+00 -1.91662629E+00 -1.84367551E+00  4.18830951E+00 -5.99381138E-01
  1.34258416E+00  2.35090209E+00  2.20825663E+00 -1.20926044E+00
Num ILSW                                   I              100
ILSW                                       I   N=         100
           0           1           0           0           2           0
           0           0           0           0        4639          -1
           0           0           0           0           2           0
           0           0           0           0           1           0
           1           0           0           0           0           0
           0           0      100000           0          -1           0
           0           0           0           0           0           0
           0           0           0           1           0           0
           0           0           1           0           0           0
           0           0         121          41           0           0
           0           0          58           0           0           0
           0           0           0          13           0           0
           0           0           0           0           0           0
           0           0           0           0           0           0
           0           0           0           0           0           0
           0           0           0           0           0           0
           0           0           0           0
Num RLSW                                   I               41
RLSW                                       R   N=          41
  1.00000000E+00  1.00000000E+00  1.00000000E+00  1.00000000E+00  1.00000000E+00
  0.00000000E+00  2.00000000E-01  2.22036000E-01  0.00000000E+00  7.77964000E-01
  0.00000000E+00  2.00000000E-01  0.00000000E+00  0.00000000E+00  1.00000000E+00
  0.00000000E+00  0.00000000E+00  1.00000000E+00  0.00000000E+00  0.00000000E+00
  0.00000000E+00  0.00000000E+00  1.00000000E+00  0.00000000E+00  0.00000000E+00
  0.00000000E+00  0.00000000E+00  1.00000000E+00  0.00000000E+00  0.00000000E+00
  0.00000000E+00  0.00000000E+00  1.00000000E+00  0.00000000E+00  0.00000000E+00
  0.00000000E+00  0.00000000E+00  0.00000000E+00  1.00000000E+00  1.00000000E+00
  0.00000000E+00
MxBond                                     I                4
NBond                                      I   N=          13
           4           3           1           1           1           4
           1           4           1           1           1           1
           1
IBond                                      I   N=          52
           2           3           4           5           1           6
           7           0           1           0           0           0
           1           0           0           0           1           0
           0           0           2           8           9          10
           2           0           0           0           6          11
          12          13           6           0           0           0
           6           0           0           0           8           0
           0           0           8           0           0           0
           8           0           0           0
RBond                                      R   N=          52
  1.00000000E+00  1.00000000E+00  1.00000000E+00  1.00000000E+00  1.00000000E+00
  1.00000000E+00  2.00000000E+00  0.00000000E+00  1.00000000E+00  0.00000000E+00
  0.00000000E+00  0.00000000E+00  1.00000000E+00  0.00000000E+00  0.00000000E+00
  0.00000000E+00  1.00000000E+00  0.00000000E+00  0.00000000E+00  0.00000000E+00
  1.00000000E+00  1.00000000E+00  1.00000000E+00  1.00000000E+00  2.00000000E+00
  0.00000000E+00  0.00000000E+00  0.00000000E+00  1.00000000E+00  1.00000000E+00
  1.00000000E+00  1.00000000E+00  1.00000000E+00  0.00000000E+00  0.00000000E+00
  0.00000000E+00  1.00000000E+00  0.00000000E+00  0.00000000E+00  0.00000000E+00
  1.00000000E+00  0.00000000E+00  0.00000000E+00  0.00000000E+00  1.00000000E+00
  0.00000000E+00  0.00000000E+00  0.00000000E+00  1.00000000E+00  0.00000000E+00
  0.00000000E+00  0.00000000E+00
Virial Ratio                               R      2.005194644762626E+00
SCF Energy                                 R     -5.299252681473372E+02
Total Energy                               R     -5.299252681473372E+02
RMS Force                                  R      4.435476684694059E-04
RMS Density                                R      3.095322544374110E-09
External E-field                           R   N=          35
  0.00000000E+00  0.00000000E+00  0.00000000E+00  0.00000000E+00  0.00000000E+00
  0.00000000E+00  0.00000000E+00  0.00000000E+00  0.00000000E+00  0.00000000E+00
  0.00000000E+00  0.00000000E+00  0.00000000E+00  0.00000000E+00  0.00000000E+00
  0.00000000E+00  0.00000000E+00  0.00000000E+00  0.00000000E+00  0.00000000E+00
  0.00000000E+00  0.00000000E+00  0.00000000E+00  0.00000000E+00  0.00000000E+00
  0.00000000E+00  0.00000000E+00  0.00000000E+00  0.00000000E+00  0.00000000E+00
  0.00000000E+00  0.00000000E+00  0.00000000E+00  0.00000000E+00  0.00000000E+00
IOpCl                                      I                0
IROHF                                      I                0
Alpha Orbital Energies                     R   N=         114
 -2.48875445E+01 -2.48866666E+01 -2.48854721E+01 -1.93047404E+01 -1.05929489E+01
 -1.04384778E+01 -1.03628366E+01 -1.03241421E+01 -1.43562930E+00 -1.35041501E+00
 -1.35002646E+00 -1.19597897E+00 -9.50898854E-01 -8.76126555E-01 -7.95935727E-01
 -7.08393386E-01 -6.98755903E-01 -6.88646871E-01 -6.40096420E-01 -5.93807765E-01
 -5.84618448E-01 -5.69260996E-01 -5.66318390E-01 -5.57348416E-01 -5.38459705E-01
 -5.34385359E-01 -5.21418827E-01 -5.15059644E-01 -5.09766527E-01 -4.95884424E-01
 -4.64008543E-01 -3.69211424E-01  8.60312267E-03  5.33575431E-02  7.84025814E-02
  9.33265956E-02  9.86819668E-02  1.04945878E-01  1.13032616E-01  1.23844117E-01
  1.25399560E-01  1.27969508E-01  1.50092719E-01  1.58410901E-01  1.61626513E-01
  1.65744847E-01  1.74463107E-01  1.80215322E-01  1.88498975E-01  1.98625245E-01
  2.23144185E-01  2.28985689E-01  2.61735238E-01  2.66038857E-01  2.75823110E-01
  3.00036318E-01  3.10477690E-01  3.24462145E-01  3.30849399E-01  3.64511340E-01
  3.68570926E-01  3.77568095E-01  3.83925069E-01  3.93491715E-01  4.07285541E-01
  4.14336765E-01  4.14981003E-01  4.30167054E-01  4.30575932E-01  4.39887647E-01
  4.49779986E-01  4.56034893E-01  4.57424687E-01  4.98017344E-01  5.19505306E-01
  5.28177330E-01  5.67073958E-01  6.88697803E-01  7.40731270E-01  7.48479560E-01
  7.57234924E-01  7.96398623E-01  8.21834387E-01  8.63700288E-01  8.72766901E-01
  8.80939623E-01  9.00915760E-01  9.68790774E-01  1.00620037E+00  1.10315033E+00
  1.15937241E+00  1.17786220E+00  1.21792136E+00  1.21948301E+00  1.29958671E+00
  1.34699929E+00  1.36283918E+00  1.41951909E+00  1.45954130E+00  1.49010897E+00
  1.56091386E+00  1.60376200E+00  1.67357522E+00  1.68960925E+00  1.72470352E+00
  1.73283020E+00  1.80358624E+00  1.82897073E+00  1.84163525E+00  1.85796024E+00
  2.02897524E+00  2.30727368E+00  2.33873912E+00  2.68547106E+00
Alpha MO coefficients                      R   N=       12996
 -1.57642976E-05 -1.43273242E-04 -3.80846379E-05  2.32914122E-05 -4.28564739E-05
  2.53878702E-04  1.81409573E-04 -3.75977731E-04 -2.08619413E-04  1.04018163E-02
  2.03556489E-03  1.67050461E-03  4.41162734E-04  3.98091466E-05  4.49465605E-04
  2.49248233E-04 -1.72363038E-05 -5.49819941E-05 -1.77033701E-03 -4.52925478E-04
 -1.84139270E-03  6.98540657E-04 -6.10320982E-03  2.01378371E-03  3.53709477E-03
  1.00386369E-03  5.47258737E-05 -8.33111313E-04  1.48769764E-05 -1.75947161E-04
 -2.28029460E-05 -9.24040554E-05  6.19853575E-05  2.99202926E-04 -2.55843789E-04
 -5.80993585E-05  1.07700517E-04 -1.97654204E-03 -4.41290611E-04  1.87449507E-03
  1.09186952E-03 -2.70435271E-04  2.35968447E-03 -9.26410860E-04  1.09799529E-03
 -1.92998968E-05 -2.94324606E-04 -6.01882270E-05  5.01751755E-05  1.69156456E-06
  1.54645785E-03  5.46347370E-04 -6.86090584E-04  1.03595118E-04  2.03469637E-03
  5.17715290E-04 -8.19162887E-04 -9.85293779E-05 -1.93130429E-04 -9.17888823E-04
  1.01014830E-04 -5.33791113E-04 -5.71970826E-04  6.99129890E-03 -1.52596316E-04
 -9.32284123E-04 -1.36987499E-03 -8.69464252E-03  2.50205843E-03  7.56028808E-04
 -1.16495740E-03  2.36566480E-04  1.26566472E-03 -2.04861727E-04  2.17664116E-04
  9.94988360E-01  2.79752411E-02  6.65435253E-05  1.01143170E-03  1.02512204E-03
 -1.66973886E-02 -9.86366809E-05 -2.08303286E-03 -2.02780706E-03  1.04846353E-02
 -5.20462368E-04  1.98577889E-03  2.10981448E-03  8.98808354E-03  5.55050886E-04
 -3.19414982E-05 -1.28339916E-05 -3.31582547E-05 -1.41534189E-03  6.59756385E-04
  1.42647969E-04  6.80076475E-04 -6.37630271E-04  1.93873245E-04  4.07924081E-04
  8.58450810E-04  5.15422488E-03  4.98742869E-04 -2.13056111E-05 -5.04045263E-05
  8.42511504E-06 -1.54743559E-03  2.20759707E-04  1.01602090E-03 -1.05656574E-04
 -9.57749306E-04 -1.10596895E-04  1.19337345E-03  3.68890020E-04 -9.78552571E-06
 -1.08866191E-04 -2.84136450E-06  9.82237708E-06 -2.65320182E-05  6.61290121E-04
 -7.51518178E-05  1.83700741E-04  3.63655318E-04  3.11899578E-03  6.17442568E-04
  5.71128711E-04  2.71499659E-04 -3.77338689E-06 -6.39197055E-05 -1.13375558E-04
  1.56976591E-05  4.29162283E-05 -5.87592689E-04  6.51276800E-04  2.66494279E-04
 -5.89199284E-04 -7.26721157E-03 -7.93674795E-04  9.43207142E-04 -1.10540412E-04
  6.08926307E-06  4.55155466E-05 -1.62584216E-05 -1.14900675E-04 -8.66876922E-06
 -4.36089029E-04  7.33981178E-05  3.16322453E-04 -1.05399611E-04  7.94571524E-06
  1.05534792E-04 -2.53492180E-03 -2.13776605E-03  9.61350791E-05  2.11980023E-04
  1.47326295E-02  1.46148984E-03  1.56158458E-04 -2.28880209E-03  3.15998603E-06
  4.20399896E-05  1.36393202E-05 -3.17131103E-06 -2.16323540E-05 -2.24230127E-04
 -1.88907052E-04  2.90497744E-05  1.25764221E-04  5.19909814E-04  1.03017662E-04
 -2.50643071E-04 -5.40568472E-07 -2.00473320E-04 -9.81374100E-04  6.38429296E-04
 -1.22243617E-04  3.07989666E-04  8.41777381E-03  1.71244499E-03 -3.56323005E-04
  6.99046944E-04 -1.29837553E-02  1.77018292E-03  2.99843565E-04 -2.96144851E-03
  2.41692914E-04 -2.42748646E-04  2.74087317E-04 -1.84022403E-04 -8.97411739E-03
  5.41916337E-05  3.07619726E-05 -3.28562518E-06  2.28786294E-05 -1.15485181E-03
 -4.89543358E-04 -4.34765393E-04 -7.58676256E-04 -1.58524159E-03 -6.51671325E-04
 -5.00454439E-04 -9.18047188E-04  9.94976513E-01  2.78927474E-02 -1.23604630E-03
  2.90878264E-04 -7.19146155E-04 -1.63970310E-02  2.48972252E-03 -5.99850339E-04
  1.51987638E-03  8.81948447E-03 -1.89703065E-03  3.93077846E-04 -1.03022014E-03
  6.46856333E-03  4.82440254E-04  1.95510402E-05 -3.02275274E-05  3.29800774E-05
 -1.39943356E-03 -2.90735326E-04  7.80750442E-04 -6.06964122E-04 -1.51442906E-03
 -4.90353330E-04  8.28604853E-04 -6.70399520E-04 -2.56946498E-05 -2.35432378E-04
 -1.29434459E-05  4.95398212E-06  5.44641239E-05  1.55097443E-03  6.40207861E-04
  3.86610068E-04 -1.64982019E-04  2.20523803E-03  2.64009074E-04  4.75101631E-04
  5.60766577E-04  2.29903723E-05  3.28911542E-04  1.45430650E-04 -7.26309378E-05
 -3.71684815E-05  1.21883250E-04  1.08039402E-04  1.58522685E-03  3.13036003E-04
  6.97508416E-03  2.70082742E-03  2.56053010E-04 -3.81001188E-04 -7.93262336E-05
 -3.56790579E-04 -2.01987893E-05 -2.12821644E-04  2.14849856E-05 -1.82472203E-04
  6.49244501E-05  3.13780578E-04 -1.95161913E-04  5.81917467E-05  1.29319155E-04
 -1.92366404E-03 -6.44060874E-04 -1.75856632E-03  6.92786008E-04  2.52157437E-03
  3.56651087E-03  3.16058689E-04  1.85465490E-04  7.22050953E-07  1.02410317E-05
  3.31537858E-05 -1.69808619E-05  5.70775905E-06 -2.08073241E-04 -1.43379663E-04
  2.28995937E-04 -2.01960617E-04 -2.16859248E-03 -4.34620548E-04  5.50148297E-04
  2.52657021E-04 -1.68421636E-04 -7.80686988E-04  2.05294123E-04  6.69275632E-04
 -3.85538836E-04  6.72167382E-03  5.29140917E-04  1.19400303E-03 -1.07410504E-03
 -1.41791170E-02  3.65016821E-03 -1.47647964E-03 -1.57437120E-03 -1.52415594E-04
  6.77989843E-07  2.50577463E-04  7.72464820E-04 -5.04460905E-03  2.12566494E-04
  2.96991807E-06  2.18940194E-05  9.82608102E-06 -1.39167738E-03 -1.24320412E-04
 -8.45127953E-04 -3.67752854E-04 -7.53015361E-04 -3.77406668E-04 -1.20231700E-03
  2.92612529E-05 -6.46779657E-03  1.19470116E-04 -1.57496333E-05  2.16463193E-05
 -1.95664966E-05 -1.16897276E-03  5.72819455E-04 -4.95646759E-04  5.87067583E-04
 -1.02629920E-03  1.08372824E-04 -6.65534255E-04  7.31245192E-04  9.95004562E-01
  2.79299028E-02 -2.18974999E-04 -1.29351320E-03  6.97751142E-04 -1.64928396E-02
  4.27932936E-04  2.51530564E-03 -1.31705830E-03  1.01107815E-02 -7.07681285E-04
 -2.12017112E-03  1.28601405E-03 -1.31759852E-05 -2.90253441E-04 -1.04539577E-05
 -1.23769481E-04  1.24654471E-05  2.65121084E-03  2.12572546E-03 -2.57383441E-04
  1.02187257E-03  9.64688035E-03  1.62404923E-03  2.11431547E-03 -5.21606585E-05
  2.19186562E-04  1.66861943E-04 -1.68894883E-04 -6.91573497E-05 -2.51201419E-05
  7.13859617E-03 -1.75205293E-03  9.75364271E-03 -1.98959010E-03 -2.92441513E-02
 -3.13735478E-03  8.53439637E-04 -3.40610151E-04 -1.09418713E-04 -1.46800802E-04
  1.43599044E-04  4.07435682E-04 -1.46788771E-04  2.00892416E-04 -4.56306407E-05
 -6.28890225E-04  2.46626974E-04  1.48201549E-05  1.04052472E-04  2.88297669E-03
 -6.71555218E-04 -3.62367544E-03 -1.25127244E-03 -6.78448053E-03 -6.58905717E-03
  5.10815293E-04  3.39603521E-03  9.95252488E-01  3.00006005E-02  7.13884316E-04
 -2.07923623E-03  5.50725659E-04 -2.44783845E-02 -2.13962137E-03  5.38130717E-03
 -1.47591089E-03  1.07496578E-02  1.53557222E-03 -1.09989793E-03  2.75373064E-04
  6.46726517E-05  5.50696077E-04 -2.16288665E-04 -5.58412121E-05 -5.37972170E-05
 -1.83409777E-03  2.11529757E-03  2.59158641E-03  1.05576441E-03  2.03241312E-02
 -4.63319261E-03  6.37834816E-04  1.86578668E-03 -5.13098154E-04 -2.73491622E-04
  2.02141669E-04  1.37792121E-03 -1.16252448E-05 -2.80960177E-04  3.21953371E-05
 -6.34767832E-05 -6.62095736E-05  1.12167734E-03 -1.52562599E-04  5.21172073E-04
  5.92283780E-04  2.26021538E-03 -4.61200381E-04  7.56369750E-04  6.42920024E-04
  7.01366581E-07  2.48197443E-05  4.35253123E-06  5.95834476E-05  7.51015325E-07
 -1.57047407E-04 -2.67254029E-05 -3.83762837E-04 -4.16215445E-06 -1.06693743E-03
  3.31243657E-04 -1.36606698E-04  3.33955560E-04 -3.47355282E-06 -2.03190686E-05
 -3.29788545E-05 -1.14109766E-05  6.64778533E-05  2.15830260E-04 -4.99629768E-05
  3.94958048E-05 -3.82615324E-04 -2.49217455E-03  2.01855965E-05  6.67757574E-04