O.pdb                                                                   
FOpt      RwB97XD                                                     6-31+G              
Number of atoms                            I               11
Info1-9                                    I   N=           9
          22          22           0           0           0         100
           2          18        -802
Charge                                     I                0
Multiplicity                               I                1
Number of electrons                        I               40
Number of alpha electrons                  I               20
Number of beta electrons                   I               20
Number of basis functions                  I               77
Number of independent functions            I               77
Number of point charges in /Mol/           I                0
Number of translation vectors              I                0
Atomic numbers                             I   N=          11
           6           6           1           1           1           8
           8           6           1           1           1
Nuclear charges                            R   N=          11
  6.00000000E+00  6.00000000E+00  1.00000000E+00  1.00000000E+00  1.00000000E+00
  8.00000000E+00  8.00000000E+00  6.00000000E+00  1.00000000E+00  1.00000000E+00
  1.00000000E+00
Current cartesian coordinates              R   N=          33
 -1.31081459E+00  2.54121060E+00 -4.69029554E-02 -1.15221495E+00 -3.02757282E-01
 -6.07164282E-03 -2.53420405E-01  3.39169151E+00  1.51455507E+00 -3.28994000E+00
  3.08315718E+00  1.14651621E-01 -5.43825936E-01  3.28844059E+00 -1.81768973E+00
  1.19650321E+00 -1.38016336E+00 -2.94020552E-01 -2.99352223E+00 -1.69520237E+00
  1.44611340E-01  3.49775848E+00  5.47572039E-02  1.54997274E-01  3.66309784E+00
  1.64420967E+00 -1.15531048E+00  5.01990482E+00 -1.28427785E+00 -1.82711903E-01
  3.57196222E+00  7.20441596E-01  2.10964306E+00
Force Field                                I                0
Int Atom Types                             I   N=          11
           0           0           0           0           0           0
           0           0           0           0           0
MM charges                                 R   N=          11
  0.00000000E+00  0.00000000E+00  0.00000000E+00  0.00000000E+00  0.00000000E+00
  0.00000000E+00  0.00000000E+00  0.00000000E+00  0.00000000E+00  0.00000000E+00
  0.00000000E+00
Integer atomic weights                     I   N=          11
          12          12           1           1           1          16
          16          12           1           1           1
Real atomic weights                        R   N=          11
  1.20000000E+01  1.20000000E+01  1.00782504E+00  1.00782504E+00  1.00782504E+00
  1.59949146E+01  1.59949146E+01  1.20000000E+01  1.00782504E+00  1.00782504E+00
  1.00782504E+00
Atom fragment info                         I   N=          11
           0           0           0           0           0           0
           0           0           0           0           0
Atom residue num                           I   N=          11
           0           0           0           0           0           0
           0           0           0           0           0
Nuclear spins                              I   N=          11
           0           0           1           1           1           0
           0           0           1           1           1
Nuclear ZEff                               R   N=          11
 -3.60000000E+00 -3.60000000E+00 -1.00000000E+00 -1.00000000E+00 -1.00000000E+00
 -5.60000000E+00 -5.60000000E+00 -3.60000000E+00 -1.00000000E+00 -1.00000000E+00
 -1.00000000E+00
Nuclear ZNuc                               R   N=          11
  6.00000000E+00  6.00000000E+00  1.00000000E+00  1.00000000E+00  1.00000000E+00
  8.00000000E+00  8.00000000E+00  6.00000000E+00  1.00000000E+00  1.00000000E+00
  1.00000000E+00
Nuclear QMom                               R   N=          11
  0.00000000E+00  0.00000000E+00  0.00000000E+00  0.00000000E+00  0.00000000E+00
  0.00000000E+00  0.00000000E+00  0.00000000E+00  0.00000000E+00  0.00000000E+00
  0.00000000E+00
Nuclear GFac                               R   N=          11
  0.00000000E+00  0.00000000E+00  2.79284600E+00  2.79284600E+00  2.79284600E+00
  0.00000000E+00  0.00000000E+00  0.00000000E+00  2.79284600E+00  2.79284600E+00
  2.79284600E+00
MicOpt                                     I   N=          11
          -1          -1          -1          -1          -1          -1
          -1          -1          -1          -1          -1
Number of contracted shells                I               32
Number of primitive shells                 I               79
Pure/Cartesian d shells                    I                1
Pure/Cartesian f shells                    I                0
Highest angular momentum                   I                1
Largest degree of contraction              I                6
Shell types                                I   N=          32
           0          -1          -1          -1           0          -1
          -1          -1           0           0           0           0
           0           0           0          -1          -1          -1
           0          -1          -1          -1           0          -1
          -1          -1           0           0           0           0
           0           0
Number of primitives per shell             I   N=          32
           6           3           1           1           6           3
           1           1           3           1           3           1
           3           1           6           3           1           1
           6           3           1           1           6           3
           1           1           3           1           3           1
           3           1
Shell to atom map                          I   N=          32
           1           1           1           1           2           2
           2           2           3           3           4           4
           5           5           6           6           6           6
           7           7           7           7           8           8
           8           8           9           9          10          10
          11          11
Primitive exponents                        R   N=          79
  3.04752488E+03  4.57369518E+02  1.03948685E+02  2.92101553E+01  9.28666296E+00
  3.16392696E+00  7.86827235E+00  1.88128854E+00  5.44249258E-01  1.68714478E-01
  4.38000000E-02  3.04752488E+03  4.57369518E+02  1.03948685E+02  2.92101553E+01
  9.28666296E+00  3.16392696E+00  7.86827235E+00  1.88128854E+00  5.44249258E-01
  1.68714478E-01  4.38000000E-02  1.87311370E+01  2.82539436E+00  6.40121692E-01
  1.61277759E-01  1.87311370E+01  2.82539436E+00  6.40121692E-01  1.61277759E-01
  1.87311370E+01  2.82539436E+00  6.40121692E-01  1.61277759E-01  5.48467166E+03
  8.25234946E+02  1.88046958E+02  5.29645000E+01  1.68975704E+01  5.79963534E+00
  1.55396162E+01  3.59993359E+00  1.01376175E+00  2.70005823E-01  8.45000000E-02
  5.48467166E+03  8.25234946E+02  1.88046958E+02  5.29645000E+01  1.68975704E+01
  5.79963534E+00  1.55396162E+01  3.59993359E+00  1.01376175E+00  2.70005823E-01
  8.45000000E-02  3.04752488E+03  4.57369518E+02  1.03948685E+02  2.92101553E+01
  9.28666296E+00  3.16392696E+00  7.86827235E+00  1.88128854E+00  5.44249258E-01
  1.68714478E-01  4.38000000E-02  1.87311370E+01  2.82539436E+00  6.40121692E-01
  1.61277759E-01  1.87311370E+01  2.82539436E+00  6.40121692E-01  1.61277759E-01
  1.87311370E+01  2.82539436E+00  6.40121692E-01  1.61277759E-01
Contraction coefficients                   R   N=          79
  1.83473713E-03  1.40373228E-02  6.88426223E-02  2.32184443E-01  4.67941348E-01
  3.62311985E-01 -1.19332420E-01 -1.60854152E-01  1.14345644E+00  1.00000000E+00
  1.00000000E+00  1.83473713E-03  1.40373228E-02  6.88426223E-02  2.32184443E-01
  4.67941348E-01  3.62311985E-01 -1.19332420E-01 -1.60854152E-01  1.14345644E+00
  1.00000000E+00  1.00000000E+00  3.34946043E-02  2.34726953E-01  8.13757326E-01
  1.00000000E+00  3.34946043E-02  2.34726953E-01  8.13757326E-01  1.00000000E+00
  3.34946043E-02  2.34726953E-01  8.13757326E-01  1.00000000E+00  1.83107443E-03
  1.39501722E-02  6.84450781E-02  2.32714336E-01  4.70192898E-01  3.58520853E-01
 -1.10777550E-01 -1.48026263E-01  1.13076702E+00  1.00000000E+00  1.00000000E+00
  1.83107443E-03  1.39501722E-02  6.84450781E-02  2.32714336E-01  4.70192898E-01
  3.58520853E-01 -1.10777550E-01 -1.48026263E-01  1.13076702E+00  1.00000000E+00
  1.00000000E+00  1.83473713E-03  1.40373228E-02  6.88426223E-02  2.32184443E-01
  4.67941348E-01  3.62311985E-01 -1.19332420E-01 -1.60854152E-01  1.14345644E+00
  1.00000000E+00  1.00000000E+00  3.34946043E-02  2.34726953E-01  8.13757326E-01
  1.00000000E+00  3.34946043E-02  2.34726953E-01  8.13757326E-01  1.00000000E+00
  3.34946043E-02  2.34726953E-01  8.13757326E-01  1.00000000E+00
P(S=P) Contraction coefficients            R   N=          79
  0.00000000E+00  0.00000000E+00  0.00000000E+00  0.00000000E+00  0.00000000E+00
  0.00000000E+00  6.89990666E-02  3.16423961E-01  7.44308291E-01  1.00000000E+00
  1.00000000E+00  0.00000000E+00  0.00000000E+00  0.00000000E+00  0.00000000E+00
  0.00000000E+00  0.00000000E+00  6.89990666E-02  3.16423961E-01  7.44308291E-01
  1.00000000E+00  1.00000000E+00  0.00000000E+00  0.00000000E+00  0.00000000E+00
  0.00000000E+00  0.00000000E+00  0.00000000E+00  0.00000000E+00  0.00000000E+00
  0.00000000E+00  0.00000000E+00  0.00000000E+00  0.00000000E+00  0.00000000E+00
  0.00000000E+00  0.00000000E+00  0.00000000E+00  0.00000000E+00  0.00000000E+00
  7.08742682E-02  3.39752839E-01  7.27158577E-01  1.00000000E+00  1.00000000E+00
  0.00000000E+00  0.00000000E+00  0.00000000E+00  0.00000000E+00  0.00000000E+00
  0.00000000E+00  7.08742682E-02  3.39752839E-01  7.27158577E-01  1.00000000E+00
  1.00000000E+00  0.00000000E+00  0.00000000E+00  0.00000000E+00  0.00000000E+00
  0.00000000E+00  0.00000000E+00  6.89990666E-02  3.16423961E-01  7.44308291E-01
  1.00000000E+00  1.00000000E+00  0.00000000E+00  0.00000000E+00  0.00000000E+00
  0.00000000E+00  0.00000000E+00  0.00000000E+00  0.00000000E+00  0.00000000E+00
  0.00000000E+00  0.00000000E+00  0.00000000E+00  0.00000000E+00
Coordinates of each shell                  R   N=          96
 -1.31081459E+00  2.54121060E+00 -4.69029554E-02 -1.31081459E+00  2.54121060E+00
 -4.69029554E-02 -1.31081459E+00  2.54121060E+00 -4.69029554E-02 -1.31081459E+00
  2.54121060E+00 -4.69029554E-02 -1.15221495E+00 -3.02757282E-01 -6.07164282E-03
 -1.15221495E+00 -3.02757282E-01 -6.07164282E-03 -1.15221495E+00 -3.02757282E-01
 -6.07164282E-03 -1.15221495E+00 -3.02757282E-01 -6.07164282E-03 -2.53420405E-01
  3.39169151E+00  1.51455507E+00 -2.53420405E-01  3.39169151E+00  1.51455507E+00
 -3.28994000E+00  3.08315718E+00  1.14651621E-01 -3.28994000E+00  3.08315718E+00
  1.14651621E-01 -5.43825936E-01  3.28844059E+00 -1.81768973E+00 -5.43825936E-01
  3.28844059E+00 -1.81768973E+00  1.19650321E+00 -1.38016336E+00 -2.94020552E-01
  1.19650321E+00 -1.38016336E+00 -2.94020552E-01  1.19650321E+00 -1.38016336E+00
 -2.94020552E-01  1.19650321E+00 -1.38016336E+00 -2.94020552E-01 -2.99352223E+00
 -1.69520237E+00  1.44611340E-01 -2.99352223E+00 -1.69520237E+00  1.44611340E-01
 -2.99352223E+00 -1.69520237E+00  1.44611340E-01 -2.99352223E+00 -1.69520237E+00
  1.44611340E-01  3.49775848E+00  5.47572039E-02  1.54997274E-01  3.49775848E+00
  5.47572039E-02  1.54997274E-01  3.49775848E+00  5.47572039E-02  1.54997274E-01
  3.49775848E+00  5.47572039E-02  1.54997274E-01  3.66309784E+00  1.64420967E+00
 -1.15531048E+00  3.66309784E+00  1.64420967E+00 -1.15531048E+00  5.01990482E+00
 -1.28427785E+00 -1.82711903E-01  5.01990482E+00 -1.28427785E+00 -1.82711903E-01
  3.57196222E+00  7.20441596E-01  2.10964306E+00  3.57196222E+00  7.20441596E-01
  2.10964306E+00
Constraint Structure                       R   N=          33
 -1.31081459E+00  2.54121060E+00 -4.69029554E-02 -1.15221495E+00 -3.02757282E-01
 -6.07164282E-03 -2.53420405E-01  3.39169151E+00  1.51455507E+00 -3.28994000E+00
  3.08315718E+00  1.14651621E-01 -5.43825936E-01  3.28844059E+00 -1.81768973E+00
  1.19650321E+00 -1.38016336E+00 -2.94020552E-01 -2.99352223E+00 -1.69520237E+00
  1.44611340E-01  3.49775848E+00  5.47572039E-02  1.54997274E-01  3.66309784E+00
  1.64420967E+00 -1.15531048E+00  5.01990482E+00 -1.28427785E+00 -1.82711903E-01
  3.57196222E+00  7.20441596E-01  2.10964306E+00
Num ILSW                                   I              100
ILSW                                       I   N=         100
           0           1           0           0           2           0
           0           0           0           0        4639          -1
           0           0           0           0           2           0
           0           0           0           0           1           0
           1           0           0           0           0           0
           0           0      100000           0          -1           0
           0           0           0           0           0           0
           0           0           0           1           0           0
           0           0           1           0           0           0
           0           0         121          41           0           0
           0           0          58           0           0           0
           0           0           0          11           0           0
           0           0           0           0           0           0
           0           0           0           0           0           0
           0           0           0           0           0           0
           0           0           0           0           0           0
           0           0           0           0
Num RLSW                                   I               41
RLSW                                       R   N=          41
  1.00000000E+00  1.00000000E+00  1.00000000E+00  1.00000000E+00  1.00000000E+00
  0.00000000E+00  2.00000000E-01  2.22036000E-01  0.00000000E+00  7.77964000E-01
  0.00000000E+00  2.00000000E-01  0.00000000E+00  0.00000000E+00  1.00000000E+00
  0.00000000E+00  0.00000000E+00  1.00000000E+00  0.00000000E+00  0.00000000E+00
  0.00000000E+00  0.00000000E+00  1.00000000E+00  0.00000000E+00  0.00000000E+00
  0.00000000E+00  0.00000000E+00  1.00000000E+00  0.00000000E+00  0.00000000E+00
  0.00000000E+00  0.00000000E+00  1.00000000E+00  0.00000000E+00  0.00000000E+00
  0.00000000E+00  0.00000000E+00  0.00000000E+00  1.00000000E+00  1.00000000E+00
  0.00000000E+00
MxBond                                     I                4
NBond                                      I   N=          11
           4           3           1           1           1           2
           1           4           1           1           1
IBond                                      I   N=          44
           2           3           4           5           1           6
           7           0           1           0           0           0
           1           0           0           0           1           0
           0           0           2           8           0           0
           2           0           0           0           6           9
          10          11           8           0           0           0
           8           0           0           0           8           0
           0           0
RBond                                      R   N=          44
  1.00000000E+00  1.00000000E+00  1.00000000E+00  1.00000000E+00  1.00000000E+00
  1.50000000E+00  2.00000000E+00  0.00000000E+00  1.00000000E+00  0.00000000E+00
  0.00000000E+00  0.00000000E+00  1.00000000E+00  0.00000000E+00  0.00000000E+00
  0.00000000E+00  1.00000000E+00  0.00000000E+00  0.00000000E+00  0.00000000E+00
  1.50000000E+00  1.00000000E+00  0.00000000E+00  0.00000000E+00  2.00000000E+00
  0.00000000E+00  0.00000000E+00  0.00000000E+00  1.00000000E+00  1.00000000E+00
  1.00000000E+00  1.00000000E+00  1.00000000E+00  0.00000000E+00  0.00000000E+00
  0.00000000E+00  1.00000000E+00  0.00000000E+00  0.00000000E+00  0.00000000E+00
  1.00000000E+00  0.00000000E+00  0.00000000E+00  0.00000000E+00
Virial Ratio                               R      2.005727252654182E+00
SCF Energy                                 R     -2.682079044644732E+02
Total Energy                               R     -2.682079044644732E+02
RMS Force                                  R      1.144253136346931E-03
RMS Density                                R      2.906666407675928E-09
External E-field                           R   N=          35
  0.00000000E+00  0.00000000E+00  0.00000000E+00  0.00000000E+00  0.00000000E+00
  0.00000000E+00  0.00000000E+00  0.00000000E+00  0.00000000E+00  0.00000000E+00
  0.00000000E+00  0.00000000E+00  0.00000000E+00  0.00000000E+00  0.00000000E+00
  0.00000000E+00  0.00000000E+00  0.00000000E+00  0.00000000E+00  0.00000000E+00
  0.00000000E+00  0.00000000E+00  0.00000000E+00  0.00000000E+00  0.00000000E+00
  0.00000000E+00  0.00000000E+00  0.00000000E+00  0.00000000E+00  0.00000000E+00
  0.00000000E+00  0.00000000E+00  0.00000000E+00  0.00000000E+00  0.00000000E+00
IOpCl                                      I                0
IROHF                                      I                0
Alpha Orbital Energies                     R   N=          77
 -1.93232111E+01 -1.92712833E+01 -1.04517500E+01 -1.03707650E+01 -1.03226042E+01
 -1.21799676E+00 -1.13947980E+00 -8.72387693E-01 -8.40719139E-01 -6.72775947E-01
 -6.07042585E-01 -5.93058650E-01 -5.75669604E-01 -5.37179570E-01 -5.16740714E-01
 -5.06331100E-01 -4.78888110E-01 -4.32673964E-01 -3.85310884E-01 -3.62517925E-01
  5.67136925E-02  6.35722830E-02  7.65626559E-02  8.91462110E-02  9.48819274E-02
  1.20140393E-01  1.26149354E-01  1.29753461E-01  1.41902871E-01  1.49051666E-01
  1.68542008E-01  1.70622618E-01  1.94432442E-01  2.08151630E-01  2.26430993E-01
  2.60282304E-01  2.77813955E-01  2.91849910E-01  3.00578290E-01  3.10226867E-01
  3.46368617E-01  3.49769977E-01  3.62687422E-01  3.68177364E-01  3.89743066E-01
  3.95797760E-01  4.19764622E-01  4.41341123E-01  4.44870377E-01  4.74129916E-01
  5.59987190E-01  6.76027539E-01  7.24709094E-01  7.26007325E-01  7.42118067E-01
  7.66632018E-01  8.20454142E-01  8.58065921E-01  9.39441426E-01  9.65137624E-01
  1.05635058E+00  1.09713513E+00  1.11982433E+00  1.16047277E+00  1.16860937E+00
  1.21539057E+00  1.24972183E+00  1.27733203E+00  1.30619081E+00  1.36989688E+00
  1.41062043E+00  1.44647739E+00  1.48653204E+00  1.55025121E+00  1.71287725E+00
  1.92614733E+00  2.03275462E+00
Alpha MO coefficients                      R   N=        5929
  1.80759750E-05 -6.57837026E-05 -3.47281375E-06  1.43338169E-04  1.98849273E-06
 -3.70246613E-04 -2.13233124E-03  5.07328644E-04  2.08655290E-04  1.57476295E-02
  1.43595027E-03 -3.94597579E-03  2.34546503E-05  7.86368111E-05  2.67109585E-04
  3.99433038E-04 -1.13684282E-04 -2.13387040E-05  2.44494710E-03  5.57130708E-03
 -2.51695045E-04 -5.43638438E-04 -2.00381259E-02 -2.97187622E-03 -4.87917057E-03
  2.27592561E-04  2.60723202E-04 -4.51243794E-04 -1.73058879E-04 -9.64862837E-04
  1.88401678E-04 -2.10178636E-04  9.95235753E-01  2.98554180E-02 -2.28201824E-04
  1.88363330E-03  4.64536366E-04 -2.16471403E-02  9.26972701E-04 -3.77565021E-03
 -8.73633181E-04  9.59503531E-03 -5.77920854E-04  1.53532724E-03  1.28868210E-04
 -3.99912276E-04 -3.25800772E-04 -5.01565065E-05 -8.34438662E-05  7.65674064E-07
  1.61943306E-03 -7.11802186E-05  9.87975742E-04  1.55305467E-05  1.40365056E-03
  3.52986634E-04  8.09031248E-04  6.25885569E-05 -2.85169999E-05 -1.90027889E-04
 -6.42564169E-04 -3.04557262E-04 -8.88989125E-05  4.32654110E-03 -1.28755338E-03
 -6.23388051E-04 -2.38081639E-04  6.58372166E-04  5.02746588E-04  1.14877345E-04
  2.58715360E-04 -3.82044765E-04 -1.04173425E-03 -2.33906764E-04 -1.07481519E-03
 -3.27522806E-04 -1.08543714E-03 -1.43012171E-05 -2.84639287E-04  7.65339383E-05
  1.05408872E-04 -2.47820799E-05  2.69496266E-03  1.93097477E-03 -9.69792563E-04
  6.64030936E-05  8.86082210E-03 -1.20666558E-03 -2.32595604E-03  1.23271610E-04
  2.24147608E-04  2.23143149E-04  2.01415134E-05  1.94580611E-04  2.29472395E-05
  8.43061266E-03 -6.55480990E-03 -7.19172277E-03  4.02833554E-04 -1.10299717E-02
  3.66238815E-03 -2.18400101E-03 -2.24882487E-04 -8.53704469E-05 -5.68504673E-04
  1.22902096E-04  1.48952238E-04 -9.85436586E-05 -2.04636868E-04  3.92099903E-04
 -2.02934383E-04  1.08824228E-04 -1.03786145E-04 -1.68654025E-05  7.26148014E-05
  4.65749683E-04  1.01908885E-03 -4.44098947E-05 -2.03931137E-03  2.30549003E-03
  2.83311517E-04 -2.51414933E-04  9.95235267E-01  2.98427101E-02  1.84388861E-03
  1.37441020E-03 -1.61181351E-04 -2.36875636E-02 -4.83893982E-03 -3.32197205E-03
  4.36766960E-04  7.94365345E-03  6.32932101E-04  4.33894235E-04 -7.90248073E-05
 -4.49096572E-05 -4.98442948E-04  1.93491608E-04  2.25000189E-05  2.82755025E-05
  7.67697085E-04 -8.25545501E-04  5.45925724E-04  1.72070796E-04 -9.00713690E-04
  2.14336545E-04  3.04260389E-04  1.47641360E-04 -5.43022816E-05 -5.88022178E-04
  9.12065032E-05 -1.14849258E-04 -1.22497600E-04 -3.11444700E-04  7.17509021E-04
 -8.65894928E-04  1.52095637E-04  2.63582684E-04 -2.72473794E-05  7.50715046E-03
 -1.00701298E-03 -2.83081118E-03  1.76083727E-04  2.05717218E-02  1.51442090E-03
 -4.32439128E-03  2.15321996E-04  9.95578649E-01  3.71164904E-02  6.92792538E-05
 -1.15689638E-03 -1.00241234E-04 -3.58898967E-02 -6.28755592E-04 -1.26100077E-03
  2.63576158E-04 -2.99606564E-02 -4.15276999E-03 -6.98689749E-03  2.13717417E-04
 -1.42207216E-04 -8.40593070E-04 -1.50488005E-04 -2.10331968E-03 -1.33820341E-04
 -7.59656386E-04  3.94331879E-05  3.92673587E-04  1.40511641E-04 -1.41314747E-04
 -4.73315744E-05 -4.73234048E-06  8.64692928E-04  3.46940954E-04  8.90519752E-05
  1.42094305E-02 -4.49071939E-03  6.03058668E-03  7.74757550E-04 -1.45511036E-04
 -1.12529835E-05 -4.14405893E-04 -3.11650142E-04  3.64780825E-05  5.04793613E-04
 -3.25331364E-04  1.09059379E-04  1.05654814E-05  9.63582345E-03  4.27295327E-03
  3.89082337E-03 -4.07967732E-04  2.69345822E-05  1.13773701E-04  3.90270905E-05
  2.92153059E-06 -3.91100869E-05 -2.28167864E-03  9.24304663E-04  1.11611453E-03
  5.54122359E-04  4.43968197E-03 -1.24859330E-03 -1.33237857E-03 -2.00726144E-04
  1.16748343E-04 -1.61849358E-03  1.31158132E-04  5.56828815E-04 -4.69521508E-05
 -1.22442454E-03 -3.09579741E-04 -5.50668817E-04 -2.86634769E-04  9.53206598E-05
  8.36451308E-06  6.94743799E-04  3.64452982E-04  2.28113530E-04 -2.01694467E-04
  1.99700622E-02  6.19010312E-04 -4.39058088E-03  1.81242907E-04  2.22628777E-06
  9.13143254E-05 -9.53412160E-05  8.85743794E-06  4.98678092E-06 -4.93994281E-03
  1.87971766E-03  2.00944954E-03 -1.07521157E-04 -1.59981962E-02  1.28037201E-03
 -8.42110685E-03 -3.44251707E-04 -1.99584829E-04 -2.73043183E-04  2.26375005E-05
 -3.26313800E-04 -1.38156239E-05 -1.30179869E-03  4.18180869E-05  3.03005704E-04
 -2.00078834E-05 -1.84216911E-06 -5.57816082E-05  1.49888946E-03 -1.14882800E-04
  1.00063908E-04  3.41910577E-04  1.49239280E-02  8.54386186E-03  5.83596152E-03
  1.13164401E-03 -2.80769839E-05 -3.95668694E-04 -7.12724641E-05 -5.89442057E-06
  3.19697323E-05  2.46943528E-03  1.30236258E-03  5.32005109E-04 -2.20450751E-04
  5.28497292E-03  1.92801744E-03  1.40878311E-03 -2.80947539E-04  9.95558851E-01
  3.74284857E-02 -1.14481304E-03 -4.89225730E-04 -2.02508016E-04 -3.65169105E-02
  3.57899451E-03  1.40804369E-03  5.47245345E-04 -1.14428203E-02  3.68713407E-03
  1.29079591E-03  5.45310659E-04 -4.70240812E-04  5.56218537E-03 -4.45943667E-04
  4.63512743E-03 -5.31471507E-04  5.86347709E-03  9.95491328E-01  3.77089757E-02
  3.28132274E-04 -2.12469136E-04 -1.67916822E-05 -3.96948392E-02 -9.55020671E-04
  3.79492298E-03  8.06468752E-05 -1.41522610E-02 -3.36184117E-04  2.95943028E-03
  4.16519978E-05 -7.33598200E-04 -9.71958505E-04  1.00605639E-04 -7.17875231E-04
  2.92011441E-05  7.78755755E-03 -6.97187750E-04  8.95292648E-03 -1.24347623E-04
  1.12777346E-02 -6.07156203E-04  3.39280836E-03 -8.24580007E-05 -4.76452314E-04
  7.99167786E-03 -4.83451228E-04  6.99362503E-03 -5.05437056E-04  8.23751183E-03
 -1.62419779E-07 -1.71386455E-04  1.79873439E-04 -6.23196998E-05  7.99986866E-07
  6.46749359E-05 -1.31610302E-03 -6.14697213E-04 -3.56576821E-05  1.00943610E-03
 -2.07397148E-04 -3.39582793E-05  1.05103389E-04 -7.96738152E-06 -2.27661415E-04
 -9.18877347E-05 -5.48129350E-05  1.69673571E-06  7.45273341E-04  9.07938809E-04
 -4.31233270E-04 -4.38324168E-05  2.04920162E-03  1.26491048E-03  4.98004767E-04
 -7.80577306E-05  2.05674357E-04 -6.70579847E-04  1.84948389E-04 -2.95390106E-04
 -4.83829744E-05  2.12250264E-03 -1.52374757E-03  8.49311545E-04  1.78384746E-04
 -4.34173320E-04  5.77041106E-04  6.33185411E-05  1.91548253E-04 -3.89752873E-04
  2.49898554E-04  6.39853648E-06  6.70160970E-04 -1.44916089E-04 -8.10666013E-04
 -1.87528829E-02  3.37702575E-02  2.42344904E-03 -2.60590340E-02  8.68418387E-05
  9.74424716E-03  9.40643100E-03  1.66451610E-03 -1.57434910E-03 -1.65689818E-01
 -6.98024454E-04  4.04286456E-02 -2.32818071E-03 -1.19150501E-01  2.45006527E-01
 -3.18900145E-04 -9.81992431E-02 -2.73780279E-03  3.50693283E-02  3.41223934E-04
  4.53424612E-02  1.53553056E-03  1.82379635E-01 -4.58068131E-03  6.43177666E-02
  1.91602207E-03  4.73384185E-03 -8.78984751E-05  5.79398351E-03  6.37610228E-03
  5.13676074E-03 -2.09490854E-03 -1.53068098E-01  3.28336532E-01 -4.48577238E-02
  8.11720785E-02  2.34229972E-02  3.66202817E-01 -2.16576453E-02  5.69269591E-02
  1.63061247E-02 -3.87808643E-02 -7.35851897E-03 -2.64433059E-02 -2.78674196E-03
 -1.10909765E-01  2.42656022E-01  9.72818795E-02  6.43153814E-02 -8.32420381E-03
  2.34095633E-01  3.96750049E-02  2.37386773E-02 -3.45815050E-03 -1.93453585E-02
 -3.91214374E-04 -1.22484403E-02 -9.65044285E-04 -4.11767962E-02  8.00408262E-02
 -5.21432884E-02 -2.60725146E-02 -8.28268083E-03  2.44325640E-02  1.09394663E-02
  1.04506046E-03 -2.14209973E-04  9.65776416E-03 -8.94299327E-03 -2.80175767E-03
 -2.23624167E-03  1.34125386E-02  5.05963646E-03  1.12382832E-02  1.89892805E-03
  1.34494579E-02  5.41070386E-03 -4.75622036E-03  1.14262071E-02 -1.25859558E-02
 -8.68623239E-03  1.23306316E-03 -1.95334352E-02 -2.65797736E-02  1.19087785E-02
  5.82229727E-04  5.60079414E-02  1.15618686E-02 -1.16178624E-02  1.67968346E-04
 -4.94960339E-02  1.06210918E-01 -2.16541813E-01 -7.60377361E-02  1.86642157E-02
  1.09203340E-02  7.94840905E-02  4.65800921E-02 -6.51574697E-03 -7.01651023E-02
 -2.49911589E-02 -2.81826474E-02 -6.42406857E-04  9.79242798E-04  2.18267405E-03
  4.18110709E-03 -7.33556435E-03  1.02070293E-03 -9.00402165E-05  1.31489217E-01
 -2.84137752E-01 -1.98101477E-02 -7.80598084E-02 -1.83918032E-02 -3.32586372E-01
 -5.74660531E-03 -6.08656669E-02 -1.27187023E-02  4.04041904E-03  2.24436549E-03
  2.22456459E-03  1.12544327E-03 -1.57367905E-01  3.45271097E-01  1.08145539E-01
  9.35686768E-02 -8.70770829E-03  3.60300917E-01  4.64010320E-02  4.01516065E-02
 -4.23021693E-03  2.87073576E-02  1.41561288E-02  1.77861024E-02  6.63193918E-04
  5.08558261E-02 -9.38036389E-02  5.66687556E-02  3.15111631E-02  1.02187009E-02
 -4.81608049E-02  1.56671563E-03 -1.25486130E-02 -4.01934860E-03  5.20727018E-03
  1.40903038E-03  9.10775524E-04  7.33148521E-04 -1.65321211E-02  5.81021846E-03
 -1.72908596E-02 -6.38793677E-03 -1.61430313E-02  4.72332191E-03 -1.78258427E-01
  3.33903750E-01  1.18705146E-02 -4.35880312E-02 -8.66041496E-04  3.48937198E-01
  9.42404661E-03 -7.30767691E-03 -9.56926860E-04  1.27105348E-01 -9.57754240E-04
 -3.21222608E-02  8.11685563E-04 -7.23283943E-02  1.52167839E-01  5.62679181E-02
  1.78472315E-01 -9.72959161E-03  1.05970174E-01  1.01485245E-02  2.63803917E-02
 -9.92847949E-04 -8.63301040E-02  2.37888813E-02 -2.87161133E-02 -1.62174444E-03
  1.09622118E-01  4.16244749E-03  1.03448805E-01  4.61614597E-03  1.10149452E-01
  3.72085361E-03  2.58516635E-02 -5.89405944E-02 -8.96329278E-02  2.57704346E-02
 -6.38660848E-03 -7.42063348E-02 -4.28585785E-02  4.95262135E-03 -3.93817299E-03
  1.27420624E-03  1.79636974E-02  2.26562775E-03  6.82065877E-04  4.92639114E-02
 -1.14116737E-01 -2.09993117E-02  1.66664446E-02  4.28309676E-04 -1.17671417E-01
 -3.78558629E-03  6.31198289E-03 -3.05193506E-04  2.51415383E-03 -6.54235158E-03
 -3.75563669E-03  3.85666949E-04  4.87256203E-02 -9.76249038E-02  7.65733779E-03
  3.05588327E-02  4.80194008E-03 -8.64019412E-02 -8.95544913E-03  6.99568384E-03
  4.47997345E-04 -3.41861672E-02  1.06985545E-02  5.37930471E-03  2.27934226E-03
 -2.11316416E-02 -2.27855144E-03 -3.59032779E-02 -3.35128873E-03 -2.50097145E-02
 -2.75639177E-03 -5.61005075E-02  1.02766105E-01 -5.33559249E-03  1.03664471E-02
  3.40212137E-03  1.25682052E-01 -2.53273236E-04 -5.23746453E-03  1.22709466E-03
  4.96263993E-02  5.53595570E-03 -1.37780108E-02 -9.85513531E-04  3.27680947E-02
 -7.56809682E-02 -1.41516079E-01  9.79290299E-02  2.26238034E-02 -6.50651221E-02
  8.69080075E-03  5.04590965E-03  1.90350233E-03 -9.49985722E-02 -1.89854942E-02
 -5.13555780E-03  2.90123028E-03  4.20831614E-02  5.39210795E-03  4.00370633E-02
  7.06653608E-03  3.83797004E-02  4.64090530E-03  4.46798208E-02 -1.01872198E-01
  2.38637349E-01  2.18613005E-02  8.40505016E-03 -1.45442351E-01  1.03395384E-01
  7.79540167E-05  1.31280601E-03 -3.93621161E-02 -3.53673621E-02 -9.27102450E-03
 -3.16335107E-03 -2.65818542E-02  5.93606248E-02 -2.63125010E-02  3.03721139E-02
  5.05051242E-03  7.94982203E-02 -5.99055774E-03  1.93302266E-02  1.64667135E-03
  1.48418275E-02 -4.69004991E-05  4.79812610E-03  6.05839894E-05 -1.70240279E-01
  3.31514055E-01  1.76874971E-02 -3.68631197E-04 -5.65071644E-04  3.57917990E-01
 -4.60387536E-04  8.99912026E-03  1.48425523E-03  7.27333042E-02 -2.19729377E-02