 Entering Gaussian System, Link 0=/opt/cluster/programs/g09_d.01/g09//g09
 Input=/home/unibas/boittier/RDKit_G2/N.pdb/SCAN_1_2_6_8_S_17_20.0/4_SCAN_1_2_6_8_F/4_SCAN_N.pdb.com
 Output=/scratch/boittier/4_SCAN_N.pdb/4_SCAN_N.pdb.out
 Initial command:
 /opt/cluster/programs/g09_d.01/g09/l1.exe "/scratch/boittier/4_SCAN_N.pdb/Gau-144447.inp" -scrdir="/scratch/boittier/4_SCAN_N.pdb/"
 Entering Link 1 = /opt/cluster/programs/g09_d.01/g09/l1.exe PID=    144449.
  
 Copyright (c) 1988,1990,1992,1993,1995,1998,2003,2009,2013,
            Gaussian, Inc.  All Rights Reserved.
  
 This is part of the Gaussian(R) 09 program.  It is based on
 the Gaussian(R) 03 system (copyright 2003, Gaussian, Inc.),
 the Gaussian(R) 98 system (copyright 1998, Gaussian, Inc.),
 the Gaussian(R) 94 system (copyright 1995, Gaussian, Inc.),
 the Gaussian 92(TM) system (copyright 1992, Gaussian, Inc.),
 the Gaussian 90(TM) system (copyright 1990, Gaussian, Inc.),
 the Gaussian 88(TM) system (copyright 1988, Gaussian, Inc.),
 the Gaussian 86(TM) system (copyright 1986, Carnegie Mellon
 University), and the Gaussian 82(TM) system (copyright 1983,
 Carnegie Mellon University). Gaussian is a federally registered
 trademark of Gaussian, Inc.
  
 This software contains proprietary and confidential information,
 including trade secrets, belonging to Gaussian, Inc.
  
 This software is provided under written license and may be
 used, copied, transmitted, or stored only in accord with that
 written license.
  
 The following legend is applicable only to US Government
 contracts under FAR:
  
                    RESTRICTED RIGHTS LEGEND
  
 Use, reproduction and disclosure by the US Government is
 subject to restrictions as set forth in subparagraphs (a)
 and (c) of the Commercial Computer Software - Restricted
 Rights clause in FAR 52.227-19.
  
 Gaussian, Inc.
 340 Quinnipiac St., Bldg. 40, Wallingford CT 06492
  
  
 ---------------------------------------------------------------
 Warning -- This program may not be used in any manner that
 competes with the business of Gaussian, Inc. or will provide
 assistance to any competitor of Gaussian, Inc.  The licensee
 of this program is prohibited from giving any competitor of
 Gaussian, Inc. access to this program.  By using this program,
 the user acknowledges that Gaussian, Inc. is engaged in the
 business of creating and licensing software in the field of
 computational chemistry and represents and warrants to the
 licensee that it is not a competitor of Gaussian, Inc. and that
 it will not use this program in any manner prohibited above.
 ---------------------------------------------------------------
  

 Cite this work as:
 Gaussian 09, Revision D.01,
 M. J. Frisch, G. W. Trucks, H. B. Schlegel, G. E. Scuseria, 
 M. A. Robb, J. R. Cheeseman, G. Scalmani, V. Barone, B. Mennucci, 
 G. A. Petersson, H. Nakatsuji, M. Caricato, X. Li, H. P. Hratchian, 
 A. F. Izmaylov, J. Bloino, G. Zheng, J. L. Sonnenberg, M. Hada, 
 M. Ehara, K. Toyota, R. Fukuda, J. Hasegawa, M. Ishida, T. Nakajima, 
 Y. Honda, O. Kitao, H. Nakai, T. Vreven, J. A. Montgomery, Jr., 
 J. E. Peralta, F. Ogliaro, M. Bearpark, J. J. Heyd, E. Brothers, 
 K. N. Kudin, V. N. Staroverov, T. Keith, R. Kobayashi, J. Normand, 
 K. Raghavachari, A. Rendell, J. C. Burant, S. S. Iyengar, J. Tomasi, 
 M. Cossi, N. Rega, J. M. Millam, M. Klene, J. E. Knox, J. B. Cross, 
 V. Bakken, C. Adamo, J. Jaramillo, R. Gomperts, R. E. Stratmann, 
 O. Yazyev, A. J. Austin, R. Cammi, C. Pomelli, J. W. Ochterski, 
 R. L. Martin, K. Morokuma, V. G. Zakrzewski, G. A. Voth, 
 P. Salvador, J. J. Dannenberg, S. Dapprich, A. D. Daniels, 
 O. Farkas, J. B. Foresman, J. V. Ortiz, J. Cioslowski, 
 and D. J. Fox, Gaussian, Inc., Wallingford CT, 2013.
 
 ******************************************
 Gaussian 09:  ES64L-G09RevD.01 24-Apr-2013
                26-May-2021 
 ******************************************
 %chk=/home/unibas/boittier/RDKit_G2/N.pdb/SCAN_1_2_6_8_S_17_20.0/4_SCAN_1_2_6_8_
 F/N.pdb.chk
 %nproc=8
 Will use up to    8 processors via shared memory.
 %mem=16GB
 -----------------------------
 #p wB97XD/6-31+G Opt=ModRedun
 -----------------------------
 1/14=-1,18=120,19=15,26=3,38=1/1,3;
 2/9=110,12=2,17=6,18=5,40=1/2;
 3/5=1,6=6,7=10,11=2,16=1,25=1,30=1,71=1,74=-58/1,2,3;
 4//1;
 5/5=2,38=5/2;
 6/7=2,8=2,9=2,10=2,28=1/1;
 7//1,2,3,16;
 1/14=-1,18=20,19=15,26=3/3(2);
 2/9=110/2;
 99//99;
 2/9=110/2;
 3/5=1,6=6,7=10,11=2,16=1,25=1,30=1,71=1,74=-58/1,2,3;
 4/5=5,16=3,69=1/1;
 5/5=2,38=5/2;
 7//1,2,3,16;
 1/14=-1,18=20,19=15,26=3/3(-5);
 2/9=110/2;
 6/7=2,8=2,9=2,10=2,19=2,28=1/1;
 99/9=1/99;
 Leave Link    1 at Wed May 26 09:20:48 2021, MaxMem=  2147483648 cpu:         0.2
 (Enter /opt/cluster/programs/g09_d.01/g09/l101.exe)
 -----
 N.pdb
 -----
 Symbolic Z-matrix:
 Charge =  0 Multiplicity = 1
 C                     2.76449   0.66484  -0.0648 
 C                     1.47933  -0.10386   0.08359 
 H                     2.78259   1.16378  -1.04175 
 H                     3.61217  -0.01834  -0.00207 
 H                     2.85502   1.44124   0.70278 
 C                     0.23754   0.7496    0.31663 
 O                     1.42976  -1.33244   0.02466 
 C                    -1.07432   0.08656   0.00034 
 H                     0.29971   1.66355  -0.28202 
 H                     0.21559   1.05666   1.36904 
 F                    -1.12881  -0.39004  -1.30156 
 F                    -2.11545   1.01447   0.12475 
 F                    -1.38299  -0.96114   0.84816 
 
 The following ModRedundant input section has been read:
 D       1       2       6       8 F                                           
 
 NAtoms=     13 NQM=       13 NQMF=       0 NMMI=      0 NMMIF=      0
                NMic=       0 NMicF=      0.
                    Isotopes and Nuclear Properties:
 (Nuclear quadrupole moments (NQMom) in fm**2, nuclear magnetic moments (NMagM)
  in nuclear magnetons)

  Atom         1           2           3           4           5           6           7           8           9          10
 IAtWgt=          12          12           1           1           1          12          16          12           1           1
 AtmWgt=  12.0000000  12.0000000   1.0078250   1.0078250   1.0078250  12.0000000  15.9949146  12.0000000   1.0078250   1.0078250
 NucSpn=           0           0           1           1           1           0           0           0           1           1
 AtZEff=   0.0000000   0.0000000   0.0000000   0.0000000   0.0000000   0.0000000   0.0000000   0.0000000   0.0000000   0.0000000
 NQMom=    0.0000000   0.0000000   0.0000000   0.0000000   0.0000000   0.0000000   0.0000000   0.0000000   0.0000000   0.0000000
 NMagM=    0.0000000   0.0000000   2.7928460   2.7928460   2.7928460   0.0000000   0.0000000   0.0000000   2.7928460   2.7928460
 AtZNuc=   6.0000000   6.0000000   1.0000000   1.0000000   1.0000000   6.0000000   8.0000000   6.0000000   1.0000000   1.0000000

  Atom        11          12          13
 IAtWgt=          19          19          19
 AtmWgt=  18.9984033  18.9984033  18.9984033
 NucSpn=           1           1           1
 AtZEff=   0.0000000   0.0000000   0.0000000
 NQMom=    0.0000000   0.0000000   0.0000000
 NMagM=    2.6288670   2.6288670   2.6288670
 AtZNuc=   9.0000000   9.0000000   9.0000000
 Leave Link  101 at Wed May 26 09:20:50 2021, MaxMem=  2147483648 cpu:         4.2
 (Enter /opt/cluster/programs/g09_d.01/g09/l103.exe)

 GradGradGradGradGradGradGradGradGradGradGradGradGradGradGradGradGradGrad
 Berny optimization.
 Initialization pass.
                           ----------------------------
                           !    Initial Parameters    !
                           ! (Angstroms and Degrees)  !
 --------------------------                            --------------------------
 ! Name  Definition              Value          Derivative Info.                !
 --------------------------------------------------------------------------------
 ! R1    R(1,2)                  1.5048         estimate D2E/DX2                !
 ! R2    R(1,3)                  1.0971         estimate D2E/DX2                !
 ! R3    R(1,4)                  1.0905         estimate D2E/DX2                !
 ! R4    R(1,5)                  1.0955         estimate D2E/DX2                !
 ! R5    R(2,6)                  1.5247         estimate D2E/DX2                !
 ! R6    R(2,7)                  1.231          estimate D2E/DX2                !
 ! R7    R(6,8)                  1.5035         estimate D2E/DX2                !
 ! R8    R(6,9)                  1.0943         estimate D2E/DX2                !
 ! R9    R(6,10)                 1.0965         estimate D2E/DX2                !
 ! R10   R(8,11)                 1.3875         estimate D2E/DX2                !
 ! R11   R(8,12)                 1.4002         estimate D2E/DX2                !
 ! R12   R(8,13)                 1.3827         estimate D2E/DX2                !
 ! A1    A(2,1,3)              109.5239         estimate D2E/DX2                !
 ! A2    A(2,1,4)              109.7646         estimate D2E/DX2                !
 ! A3    A(2,1,5)              111.3154         estimate D2E/DX2                !
 ! A4    A(3,1,4)              108.8622         estimate D2E/DX2                !
 ! A5    A(3,1,5)              107.4724         estimate D2E/DX2                !
 ! A6    A(4,1,5)              109.8428         estimate D2E/DX2                !
 ! A7    A(1,2,6)              115.131          estimate D2E/DX2                !
 ! A8    A(1,2,7)              122.6486         estimate D2E/DX2                !
 ! A9    A(6,2,7)              122.2202         estimate D2E/DX2                !
 ! A10   A(2,6,8)              115.5701         estimate D2E/DX2                !
 ! A11   A(2,6,9)              109.7306         estimate D2E/DX2                !
 ! A12   A(2,6,10)             108.6474         estimate D2E/DX2                !
 ! A13   A(8,6,9)              107.6254         estimate D2E/DX2                !
 ! A14   A(8,6,10)             107.9349         estimate D2E/DX2                !
 ! A15   A(9,6,10)             106.9964         estimate D2E/DX2                !
 ! A16   A(6,8,11)             112.5283         estimate D2E/DX2                !
 ! A17   A(6,8,12)             109.745          estimate D2E/DX2                !
 ! A18   A(6,8,13)             113.5747         estimate D2E/DX2                !
 ! A19   A(11,8,12)            106.3688         estimate D2E/DX2                !
 ! A20   A(11,8,13)            107.8374         estimate D2E/DX2                !
 ! A21   A(12,8,13)            106.3608         estimate D2E/DX2                !
 ! D1    D(3,1,2,6)            -73.1776         estimate D2E/DX2                !
 ! D2    D(3,1,2,7)            106.9693         estimate D2E/DX2                !
 ! D3    D(4,1,2,6)            167.3569         estimate D2E/DX2                !
 ! D4    D(4,1,2,7)            -12.4962         estimate D2E/DX2                !
 ! D5    D(5,1,2,6)             45.5283         estimate D2E/DX2                !
 ! D6    D(5,1,2,7)           -134.3248         estimate D2E/DX2                !
 ! D7    D(1,2,6,8)            159.7833         Frozen                          !
 ! D8    D(1,2,6,9)             37.8985         estimate D2E/DX2                !
 ! D9    D(1,2,6,10)           -78.767          estimate D2E/DX2                !
 ! D10   D(7,2,6,8)            -20.3629         estimate D2E/DX2                !
 ! D11   D(7,2,6,9)           -142.2477         estimate D2E/DX2                !
 ! D12   D(7,2,6,10)           101.0868         estimate D2E/DX2                !
 ! D13   D(2,6,8,11)           -55.7389         estimate D2E/DX2                !
 ! D14   D(2,6,8,12)          -173.9711         estimate D2E/DX2                !
 ! D15   D(2,6,8,13)            67.1369         estimate D2E/DX2                !
 ! D16   D(9,6,8,11)            67.2654         estimate D2E/DX2                !
 ! D17   D(9,6,8,12)           -50.9667         estimate D2E/DX2                !
 ! D18   D(9,6,8,13)          -169.8587         estimate D2E/DX2                !
 ! D19   D(10,6,8,11)         -177.5709         estimate D2E/DX2                !
 ! D20   D(10,6,8,12)           64.197          estimate D2E/DX2                !
 ! D21   D(10,6,8,13)          -54.695          estimate D2E/DX2                !
 --------------------------------------------------------------------------------
 Trust Radius=3.00D-01 FncErr=1.00D-07 GrdErr=1.00D-06
 Number of steps in this run=     64 maximum allowed number of steps=    100.
 GradGradGradGradGradGradGradGradGradGradGradGradGradGradGradGradGradGrad

 Leave Link  103 at Wed May 26 09:20:50 2021, MaxMem=  2147483648 cpu:         0.1
 (Enter /opt/cluster/programs/g09_d.01/g09/l202.exe)
                          Input orientation:                          
 ---------------------------------------------------------------------
 Center     Atomic      Atomic             Coordinates (Angstroms)
 Number     Number       Type             X           Y           Z
 ---------------------------------------------------------------------
      1          6           0        2.764486    0.664842   -0.064801
      2          6           0        1.479329   -0.103857    0.083591
      3          1           0        2.782589    1.163777   -1.041751
      4          1           0        3.612172   -0.018343   -0.002070
      5          1           0        2.855020    1.441244    0.702782
      6          6           0        0.237535    0.749602    0.316634
      7          8           0        1.429760   -1.332435    0.024663
      8          6           0       -1.074323    0.086557    0.000338
      9          1           0        0.299713    1.663553   -0.282020
     10          1           0        0.215591    1.056659    1.369042
     11          9           0       -1.128814   -0.390037   -1.301561
     12          9           0       -2.115453    1.014474    0.124753
     13          9           0       -1.382992   -0.961135    0.848157
 ---------------------------------------------------------------------
                    Distance matrix (angstroms):
                    1          2          3          4          5
     1  C    0.000000
     2  C    1.504841   0.000000
     3  H    1.097130   2.138171   0.000000
     4  H    1.090527   2.136275   1.779481   0.000000
     5  H    1.095527   2.159458   1.767945   1.788991   0.000000
     6  C    2.556982   1.524714   2.914455   3.475556   2.734722
     7  O    2.403875   1.230989   3.032896   2.547641   3.191317
     8  C    3.882668   2.562094   4.137889   4.687669   4.215251
     9  H    2.668279   2.156132   2.644171   3.725524   2.747517
    10  H    2.950643   2.143879   3.523191   3.817373   2.749253
    11  F    4.219020   2.966977   4.216742   4.929887   4.820987
    12  F    4.896119   3.764946   5.037245   5.821382   5.022136
    13  F    4.547402   3.084213   5.043716   5.153970   4.873736
                    6          7          8          9         10
     6  C    0.000000
     7  O    2.416925   0.000000
     8  C    1.503544   2.878291   0.000000
     9  H    1.094330   3.216676   2.110596   0.000000
    10  H    1.096507   2.998221   2.116206   1.761080   0.000000
    11  F    2.405045   3.032043   1.387462   2.701367   3.321517
    12  F    2.375611   4.252827   1.400165   2.533731   2.642688
    13  F    2.415625   2.954248   1.382654   3.316291   2.626458
                   11         12         13
    11  F    0.000000
    12  F    2.231699   0.000000
    13  F    2.238760   2.227744   0.000000
 Stoichiometry    C4H5F3O
 Framework group  C1[X(C4H5F3O)]
 Deg. of freedom    33
 Full point group                 C1      NOp   1
 Largest Abelian subgroup         C1      NOp   1
 Largest concise Abelian subgroup C1      NOp   1
                         Standard orientation:                         
 ---------------------------------------------------------------------
 Center     Atomic      Atomic             Coordinates (Angstroms)
 Number     Number       Type             X           Y           Z
 ---------------------------------------------------------------------
      1          6           0        2.764486   -0.664842    0.064801
      2          6           0        1.479329    0.103857   -0.083591
      3          1           0        2.782589   -1.163777    1.041751
      4          1           0        3.612172    0.018343    0.002070
      5          1           0        2.855020   -1.441244   -0.702782
      6          6           0        0.237535   -0.749602   -0.316634
      7          8           0        1.429760    1.332435   -0.024663
      8          6           0       -1.074323   -0.086557   -0.000338
      9          1           0        0.299713   -1.663553    0.282020
     10          1           0        0.215591   -1.056659   -1.369042
     11          9           0       -1.128814    0.390037    1.301561
     12          9           0       -2.115453   -1.014474   -0.124753
     13          9           0       -1.382992    0.961135   -0.848157
 ---------------------------------------------------------------------
 Rotational constants (GHZ):      3.6487877      1.2965812      1.1856450
 Leave Link  202 at Wed May 26 09:20:50 2021, MaxMem=  2147483648 cpu:         0.0
 (Enter /opt/cluster/programs/g09_d.01/g09/l301.exe)
 Standard basis: 6-31+G (6D, 7F)
 Ernie: Thresh=  0.10000D-02 Tol=  0.10000D-05 Strict=F.
 There are   114 symmetry adapted cartesian basis functions of A   symmetry.
 There are   114 symmetry adapted basis functions of A   symmetry.
   114 basis functions,   228 primitive gaussians,   114 cartesian basis functions
    32 alpha electrons       32 beta electrons
       nuclear repulsion energy       403.5758877470 Hartrees.
 IExCor= 4639 DFT=T Ex+Corr=wB97XD ExCW=0 ScaHFX=  1.000000
 ScaDFX=  1.000000  1.000000  1.000000  1.000000 ScalE2=  1.000000  1.000000
 IRadAn=      0 IRanWt=     -1 IRanGd=            0 ICorTp=0 IEmpDi=121
  HFx wShort=  0.000000 wLong=  0.200000 cFull=  0.222036 cShort=  0.000000 cLong=  0.777964
  DFx wShort=  0.000000 wLong=  0.200000 cFull=  0.000000 cShort=  0.000000 cLong=  1.000000
 NAtoms=   13 NActive=   13 NUniq=   13 SFac= 1.00D+00 NAtFMM=   60 NAOKFM=F Big=F
 Integral buffers will be    131072 words long.
 Raffenetti 2 integral format.
 Two-electron integral symmetry is turned on.
 R6Disp:  Grimme-D2 Dispersion energy=       -0.0056147964 Hartrees.
 Nuclear repulsion after empirical dispersion term =      403.5702729506 Hartrees.
 Leave Link  301 at Wed May 26 09:20:50 2021, MaxMem=  2147483648 cpu:         0.3
 (Enter /opt/cluster/programs/g09_d.01/g09/l302.exe)
 NPDir=0 NMtPBC=     1 NCelOv=     1 NCel=       1 NClECP=     1 NCelD=      1
         NCelK=      1 NCelE2=     1 NClLst=     1 CellRange=     0.0.
 One-electron integrals computed using PRISM.
 NBasis=   114 RedAO= T EigKep=  4.01D-05  NBF=   114
 NBsUse=   114 1.00D-06 EigRej= -1.00D+00 NBFU=   114
 Precomputing XC quadrature grid using
 IXCGrd= 4 IRadAn=           0 IRanWt=          -1 IRanGd=           0 AccXCQ= 0.00D+00.
 Generated NRdTot=       0 NPtTot=           0 NUsed=           0 NTot=          32
 NSgBfM=   114   114   114   114   114 MxSgAt=    13 MxSgA2=    13.
 Leave Link  302 at Wed May 26 09:20:51 2021, MaxMem=  2147483648 cpu:         1.0
 (Enter /opt/cluster/programs/g09_d.01/g09/l303.exe)
 DipDrv:  MaxL=1.
 Leave Link  303 at Wed May 26 09:20:51 2021, MaxMem=  2147483648 cpu:         0.3
 (Enter /opt/cluster/programs/g09_d.01/g09/l401.exe)
 ExpMin= 4.38D-02 ExpMax= 7.00D+03 ExpMxC= 1.05D+03 IAcc=2 IRadAn=         4 AccDes= 0.00D+00
 Harris functional with IExCor= 4639 and IRadAn=       4 diagonalized for initial guess.
 HarFok:  IExCor= 4639 AccDes= 0.00D+00 IRadAn=         4 IDoV= 1 UseB2=F ITyADJ=14
 ICtDFT=  3500011 ScaDFX=  1.000000  1.000000  1.000000  1.000000
 FoFCou: FMM=F IPFlag=           0 FMFlag=      100000 FMFlg1=           0
         NFxFlg=           0 DoJE=T BraDBF=F KetDBF=T FulRan=T
         wScrn=  0.000000 ICntrl=     500 IOpCl=  0 I1Cent=   200000004 NGrid=           0
         NMat0=    1 NMatS0=      1 NMatT0=    0 NMatD0=    1 NMtDS0=    0 NMtDT0=    0
 Petite list used in FoFCou.
 Harris En= -511.186654223825    
 JPrj=0 DoOrth=F DoCkMO=F.
 Leave Link  401 at Wed May 26 09:20:51 2021, MaxMem=  2147483648 cpu:         2.0
 (Enter /opt/cluster/programs/g09_d.01/g09/l502.exe)
 Closed shell SCF:
 Using DIIS extrapolation, IDIIS=  1040.
 Integral symmetry usage will be decided dynamically.
 Keep R1 ints in memory in canonical form, NReq=43969700.
 IVT=       59316 IEndB=       59316 NGot=  2147483648 MDV=  2104449753
 LenX=  2104449753 LenY=  2104436316
 Requested convergence on RMS density matrix=1.00D-08 within 128 cycles.
 Requested convergence on MAX density matrix=1.00D-06.
 Requested convergence on             energy=1.00D-06.
 No special actions if energy rises.
 FoFCou: FMM=F IPFlag=           0 FMFlag=           0 FMFlg1=           0
         NFxFlg=           0 DoJE=F BraDBF=F KetDBF=F FulRan=T
         wScrn=  0.000000 ICntrl=     600 IOpCl=  0 I1Cent=           0 NGrid=           0
         NMat0=    1 NMatS0=   6555 NMatT0=    0 NMatD0=    1 NMtDS0=    0 NMtDT0=    0
 Symmetry not used in FoFCou.

 Cycle   1  Pass 1  IDiag  1:
 E= -529.591254373106    
 DIIS: error= 5.56D-02 at cycle   1 NSaved=   1.
 NSaved= 1 IEnMin= 1 EnMin= -529.591254373106     IErMin= 1 ErrMin= 5.56D-02
 ErrMax= 5.56D-02  0.00D+00 EMaxC= 1.00D-01 BMatC= 5.20D-01 BMatP= 5.20D-01
 IDIUse=3 WtCom= 4.44D-01 WtEn= 5.56D-01
 Coeff-Com:  0.100D+01
 Coeff-En:   0.100D+01
 Coeff:      0.100D+01
 Gap=     0.424 Goal=   None    Shift=    0.000
 GapD=    0.424 DampG=2.000 DampE=0.500 DampFc=1.0000 IDamp=-1.
 RMSDP=2.11D-02 MaxDP=1.18D+00              OVMax= 1.29D-01

 Cycle   2  Pass 1  IDiag  1:
 E= -529.735484155224     Delta-E=       -0.144229782118 Rises=F Damp=F
 DIIS: error= 4.67D-02 at cycle   2 NSaved=   2.
 NSaved= 2 IEnMin= 2 EnMin= -529.735484155224     IErMin= 2 ErrMin= 4.67D-02
 ErrMax= 4.67D-02  0.00D+00 EMaxC= 1.00D-01 BMatC= 3.08D-01 BMatP= 5.20D-01
 IDIUse=3 WtCom= 5.33D-01 WtEn= 4.67D-01
 Coeff-Com:  0.430D+00 0.570D+00
 Coeff-En:   0.325D+00 0.675D+00
 Coeff:      0.381D+00 0.619D+00
 Gap=     0.522 Goal=   None    Shift=    0.000
 RMSDP=4.86D-03 MaxDP=8.90D-02 DE=-1.44D-01 OVMax= 6.76D-02

 Cycle   3  Pass 1  IDiag  1:
 E= -529.908673937184     Delta-E=       -0.173189781959 Rises=F Damp=F
 DIIS: error= 1.16D-02 at cycle   3 NSaved=   3.
 NSaved= 3 IEnMin= 3 EnMin= -529.908673937184     IErMin= 3 ErrMin= 1.16D-02
 ErrMax= 1.16D-02  0.00D+00 EMaxC= 1.00D-01 BMatC= 2.22D-02 BMatP= 3.08D-01
 IDIUse=3 WtCom= 8.84D-01 WtEn= 1.16D-01
 Coeff-Com:  0.102D+00 0.256D+00 0.642D+00
 Coeff-En:   0.000D+00 0.000D+00 0.100D+01
 Coeff:      0.900D-01 0.226D+00 0.684D+00
 Gap=     0.392 Goal=   None    Shift=    0.000
 RMSDP=4.61D-03 MaxDP=2.09D-01 DE=-1.73D-01 OVMax= 3.15D-02

 Cycle   4  Pass 1  IDiag  1:
 E= -529.921681003281     Delta-E=       -0.013007066097 Rises=F Damp=F
 DIIS: error= 5.22D-03 at cycle   4 NSaved=   4.
 NSaved= 4 IEnMin= 4 EnMin= -529.921681003281     IErMin= 4 ErrMin= 5.22D-03
 ErrMax= 5.22D-03  0.00D+00 EMaxC= 1.00D-01 BMatC= 3.83D-03 BMatP= 2.22D-02
 IDIUse=3 WtCom= 9.48D-01 WtEn= 5.22D-02
 Coeff-Com: -0.627D-03 0.313D-01 0.338D+00 0.631D+00
 Coeff-En:   0.000D+00 0.000D+00 0.119D+00 0.881D+00
 Coeff:     -0.594D-03 0.297D-01 0.326D+00 0.644D+00
 Gap=     0.381 Goal=   None    Shift=    0.000
 RMSDP=1.06D-03 MaxDP=2.57D-02 DE=-1.30D-02 OVMax= 2.01D-02

 Cycle   5  Pass 1  IDiag  1:
 E= -529.924344963235     Delta-E=       -0.002663959954 Rises=F Damp=F
 DIIS: error= 1.82D-03 at cycle   5 NSaved=   5.
 NSaved= 5 IEnMin= 5 EnMin= -529.924344963235     IErMin= 5 ErrMin= 1.82D-03
 ErrMax= 1.82D-03  0.00D+00 EMaxC= 1.00D-01 BMatC= 3.36D-04 BMatP= 3.83D-03
 IDIUse=3 WtCom= 9.82D-01 WtEn= 1.82D-02
 Coeff-Com: -0.823D-02-0.368D-02 0.144D+00 0.367D+00 0.501D+00
 Coeff-En:   0.000D+00 0.000D+00 0.000D+00 0.000D+00 0.100D+01
 Coeff:     -0.808D-02-0.362D-02 0.141D+00 0.360D+00 0.510D+00
 Gap=     0.385 Goal=   None    Shift=    0.000
 RMSDP=7.30D-04 MaxDP=3.51D-02 DE=-2.66D-03 OVMax= 5.21D-03

 Cycle   6  Pass 1  IDiag  1:
 E= -529.924587806206     Delta-E=       -0.000242842971 Rises=F Damp=F
 DIIS: error= 3.33D-04 at cycle   6 NSaved=   6.
 NSaved= 6 IEnMin= 6 EnMin= -529.924587806206     IErMin= 6 ErrMin= 3.33D-04
 ErrMax= 3.33D-04  0.00D+00 EMaxC= 1.00D-01 BMatC= 7.71D-06 BMatP= 3.36D-04
 IDIUse=3 WtCom= 9.97D-01 WtEn= 3.33D-03
 Coeff-Com: -0.132D-02-0.446D-02-0.424D-02 0.714D-02 0.126D+00 0.877D+00
 Coeff-En:   0.000D+00 0.000D+00 0.000D+00 0.000D+00 0.000D+00 0.100D+01
 Coeff:     -0.132D-02-0.445D-02-0.423D-02 0.712D-02 0.125D+00 0.878D+00
 Gap=     0.384 Goal=   None    Shift=    0.000
 RMSDP=1.52D-04 MaxDP=7.03D-03 DE=-2.43D-04 OVMax= 1.42D-03

 Cycle   7  Pass 1  IDiag  1:
 E= -529.924596470810     Delta-E=       -0.000008664604 Rises=F Damp=F
 DIIS: error= 5.42D-05 at cycle   7 NSaved=   7.
 NSaved= 7 IEnMin= 7 EnMin= -529.924596470810     IErMin= 7 ErrMin= 5.42D-05
 ErrMax= 5.42D-05  0.00D+00 EMaxC= 1.00D-01 BMatC= 6.36D-07 BMatP= 7.71D-06
 IDIUse=1 WtCom= 1.00D+00 WtEn= 0.00D+00
 Coeff-Com:  0.274D-03-0.145D-02-0.151D-01-0.301D-01-0.869D-02 0.294D+00
 Coeff-Com:  0.761D+00
 Coeff:      0.274D-03-0.145D-02-0.151D-01-0.301D-01-0.869D-02 0.294D+00
 Coeff:      0.761D+00
 Gap=     0.384 Goal=   None    Shift=    0.000
 RMSDP=6.02D-05 MaxDP=2.96D-03 DE=-8.66D-06 OVMax= 2.87D-04

 Cycle   8  Pass 1  IDiag  1:
 E= -529.924597275466     Delta-E=       -0.000000804656 Rises=F Damp=F
 DIIS: error= 1.22D-05 at cycle   8 NSaved=   8.
 NSaved= 8 IEnMin= 8 EnMin= -529.924597275466     IErMin= 8 ErrMin= 1.22D-05
 ErrMax= 1.22D-05  0.00D+00 EMaxC= 1.00D-01 BMatC= 2.31D-08 BMatP= 6.36D-07
 IDIUse=1 WtCom= 1.00D+00 WtEn= 0.00D+00
 Coeff-Com:  0.105D-03 0.126D-03-0.128D-02-0.283D-02-0.126D-01-0.244D-01
 Coeff-Com:  0.654D-01 0.976D+00
 Coeff:      0.105D-03 0.126D-03-0.128D-02-0.283D-02-0.126D-01-0.244D-01
 Coeff:      0.654D-01 0.976D+00
 Gap=     0.384 Goal=   None    Shift=    0.000
 RMSDP=1.75D-05 MaxDP=7.70D-04 DE=-8.05D-07 OVMax= 9.55D-05

 Cycle   9  Pass 1  IDiag  1:
 E= -529.924597313200     Delta-E=       -0.000000037734 Rises=F Damp=F
 DIIS: error= 2.50D-06 at cycle   9 NSaved=   9.
 NSaved= 9 IEnMin= 9 EnMin= -529.924597313200     IErMin= 9 ErrMin= 2.50D-06
 ErrMax= 2.50D-06  0.00D+00 EMaxC= 1.00D-01 BMatC= 1.17D-09 BMatP= 2.31D-08
 IDIUse=1 WtCom= 1.00D+00 WtEn= 0.00D+00
 Coeff-Com: -0.556D-06 0.961D-04 0.647D-03 0.138D-02-0.137D-02-0.175D-01
 Coeff-Com: -0.264D-01 0.105D+00 0.938D+00
 Coeff:     -0.556D-06 0.961D-04 0.647D-03 0.138D-02-0.137D-02-0.175D-01
 Coeff:     -0.264D-01 0.105D+00 0.938D+00
 Gap=     0.384 Goal=   None    Shift=    0.000
 RMSDP=2.65D-06 MaxDP=6.21D-05 DE=-3.77D-08 OVMax= 2.67D-05

 Cycle  10  Pass 1  IDiag  1:
 E= -529.924597315148     Delta-E=       -0.000000001948 Rises=F Damp=F
 DIIS: error= 1.85D-06 at cycle  10 NSaved=  10.
 NSaved=10 IEnMin=10 EnMin= -529.924597315148     IErMin=10 ErrMin= 1.85D-06
 ErrMax= 1.85D-06  0.00D+00 EMaxC= 1.00D-01 BMatC= 5.69D-10 BMatP= 1.17D-09
 IDIUse=1 WtCom= 1.00D+00 WtEn= 0.00D+00
 Coeff-Com: -0.115D-04 0.308D-04 0.440D-03 0.979D-03 0.821D-03-0.461D-02
 Coeff-Com: -0.194D-01-0.778D-01 0.484D+00 0.615D+00
 Coeff:     -0.115D-04 0.308D-04 0.440D-03 0.979D-03 0.821D-03-0.461D-02
 Coeff:     -0.194D-01-0.778D-01 0.484D+00 0.615D+00
 Gap=     0.384 Goal=   None    Shift=    0.000
 RMSDP=6.46D-07 MaxDP=1.33D-05 DE=-1.95D-09 OVMax= 9.17D-06

 Cycle  11  Pass 1  IDiag  1:
 E= -529.924597315682     Delta-E=       -0.000000000534 Rises=F Damp=F
 DIIS: error= 6.61D-07 at cycle  11 NSaved=  11.
 NSaved=11 IEnMin=11 EnMin= -529.924597315682     IErMin=11 ErrMin= 6.61D-07
 ErrMax= 6.61D-07  0.00D+00 EMaxC= 1.00D-01 BMatC= 2.77D-11 BMatP= 5.69D-10
 IDIUse=1 WtCom= 1.00D+00 WtEn= 0.00D+00
 Coeff-Com: -0.131D-05-0.285D-05 0.846D-05 0.379D-04 0.206D-03 0.107D-02
 Coeff-Com: -0.899D-03-0.256D-01-0.677D-02 0.113D+00 0.919D+00
 Coeff:     -0.131D-05-0.285D-05 0.846D-05 0.379D-04 0.206D-03 0.107D-02
 Coeff:     -0.899D-03-0.256D-01-0.677D-02 0.113D+00 0.919D+00
 Gap=     0.384 Goal=   None    Shift=    0.000
 RMSDP=2.60D-07 MaxDP=3.87D-06 DE=-5.34D-10 OVMax= 6.66D-06

 Cycle  12  Pass 1  IDiag  1:
 E= -529.924597315753     Delta-E=       -0.000000000072 Rises=F Damp=F
 DIIS: error= 3.58D-07 at cycle  12 NSaved=  12.
 NSaved=12 IEnMin=12 EnMin= -529.924597315753     IErMin=12 ErrMin= 3.58D-07
 ErrMax= 3.58D-07  0.00D+00 EMaxC= 1.00D-01 BMatC= 4.54D-12 BMatP= 2.77D-11
 IDIUse=1 WtCom= 1.00D+00 WtEn= 0.00D+00
 Coeff-Com:  0.117D-05-0.562D-05-0.620D-04-0.129D-03-0.719D-04 0.101D-02
 Coeff-Com:  0.249D-02 0.436D-02-0.763D-01-0.620D-01 0.255D+00 0.876D+00
 Coeff:      0.117D-05-0.562D-05-0.620D-04-0.129D-03-0.719D-04 0.101D-02
 Coeff:      0.249D-02 0.436D-02-0.763D-01-0.620D-01 0.255D+00 0.876D+00
 Gap=     0.384 Goal=   None    Shift=    0.000
 RMSDP=1.12D-07 MaxDP=1.96D-06 DE=-7.15D-11 OVMax= 4.03D-06

 Cycle  13  Pass 1  IDiag  1:
 E= -529.924597315766     Delta-E=       -0.000000000013 Rises=F Damp=F
 DIIS: error= 1.67D-07 at cycle  13 NSaved=  13.
 NSaved=13 IEnMin=13 EnMin= -529.924597315766     IErMin=13 ErrMin= 1.67D-07
 ErrMax= 1.67D-07  0.00D+00 EMaxC= 1.00D-01 BMatC= 5.41D-13 BMatP= 4.54D-12
 IDIUse=1 WtCom= 1.00D+00 WtEn= 0.00D+00
 Coeff-Com: -0.198D-06 0.169D-05 0.165D-04 0.304D-04-0.912D-05-0.458D-03
 Coeff-Com: -0.610D-03 0.300D-02 0.234D-01-0.308D-03-0.221D+00-0.262D+00
 Coeff-Com:  0.146D+01
 Coeff:     -0.198D-06 0.169D-05 0.165D-04 0.304D-04-0.912D-05-0.458D-03
 Coeff:     -0.610D-03 0.300D-02 0.234D-01-0.308D-03-0.221D+00-0.262D+00
 Coeff:      0.146D+01
 Gap=     0.384 Goal=   None    Shift=    0.000
 RMSDP=7.88D-08 MaxDP=1.57D-06 DE=-1.32D-11 OVMax= 3.06D-06

 Cycle  14  Pass 1  IDiag  1:
 E= -529.924597315772     Delta-E=       -0.000000000006 Rises=F Damp=F
 DIIS: error= 3.68D-08 at cycle  14 NSaved=  14.
 NSaved=14 IEnMin=14 EnMin= -529.924597315772     IErMin=14 ErrMin= 3.68D-08
 ErrMax= 3.68D-08  0.00D+00 EMaxC= 1.00D-01 BMatC= 7.01D-14 BMatP= 5.41D-13
 IDIUse=1 WtCom= 1.00D+00 WtEn= 0.00D+00
 Coeff-Com: -0.127D-06 0.881D-06 0.886D-05 0.168D-04 0.824D-05-0.187D-03
 Coeff-Com: -0.328D-03 0.153D-03 0.117D-01 0.536D-02-0.699D-01-0.143D+00
 Coeff-Com:  0.314D+00 0.881D+00
 Coeff:     -0.127D-06 0.881D-06 0.886D-05 0.168D-04 0.824D-05-0.187D-03
 Coeff:     -0.328D-03 0.153D-03 0.117D-01 0.536D-02-0.699D-01-0.143D+00
 Coeff:      0.314D+00 0.881D+00
 Gap=     0.384 Goal=   None    Shift=    0.000
 RMSDP=1.78D-08 MaxDP=5.71D-07 DE=-5.68D-12 OVMax= 6.22D-07

 Cycle  15  Pass 1  IDiag  1:
 E= -529.924597315776     Delta-E=       -0.000000000004 Rises=F Damp=F
 DIIS: error= 8.84D-09 at cycle  15 NSaved=  15.
 NSaved=15 IEnMin=15 EnMin= -529.924597315776     IErMin=15 ErrMin= 8.84D-09
 ErrMax= 8.84D-09  0.00D+00 EMaxC= 1.00D-01 BMatC= 1.34D-14 BMatP= 7.01D-14
 IDIUse=1 WtCom= 1.00D+00 WtEn= 0.00D+00
 Coeff-Com: -0.153D-07 0.535D-07 0.407D-06 0.826D-06 0.511D-05 0.678D-05
 Coeff-Com: -0.167D-05-0.378D-03-0.271D-03 0.185D-02 0.161D-01-0.123D-02
 Coeff-Com: -0.151D+00 0.273D+00 0.862D+00
 Coeff:     -0.153D-07 0.535D-07 0.407D-06 0.826D-06 0.511D-05 0.678D-05
 Coeff:     -0.167D-05-0.378D-03-0.271D-03 0.185D-02 0.161D-01-0.123D-02
 Coeff:     -0.151D+00 0.273D+00 0.862D+00
 Gap=     0.384 Goal=   None    Shift=    0.000
 RMSDP=7.39D-09 MaxDP=3.02D-07 DE=-3.98D-12 OVMax= 1.85D-07

 SCF Done:  E(RwB97XD) =  -529.924597316     A.U. after   15 cycles
            NFock= 15  Conv=0.74D-08     -V/T= 2.0052
 KE= 5.271852932737D+02 PE=-2.057781093442D+03 EE= 5.971009299023D+02
 Leave Link  502 at Wed May 26 09:20:55 2021, MaxMem=  2147483648 cpu:        31.0
 (Enter /opt/cluster/programs/g09_d.01/g09/l601.exe)
 Copying SCF densities to generalized density rwf, IOpCl= 0 IROHF=0.

 **********************************************************************

            Population analysis using the SCF density.

 **********************************************************************

 Orbital symmetries:
       Occupied  (A) (A) (A) (A) (A) (A) (A) (A) (A) (A) (A) (A)
                 (A) (A) (A) (A) (A) (A) (A) (A) (A) (A) (A) (A)
                 (A) (A) (A) (A) (A) (A) (A) (A)
       Virtual   (A) (A) (A) (A) (A) (A) (A) (A) (A) (A) (A) (A)
                 (A) (A) (A) (A) (A) (A) (A) (A) (A) (A) (A) (A)
                 (A) (A) (A) (A) (A) (A) (A) (A) (A) (A) (A) (A)
                 (A) (A) (A) (A) (A) (A) (A) (A) (A) (A) (A) (A)
                 (A) (A) (A) (A) (A) (A) (A) (A) (A) (A) (A) (A)
                 (A) (A) (A) (A) (A) (A) (A) (A) (A) (A) (A) (A)
                 (A) (A) (A) (A) (A) (A) (A) (A) (A) (A)
 The electronic state is 1-A.
 Alpha  occ. eigenvalues --  -24.87932 -24.87837 -24.87794 -19.30276 -10.58503
 Alpha  occ. eigenvalues --  -10.43891 -10.36501 -10.32765  -1.42773  -1.34389
 Alpha  occ. eigenvalues --   -1.34061  -1.19563  -0.94948  -0.87953  -0.79148
 Alpha  occ. eigenvalues --   -0.70427  -0.69231  -0.68463  -0.63313  -0.59517
 Alpha  occ. eigenvalues --   -0.59048  -0.56135  -0.56009  -0.55175  -0.53832
 Alpha  occ. eigenvalues --   -0.52883  -0.51745  -0.51291  -0.50574  -0.49109
 Alpha  occ. eigenvalues --   -0.46486  -0.36847
 Alpha virt. eigenvalues --    0.01593   0.05252   0.07884   0.09137   0.09731
 Alpha virt. eigenvalues --    0.10248   0.11815   0.12073   0.12367   0.13180
 Alpha virt. eigenvalues --    0.14449   0.15128   0.16226   0.17209   0.18111
 Alpha virt. eigenvalues --    0.18738   0.19428   0.21078   0.22649   0.24016
 Alpha virt. eigenvalues --    0.24393   0.27171   0.28564   0.30087   0.31729
 Alpha virt. eigenvalues --    0.32798   0.33833   0.35438   0.35813   0.36556
 Alpha virt. eigenvalues --    0.37637   0.38680   0.40007   0.40988   0.42793
 Alpha virt. eigenvalues --    0.43593   0.44732   0.45184   0.45506   0.47073
 Alpha virt. eigenvalues --    0.47852   0.51680   0.52546   0.53270   0.57253
 Alpha virt. eigenvalues --    0.69038   0.71281   0.73599   0.75242   0.78680
 Alpha virt. eigenvalues --    0.83595   0.84791   0.86471   0.88244   0.91358
 Alpha virt. eigenvalues --    0.94453   1.07583   1.09370   1.14537   1.15628
 Alpha virt. eigenvalues --    1.18163   1.21308   1.23206   1.34838   1.39130
 Alpha virt. eigenvalues --    1.44736   1.46491   1.52654   1.57503   1.59710
 Alpha virt. eigenvalues --    1.66288   1.68316   1.69165   1.74382   1.79760
 Alpha virt. eigenvalues --    1.82082   1.84235   1.85830   1.99042   2.30335
 Alpha virt. eigenvalues --    2.33234   2.70328
          Condensed to atoms (all electrons):
               1          2          3          4          5          6
     1  C    8.068037  -0.539860   0.324349   0.359768   0.351467  -1.760424
     2  C   -0.539860   6.674985  -0.003834  -0.035420  -0.069363  -1.163473
     3  H    0.324349  -0.003834   0.462654  -0.017230  -0.025542   0.017288
     4  H    0.359768  -0.035420  -0.017230   0.437400  -0.021315   0.029052
     5  H    0.351467  -0.069363  -0.025542  -0.021315   0.489809   0.040578
     6  C   -1.760424  -1.163473   0.017288   0.029052   0.040578   9.534770
     7  O   -0.113896   0.373549   0.000795  -0.004274   0.005440  -0.171490
     8  C    0.068143   0.099844  -0.007127  -0.003759   0.003168  -0.107319
     9  H    0.040221  -0.023120  -0.000414   0.000085  -0.001223   0.338380
    10  H   -0.004387   0.021079   0.000167  -0.000103  -0.000312   0.275005
    11  F    0.000291   0.030953  -0.000030   0.000002   0.000037  -0.170231
    12  F    0.006866   0.027416  -0.000020   0.000009   0.000030  -0.128351
    13  F    0.025439  -0.016090  -0.000004   0.000010  -0.000070  -0.104412
               7          8          9         10         11         12
     1  C   -0.113896   0.068143   0.040221  -0.004387   0.000291   0.006866
     2  C    0.373549   0.099844  -0.023120   0.021079   0.030953   0.027416
     3  H    0.000795  -0.007127  -0.000414   0.000167  -0.000030  -0.000020
     4  H   -0.004274  -0.003759   0.000085  -0.000103   0.000002   0.000009
     5  H    0.005440   0.003168  -0.001223  -0.000312   0.000037   0.000030
     6  C   -0.171490  -0.107319   0.338380   0.275005  -0.170231  -0.128351
     7  O    8.273194   0.019437   0.004644  -0.000670  -0.005999  -0.001105
     8  C    0.019437   5.093529  -0.058991   0.008455   0.157372   0.119382
     9  H    0.004644  -0.058991   0.445283  -0.020020  -0.005235  -0.001802
    10  H   -0.000670   0.008455  -0.020020   0.426825   0.007308  -0.000913
    11  F   -0.005999   0.157372  -0.005235   0.007308   9.281599  -0.051122
    12  F   -0.001105   0.119382  -0.001802  -0.000913  -0.051122   9.302538
    13  F    0.004943   0.107908   0.007339  -0.005064  -0.055758  -0.054330
              13
     1  C    0.025439
     2  C   -0.016090
     3  H   -0.000004
     4  H    0.000010
     5  H   -0.000070
     6  C   -0.104412
     7  O    0.004943
     8  C    0.107908
     9  H    0.007339
    10  H   -0.005064
    11  F   -0.055758
    12  F   -0.054330
    13  F    9.265154
 Mulliken charges:
               1
     1  C   -0.826012
     2  C    0.623335
     3  H    0.248950
     4  H    0.255776
     5  H    0.227298
     6  C   -0.629373
     7  O   -0.384568
     8  C    0.499959
     9  H    0.274854
    10  H    0.292631
    11  F   -0.189187
    12  F   -0.218597
    13  F   -0.175065
 Sum of Mulliken charges =   0.00000
 Mulliken charges with hydrogens summed into heavy atoms:
               1
     1  C   -0.093989
     2  C    0.623335
     6  C   -0.061888
     7  O   -0.384568
     8  C    0.499959
    11  F   -0.189187
    12  F   -0.218597
    13  F   -0.175065
 Electronic spatial extent (au):  <R**2>=           1008.5964
 Charge=              0.0000 electrons
 Dipole moment (field-independent basis, Debye):
    X=              3.1947    Y=             -4.2636    Z=             -0.7252  Tot=              5.3768
 Quadrupole moment (field-independent basis, Debye-Ang):
   XX=            -45.5746   YY=            -49.1044   ZZ=            -45.2493
   XY=             -5.5514   XZ=              0.0282   YZ=              0.4490
 Traceless Quadrupole moment (field-independent basis, Debye-Ang):
   XX=              1.0681   YY=             -2.4616   ZZ=              1.3935
   XY=             -5.5514   XZ=              0.0282   YZ=              0.4490
 Octapole moment (field-independent basis, Debye-Ang**2):
  XXX=             -1.5384  YYY=             -3.3434  ZZZ=             -1.2440  XYY=             -9.1555
  XXY=             -2.6640  XXZ=              1.9944  XZZ=             -3.9961  YZZ=             -1.8094
  YYZ=              1.5480  XYZ=             -0.5583
 Hexadecapole moment (field-independent basis, Debye-Ang**3):
 XXXX=           -775.6583 YYYY=           -231.8871 ZZZZ=           -127.7362 XXXY=            -12.3667
 XXXZ=             -1.1626 YYYX=             -6.3989 YYYZ=             -1.3976 ZZZX=              2.6863
 ZZZY=              0.0469 XXYY=           -184.9399 XXZZ=           -156.3542 YYZZ=            -56.5215
 XXYZ=             -0.9193 YYXZ=             -1.7371 ZZXY=              1.2995
 N-N= 4.035702729506D+02 E-N=-2.057781093662D+03  KE= 5.271852932737D+02
 No NMR shielding tensors so no spin-rotation constants.
 Leave Link  601 at Wed May 26 09:20:55 2021, MaxMem=  2147483648 cpu:         0.6
 (Enter /opt/cluster/programs/g09_d.01/g09/l701.exe)
 Compute integral first derivatives.
 ... and contract with generalized density number  0.
 R6Disp: Adding Grimme-D2 dispersion energy 1st derivatives to the gradient.
 Leave Link  701 at Wed May 26 09:20:55 2021, MaxMem=  2147483648 cpu:         0.6
 (Enter /opt/cluster/programs/g09_d.01/g09/l702.exe)
 L702 exits ... SP integral derivatives will be done elsewhere.
 Leave Link  702 at Wed May 26 09:20:56 2021, MaxMem=  2147483648 cpu:         0.2
 (Enter /opt/cluster/programs/g09_d.01/g09/l703.exe)
 Compute integral first derivatives, UseDBF=F ICtDFT=           0.
 Integral derivatives from FoFJK, PRISM(SPDF).
 Calling FoFJK, ICntrl=      2127 FMM=F ISym2X=0 I1Cent= 0 IOpClX= 0 NMat=1 NMatS=1 NMatT=0.
 FoFJK:  IHMeth= 1 ICntrl=    2127 DoSepK=T KAlg= 0 I1Cent=   0 FoldK=F
 IRaf=         1 NMat=   1 IRICut=       1 DoRegI=T DoRafI=F ISym2E= 0.
 FoFCou: FMM=F IPFlag=           0 FMFlag=      100000 FMFlg1=         800
         NFxFlg=           0 DoJE=F BraDBF=F KetDBF=F FulRan=T
         wScrn=  0.000000 ICntrl=    2527 IOpCl=  0 I1Cent=           0 NGrid=           0
         NMat0=    1 NMatS0=      1 NMatT0=    0 NMatD0=    1 NMtDS0=    0 NMtDT0=    0
 Symmetry not used in FoFCou.
 Leave Link  703 at Wed May 26 09:20:57 2021, MaxMem=  2147483648 cpu:         8.3
 (Enter /opt/cluster/programs/g09_d.01/g09/l716.exe)
 Dipole        = 1.25688744D+00-1.67743580D+00-2.85309944D-01
 ***** Axes restored to original set *****
 -------------------------------------------------------------------
 Center     Atomic                   Forces (Hartrees/Bohr)
 Number     Number              X              Y              Z
 -------------------------------------------------------------------
      1        6           0.000091498   -0.000026591    0.000618581
      2        6          -0.000164862   -0.000060499   -0.000654366
      3        1           0.000000632   -0.000012455   -0.000002444
      4        1           0.000002701   -0.000008395    0.000001163
      5        1           0.000005983   -0.000005923   -0.000006351
      6        6           0.000096946    0.000308207   -0.000607566
      7        8          -0.000001390    0.000008607    0.000009345
      8        6          -0.000046756   -0.000183472    0.000612199
      9        1           0.000001304   -0.000003375   -0.000006147
     10        1           0.000008252    0.000004310   -0.000001161
     11        9          -0.000004387   -0.000010566    0.000008493
     12        9           0.000008909   -0.000001742    0.000003082
     13        9           0.000001169   -0.000008105    0.000025171
 -------------------------------------------------------------------
 Cartesian Forces:  Max     0.000654366 RMS     0.000211015
 Leave Link  716 at Wed May 26 09:20:57 2021, MaxMem=  2147483648 cpu:         0.2
 (Enter /opt/cluster/programs/g09_d.01/g09/l103.exe)

 GradGradGradGradGradGradGradGradGradGradGradGradGradGradGradGradGradGrad
 Berny optimization.
 FormGI is forming the generalized inverse of G from B-inverse, IUseBI=4.
 Internal  Forces:  Max     0.000659191 RMS     0.000143834
 Search for a local minimum.
 Step number   1 out of a maximum of   64
 All quantities printed in internal units (Hartrees-Bohrs-Radians)
 RMS Force = .49017D-05 SwitMx=.10000D-02 MixMth= 2
 Mixed Optimization -- En-DIIS/RFO-DIIS
 Second derivative matrix not updated -- first step.
 ITU=  0
     Eigenvalues ---    0.00527   0.00702   0.00719   0.02909   0.05552
     Eigenvalues ---    0.07237   0.07472   0.08076   0.08818   0.09748
     Eigenvalues ---    0.12051   0.16000   0.16000   0.16000   0.22024
     Eigenvalues ---    0.25000   0.25000   0.25000   0.25000   0.25000
     Eigenvalues ---    0.29917   0.31875   0.32008   0.34001   0.34071
     Eigenvalues ---    0.34182   0.34317   0.34752   0.45593   0.47763
     Eigenvalues ---    0.48620   0.906761000.000001000.000001000.00000
     Eigenvalues --- 1000.000001000.000001000.000001000.000001000.00000
     Eigenvalues --- 1000.000001000.000001000.000001000.000001000.00000
     Eigenvalues --- 1000.000001000.000001000.000001000.000001000.00000
     Eigenvalues --- 1000.000001000.000001000.000001000.00000
 RFO step:  Lambda= 0.00000000D+00 EMin= 5.26703565D-03
 Linear search not attempted -- first point.
 Iteration  1 RMS(Cart)=  0.00005675 RMS(Int)=  0.00000000
 Iteration  2 RMS(Cart)=  0.00000000 RMS(Int)=  0.00000000
 Iteration  1 RMS(Cart)=  0.00000000 RMS(Int)=  0.00000000
 ITry= 1 IFail=0 DXMaxC= 1.57D-04 DCOld= 1.00D+10 DXMaxT= 3.00D-01 DXLimC= 3.00D+00 Rises=F
 Variable       Old X    -DE/DX   Delta X   Delta X   Delta X     New X
                                 (Linear)    (Quad)   (Total)
    R1        2.84374   0.00000   0.00000   0.00002   0.00002   2.84375
    R2        2.07328  -0.00001   0.00000  -0.00002  -0.00002   2.07325
    R3        2.06080   0.00000   0.00000   0.00001   0.00001   2.06081
    R4        2.07025   0.00000   0.00000   0.00000   0.00000   2.07025
    R5        2.88129   0.00000   0.00000  -0.00001  -0.00001   2.88128
    R6        2.32623  -0.00001   0.00000  -0.00001  -0.00001   2.32622
    R7        2.84129   0.00000   0.00000  -0.00001  -0.00001   2.84128
    R8        2.06798   0.00000   0.00000  -0.00001  -0.00001   2.06798
    R9        2.07210   0.00000   0.00000   0.00000   0.00000   2.07210
   R10        2.62192   0.00000   0.00000   0.00001   0.00001   2.62193
   R11        2.64593  -0.00001   0.00000  -0.00002  -0.00002   2.64590
   R12        2.61284   0.00002   0.00000   0.00004   0.00004   2.61288
    A1        1.91155   0.00001   0.00000   0.00007   0.00007   1.91162
    A2        1.91575   0.00000   0.00000  -0.00002  -0.00002   1.91573
    A3        1.94282   0.00000   0.00000  -0.00004  -0.00004   1.94278
    A4        1.90000   0.00000   0.00000   0.00003   0.00003   1.90003
    A5        1.87575   0.00000   0.00000   0.00003   0.00003   1.87578
    A6        1.91712   0.00000   0.00000  -0.00007  -0.00007   1.91705
    A7        2.00941   0.00000   0.00000  -0.00001  -0.00001   2.00940
    A8        2.14062   0.00000   0.00000   0.00000   0.00000   2.14062
    A9        2.13315   0.00000   0.00000   0.00001   0.00001   2.13316
   A10        2.01708   0.00000   0.00000  -0.00003  -0.00003   2.01705
   A11        1.91516  -0.00001   0.00000   0.00000   0.00000   1.91516
   A12        1.89626   0.00001   0.00000  -0.00002  -0.00002   1.89624
   A13        1.87842   0.00027   0.00000   0.00000   0.00000   1.87842
   A14        1.88382  -0.00027   0.00000   0.00003   0.00003   1.88384
   A15        1.86744   0.00000   0.00000   0.00003   0.00003   1.86747
   A16        1.96399   0.00000   0.00000   0.00001   0.00001   1.96400
   A17        1.91541   0.00001   0.00000   0.00004   0.00004   1.91545
   A18        1.98225  -0.00001   0.00000  -0.00006  -0.00006   1.98219
   A19        1.85649   0.00000   0.00000   0.00003   0.00003   1.85651
   A20        1.88212   0.00000   0.00000  -0.00003  -0.00003   1.88208
   A21        1.85635   0.00000   0.00000   0.00002   0.00002   1.85637
    D1       -1.27719  -0.00014   0.00000  -0.00002  -0.00002  -1.27721
    D2        1.86697   0.00014   0.00000   0.00009   0.00009   1.86706
    D3        2.92093  -0.00015   0.00000  -0.00008  -0.00008   2.92085
    D4       -0.21810   0.00014   0.00000   0.00003   0.00003  -0.21807
    D5        0.79462  -0.00014   0.00000   0.00005   0.00005   0.79466
    D6       -2.34441   0.00015   0.00000   0.00015   0.00015  -2.34426
    D7        2.78874   0.00066   0.00000   0.00000   0.00000   2.78874
    D8        0.66145   0.00030   0.00000   0.00002   0.00002   0.66148
    D9       -1.37474   0.00031   0.00000   0.00000   0.00000  -1.37475
   D10       -0.35540   0.00038   0.00000  -0.00011  -0.00011  -0.35551
   D11       -2.48269   0.00002   0.00000  -0.00008  -0.00008  -2.48277
   D12        1.76430   0.00002   0.00000  -0.00011  -0.00011   1.76419
   D13       -0.97283  -0.00013   0.00000   0.00014   0.00014  -0.97268
   D14       -3.03637  -0.00014   0.00000   0.00008   0.00008  -3.03629
   D15        1.17176  -0.00014   0.00000   0.00006   0.00006   1.17182
   D16        1.17400   0.00007   0.00000   0.00012   0.00012   1.17412
   D17       -0.88954   0.00007   0.00000   0.00005   0.00005  -0.88948
   D18       -2.96459   0.00006   0.00000   0.00003   0.00003  -2.96456
   D19       -3.09920   0.00007   0.00000   0.00017   0.00017  -3.09903
   D20        1.12045   0.00007   0.00000   0.00010   0.00010   1.12055
   D21       -0.95461   0.00007   0.00000   0.00009   0.00009  -0.95452
         Item               Value     Threshold  Converged?
 Maximum Force            0.000020     0.000450     YES
 RMS     Force            0.000005     0.000300     YES
 Maximum Displacement     0.000157     0.001800     YES
 RMS     Displacement     0.000057     0.001200     YES
 Predicted change in Energy=-3.661154D-09
 Optimization completed.
    -- Stationary point found.
                           ----------------------------
                           !   Optimized Parameters   !
                           ! (Angstroms and Degrees)  !
 --------------------------                            --------------------------
 ! Name  Definition              Value          Derivative Info.                !
 --------------------------------------------------------------------------------
 ! R1    R(1,2)                  1.5048         -DE/DX =    0.0                 !
 ! R2    R(1,3)                  1.0971         -DE/DX =    0.0                 !
 ! R3    R(1,4)                  1.0905         -DE/DX =    0.0                 !
 ! R4    R(1,5)                  1.0955         -DE/DX =    0.0                 !
 ! R5    R(2,6)                  1.5247         -DE/DX =    0.0                 !
 ! R6    R(2,7)                  1.231          -DE/DX =    0.0                 !
 ! R7    R(6,8)                  1.5035         -DE/DX =    0.0                 !
 ! R8    R(6,9)                  1.0943         -DE/DX =    0.0                 !
 ! R9    R(6,10)                 1.0965         -DE/DX =    0.0                 !
 ! R10   R(8,11)                 1.3875         -DE/DX =    0.0                 !
 ! R11   R(8,12)                 1.4002         -DE/DX =    0.0                 !
 ! R12   R(8,13)                 1.3827         -DE/DX =    0.0                 !
 ! A1    A(2,1,3)              109.5239         -DE/DX =    0.0                 !
 ! A2    A(2,1,4)              109.7646         -DE/DX =    0.0                 !
 ! A3    A(2,1,5)              111.3154         -DE/DX =    0.0                 !
 ! A4    A(3,1,4)              108.8622         -DE/DX =    0.0                 !
 ! A5    A(3,1,5)              107.4724         -DE/DX =    0.0                 !
 ! A6    A(4,1,5)              109.8428         -DE/DX =    0.0                 !
 ! A7    A(1,2,6)              115.131          -DE/DX =    0.0                 !
 ! A8    A(1,2,7)              122.6486         -DE/DX =    0.0                 !
 ! A9    A(6,2,7)              122.2202         -DE/DX =    0.0                 !
 ! A10   A(2,6,8)              115.5701         -DE/DX =    0.0                 !
 ! A11   A(2,6,9)              109.7306         -DE/DX =    0.0                 !
 ! A12   A(2,6,10)             108.6474         -DE/DX =    0.0                 !
 ! A13   A(8,6,9)              107.6254         -DE/DX =    0.0003              !
 ! A14   A(8,6,10)             107.9349         -DE/DX =   -0.0003              !
 ! A15   A(9,6,10)             106.9964         -DE/DX =    0.0                 !
 ! A16   A(6,8,11)             112.5283         -DE/DX =    0.0                 !
 ! A17   A(6,8,12)             109.745          -DE/DX =    0.0                 !
 ! A18   A(6,8,13)             113.5747         -DE/DX =    0.0                 !
 ! A19   A(11,8,12)            106.3688         -DE/DX =    0.0                 !
 ! A20   A(11,8,13)            107.8374         -DE/DX =    0.0                 !
 ! A21   A(12,8,13)            106.3608         -DE/DX =    0.0                 !
 ! D1    D(3,1,2,6)            -73.1776         -DE/DX =   -0.0001              !
 ! D2    D(3,1,2,7)            106.9693         -DE/DX =    0.0001              !
 ! D3    D(4,1,2,6)            167.3569         -DE/DX =   -0.0001              !
 ! D4    D(4,1,2,7)            -12.4962         -DE/DX =    0.0001              !
 ! D5    D(5,1,2,6)             45.5283         -DE/DX =   -0.0001              !
 ! D6    D(5,1,2,7)           -134.3248         -DE/DX =    0.0001              !
 ! D7    D(1,2,6,8)            159.7833         -DE/DX =    0.0007              !
 ! D8    D(1,2,6,9)             37.8985         -DE/DX =    0.0003              !
 ! D9    D(1,2,6,10)           -78.767          -DE/DX =    0.0003              !
 ! D10   D(7,2,6,8)            -20.3629         -DE/DX =    0.0004              !
 ! D11   D(7,2,6,9)           -142.2477         -DE/DX =    0.0                 !
 ! D12   D(7,2,6,10)           101.0868         -DE/DX =    0.0                 !
 ! D13   D(2,6,8,11)           -55.7389         -DE/DX =   -0.0001              !
 ! D14   D(2,6,8,12)          -173.9711         -DE/DX =   -0.0001              !
 ! D15   D(2,6,8,13)            67.1369         -DE/DX =   -0.0001              !
 ! D16   D(9,6,8,11)            67.2654         -DE/DX =    0.0001              !
 ! D17   D(9,6,8,12)           -50.9667         -DE/DX =    0.0001              !
 ! D18   D(9,6,8,13)          -169.8587         -DE/DX =    0.0001              !
 ! D19   D(10,6,8,11)         -177.5709         -DE/DX =    0.0001              !
 ! D20   D(10,6,8,12)           64.197          -DE/DX =    0.0001              !
 ! D21   D(10,6,8,13)          -54.695          -DE/DX =    0.0001              !
 --------------------------------------------------------------------------------
 Lowest energy point so far.  Saving SCF results.
 GradGradGradGradGradGradGradGradGradGradGradGradGradGradGradGradGradGrad

 Largest change from initial coordinates is atom    4       0.000 Angstoms.
 Leave Link  103 at Wed May 26 09:20:57 2021, MaxMem=  2147483648 cpu:         0.1
 (Enter /opt/cluster/programs/g09_d.01/g09/l202.exe)
                          Input orientation:                          
 ---------------------------------------------------------------------
 Center     Atomic      Atomic             Coordinates (Angstroms)
 Number     Number       Type             X           Y           Z
 ---------------------------------------------------------------------
      1          6           0        2.764486    0.664842   -0.064801
      2          6           0        1.479329   -0.103857    0.083591
      3          1           0        2.782589    1.163777   -1.041751
      4          1           0        3.612172   -0.018343   -0.002070
      5          1           0        2.855020    1.441244    0.702782
      6          6           0        0.237535    0.749602    0.316634
      7          8           0        1.429760   -1.332435    0.024663
      8          6           0       -1.074323    0.086557    0.000338
      9          1           0        0.299713    1.663553   -0.282020
     10          1           0        0.215591    1.056659    1.369042
     11          9           0       -1.128814   -0.390037   -1.301561
     12          9           0       -2.115453    1.014474    0.124753
     13          9           0       -1.382992   -0.961135    0.848157
 ---------------------------------------------------------------------
                    Distance matrix (angstroms):
                    1          2          3          4          5
     1  C    0.000000
     2  C    1.504841   0.000000
     3  H    1.097130   2.138171   0.000000
     4  H    1.090527   2.136275   1.779481   0.000000
     5  H    1.095527   2.159458   1.767945   1.788991   0.000000
     6  C    2.556982   1.524714   2.914455   3.475556   2.734722
     7  O    2.403875   1.230989   3.032896   2.547641   3.191317
     8  C    3.882668   2.562094   4.137889   4.687669   4.215251
     9  H    2.668279   2.156132   2.644171   3.725524   2.747517
    10  H    2.950643   2.143879   3.523191   3.817373   2.749253
    11  F    4.219020   2.966977   4.216742   4.929887   4.820987
    12  F    4.896119   3.764946   5.037245   5.821382   5.022136
    13  F    4.547402   3.084213   5.043716   5.153970   4.873736
                    6          7          8          9         10
     6  C    0.000000
     7  O    2.416925   0.000000
     8  C    1.503544   2.878291   0.000000
     9  H    1.094330   3.216676   2.110596   0.000000
    10  H    1.096507   2.998221   2.116206   1.761080   0.000000
    11  F    2.405045   3.032043   1.387462   2.701367   3.321517
    12  F    2.375611   4.252827   1.400165   2.533731   2.642688
    13  F    2.415625   2.954248   1.382654   3.316291   2.626458
                   11         12         13
    11  F    0.000000
    12  F    2.231699   0.000000
    13  F    2.238760   2.227744   0.000000
 Stoichiometry    C4H5F3O
 Framework group  C1[X(C4H5F3O)]
 Deg. of freedom    33
 Full point group                 C1      NOp   1
 RotChk:  IX=0 Diff= 2.30D-16
 Largest Abelian subgroup         C1      NOp   1
 Largest concise Abelian subgroup C1      NOp   1
                         Standard orientation:                         
 ---------------------------------------------------------------------
 Center     Atomic      Atomic             Coordinates (Angstroms)
 Number     Number       Type             X           Y           Z
 ---------------------------------------------------------------------
      1          6           0        2.764486   -0.664842    0.064801
      2          6           0        1.479329    0.103857   -0.083591
      3          1           0        2.782589   -1.163777    1.041751
      4          1           0        3.612172    0.018343    0.002070
      5          1           0        2.855020   -1.441244   -0.702782
      6          6           0        0.237535   -0.749602   -0.316634
      7          8           0        1.429760    1.332435   -0.024663
      8          6           0       -1.074323   -0.086557   -0.000338
      9          1           0        0.299713   -1.663553    0.282020
     10          1           0        0.215591   -1.056659   -1.369042
     11          9           0       -1.128814    0.390037    1.301561
     12          9           0       -2.115453   -1.014474   -0.124753
     13          9           0       -1.382992    0.961135   -0.848157
 ---------------------------------------------------------------------
 Rotational constants (GHZ):      3.6487877      1.2965812      1.1856450
 Leave Link  202 at Wed May 26 09:20:57 2021, MaxMem=  2147483648 cpu:         0.0
 (Enter /opt/cluster/programs/g09_d.01/g09/l9999.exe)
 1\1\GINC-NODE08\FOpt\RwB97XD\6-31+G\C4H5F3O1\BOITTIER\26-May-2021\0\\#
 p wB97XD/6-31+G Opt=ModRedun\\N.pdb\\0,1\C,2.764486,0.664842,-0.064801
 \C,1.479329,-0.103857,0.083591\H,2.782589,1.163777,-1.041751\H,3.61217
 2,-0.018343,-0.00207\H,2.85502,1.441244,0.702782\C,0.237535,0.749602,0
 .316634\O,1.42976,-1.332435,0.024663\C,-1.074323,0.086557,0.000338\H,0
 .299713,1.663553,-0.28202\H,0.215591,1.056659,1.369042\F,-1.128814,-0.
 390037,-1.301561\F,-2.115453,1.014474,0.124753\F,-1.382992,-0.961135,0
 .848157\\Version=ES64L-G09RevD.01\State=1-A\HF=-529.9245973\RMSD=7.386
 e-09\RMSF=2.110e-04\Dipole=1.2568872,1.677436,0.2853099\Quadrupole=0.7
 941359,-1.8301325,1.0359965,4.1273194,-0.0209598,0.333789\PG=C01 [X(C4
 H5F3O1)]\\@


 ... UNTIL SCIENCE IS MIXED WITH EMOTION AND APPEALS TO THE HEART AND
 IMAGINATION , IT IS LIKE DEAD INORGANIC MATTER; AND WHEN IT IS SO MIXED
 AND SO TRANSFORMED IT IS LITERATURE.

                                  -- JOHN BURROUGHS
 Job cpu time:       0 days  0 hours  0 minutes 49.7 seconds.
 File lengths (MBytes):  RWF=      7 Int=      0 D2E=      0 Chk=      3 Scr=      1
 Normal termination of Gaussian 09 at Wed May 26 09:20:57 2021.
