N.pdb                                                                   
FOpt      RwB97XD                                                     6-31+G              
Number of atoms                            I               13
Info1-9                                    I   N=           9
          24          24           0           0           0         100
           2          18        -802
Charge                                     I                0
Multiplicity                               I                1
Number of electrons                        I               64
Number of alpha electrons                  I               32
Number of beta electrons                   I               32
Number of basis functions                  I              114
Number of independent functions            I              114
Number of point charges in /Mol/           I                0
Number of translation vectors              I                0
Atomic numbers                             I   N=          13
           6           6           1           1           1           6
           8           6           1           1           9           9
           9
Nuclear charges                            R   N=          13
  6.00000000E+00  6.00000000E+00  1.00000000E+00  1.00000000E+00  1.00000000E+00
  6.00000000E+00  8.00000000E+00  6.00000000E+00  1.00000000E+00  1.00000000E+00
  9.00000000E+00  9.00000000E+00  9.00000000E+00
Current cartesian coordinates              R   N=          39
  5.22412174E+00 -1.25636875E+00  1.22456143E-01  2.79552676E+00  1.96261470E-01
 -1.57964097E-01  5.25833160E+00 -2.19921926E+00  1.96862409E+00  6.82601594E+00
  3.46640350E-02  3.91173310E-03  5.39520643E+00 -2.72355588E+00 -1.32806551E+00
  4.48876428E-01 -1.41654266E+00 -5.98351544E-01  2.70185458E+00  2.51793741E+00
 -4.66063156E-02 -2.03017611E+00 -1.63569566E-01 -6.38727433E-04  5.66376079E-01
 -3.14365973E+00  5.32940564E-01  4.07408365E-01 -1.99679630E+00 -2.58711444E+00
 -2.13314931E+00  7.37062555E-01  2.45959384E+00 -3.99762641E+00 -1.91707887E+00
 -2.35749004E-01 -2.61347628E+00  1.81628130E+00 -1.60278445E+00
Force Field                                I                0
Int Atom Types                             I   N=          13
           0           0           0           0           0           0
           0           0           0           0           0           0
           0
MM charges                                 R   N=          13
  0.00000000E+00  0.00000000E+00  0.00000000E+00  0.00000000E+00  0.00000000E+00
  0.00000000E+00  0.00000000E+00  0.00000000E+00  0.00000000E+00  0.00000000E+00
  0.00000000E+00  0.00000000E+00  0.00000000E+00
Integer atomic weights                     I   N=          13
          12          12           1           1           1          12
          16          12           1           1          19          19
          19
Real atomic weights                        R   N=          13
  1.20000000E+01  1.20000000E+01  1.00782504E+00  1.00782504E+00  1.00782504E+00
  1.20000000E+01  1.59949146E+01  1.20000000E+01  1.00782504E+00  1.00782504E+00
  1.89984032E+01  1.89984032E+01  1.89984032E+01
Atom fragment info                         I   N=          13
           0           0           0           0           0           0
           0           0           0           0           0           0
           0
Atom residue num                           I   N=          13
           0           0           0           0           0           0
           0           0           0           0           0           0
           0
Nuclear spins                              I   N=          13
           0           0           1           1           1           0
           0           0           1           1           1           1
           1
Nuclear ZEff                               R   N=          13
 -3.60000000E+00 -3.60000000E+00 -1.00000000E+00 -1.00000000E+00 -1.00000000E+00
 -3.60000000E+00 -5.60000000E+00 -3.60000000E+00 -1.00000000E+00 -1.00000000E+00
 -6.75000000E+00 -6.75000000E+00 -6.75000000E+00
Nuclear ZNuc                               R   N=          13
  6.00000000E+00  6.00000000E+00  1.00000000E+00  1.00000000E+00  1.00000000E+00
  6.00000000E+00  8.00000000E+00  6.00000000E+00  1.00000000E+00  1.00000000E+00
  9.00000000E+00  9.00000000E+00  9.00000000E+00
Nuclear QMom                               R   N=          13
  0.00000000E+00  0.00000000E+00  0.00000000E+00  0.00000000E+00  0.00000000E+00
  0.00000000E+00  0.00000000E+00  0.00000000E+00  0.00000000E+00  0.00000000E+00
  0.00000000E+00  0.00000000E+00  0.00000000E+00
Nuclear GFac                               R   N=          13
  0.00000000E+00  0.00000000E+00  2.79284600E+00  2.79284600E+00  2.79284600E+00
  0.00000000E+00  0.00000000E+00  0.00000000E+00  2.79284600E+00  2.79284600E+00
  2.62886700E+00  2.62886700E+00  2.62886700E+00
MicOpt                                     I   N=          13
          -1          -1          -1          -1          -1          -1
          -1          -1          -1          -1          -1          -1
          -1
Number of contracted shells                I               42
Number of primitive shells                 I              108
Pure/Cartesian d shells                    I                1
Pure/Cartesian f shells                    I                0
Highest angular momentum                   I                1
Largest degree of contraction              I                6
Shell types                                I   N=          42
           0          -1          -1          -1           0          -1
          -1          -1           0           0           0           0
           0           0           0          -1          -1          -1
           0          -1          -1          -1           0          -1
          -1          -1           0           0           0           0
           0          -1          -1          -1           0          -1
          -1          -1           0          -1          -1          -1
Number of primitives per shell             I   N=          42
           6           3           1           1           6           3
           1           1           3           1           3           1
           3           1           6           3           1           1
           6           3           1           1           6           3
           1           1           3           1           3           1
           6           3           1           1           6           3
           1           1           6           3           1           1
Shell to atom map                          I   N=          42
           1           1           1           1           2           2
           2           2           3           3           4           4
           5           5           6           6           6           6
           7           7           7           7           8           8
           8           8           9           9          10          10
          11          11          11          11          12          12
          12          12          13          13          13          13
Primitive exponents                        R   N=         108
  3.04752488E+03  4.57369518E+02  1.03948685E+02  2.92101553E+01  9.28666296E+00
  3.16392696E+00  7.86827235E+00  1.88128854E+00  5.44249258E-01  1.68714478E-01
  4.38000000E-02  3.04752488E+03  4.57369518E+02  1.03948685E+02  2.92101553E+01
  9.28666296E+00  3.16392696E+00  7.86827235E+00  1.88128854E+00  5.44249258E-01
  1.68714478E-01  4.38000000E-02  1.87311370E+01  2.82539436E+00  6.40121692E-01
  1.61277759E-01  1.87311370E+01  2.82539436E+00  6.40121692E-01  1.61277759E-01
  1.87311370E+01  2.82539436E+00  6.40121692E-01  1.61277759E-01  3.04752488E+03
  4.57369518E+02  1.03948685E+02  2.92101553E+01  9.28666296E+00  3.16392696E+00
  7.86827235E+00  1.88128854E+00  5.44249258E-01  1.68714478E-01  4.38000000E-02
  5.48467166E+03  8.25234946E+02  1.88046958E+02  5.29645000E+01  1.68975704E+01
  5.79963534E+00  1.55396162E+01  3.59993359E+00  1.01376175E+00  2.70005823E-01
  8.45000000E-02  3.04752488E+03  4.57369518E+02  1.03948685E+02  2.92101553E+01
  9.28666296E+00  3.16392696E+00  7.86827235E+00  1.88128854E+00  5.44249258E-01
  1.68714478E-01  4.38000000E-02  1.87311370E+01  2.82539436E+00  6.40121692E-01
  1.61277759E-01  1.87311370E+01  2.82539436E+00  6.40121692E-01  1.61277759E-01
  7.00171309E+03  1.05136609E+03  2.39285690E+02  6.73974453E+01  2.15199573E+01
  7.40310130E+00  2.08479528E+01  4.80830834E+00  1.34406986E+00  3.58151393E-01
  1.07600000E-01  7.00171309E+03  1.05136609E+03  2.39285690E+02  6.73974453E+01
  2.15199573E+01  7.40310130E+00  2.08479528E+01  4.80830834E+00  1.34406986E+00
  3.58151393E-01  1.07600000E-01  7.00171309E+03  1.05136609E+03  2.39285690E+02
  6.73974453E+01  2.15199573E+01  7.40310130E+00  2.08479528E+01  4.80830834E+00
  1.34406986E+00  3.58151393E-01  1.07600000E-01
Contraction coefficients                   R   N=         108
  1.83473713E-03  1.40373228E-02  6.88426223E-02  2.32184443E-01  4.67941348E-01
  3.62311985E-01 -1.19332420E-01 -1.60854152E-01  1.14345644E+00  1.00000000E+00
  1.00000000E+00  1.83473713E-03  1.40373228E-02  6.88426223E-02  2.32184443E-01
  4.67941348E-01  3.62311985E-01 -1.19332420E-01 -1.60854152E-01  1.14345644E+00
  1.00000000E+00  1.00000000E+00  3.34946043E-02  2.34726953E-01  8.13757326E-01
  1.00000000E+00  3.34946043E-02  2.34726953E-01  8.13757326E-01  1.00000000E+00
  3.34946043E-02  2.34726953E-01  8.13757326E-01  1.00000000E+00  1.83473713E-03
  1.40373228E-02  6.88426223E-02  2.32184443E-01  4.67941348E-01  3.62311985E-01
 -1.19332420E-01 -1.60854152E-01  1.14345644E+00  1.00000000E+00  1.00000000E+00
  1.83107443E-03  1.39501722E-02  6.84450781E-02  2.32714336E-01  4.70192898E-01
  3.58520853E-01 -1.10777550E-01 -1.48026263E-01  1.13076702E+00  1.00000000E+00
  1.00000000E+00  1.83473713E-03  1.40373228E-02  6.88426223E-02  2.32184443E-01
  4.67941348E-01  3.62311985E-01 -1.19332420E-01 -1.60854152E-01  1.14345644E+00
  1.00000000E+00  1.00000000E+00  3.34946043E-02  2.34726953E-01  8.13757326E-01
  1.00000000E+00  3.34946043E-02  2.34726953E-01  8.13757326E-01  1.00000000E+00
  1.81961690E-03  1.39160796E-02  6.84053245E-02  2.33185760E-01  4.71267439E-01
  3.56618546E-01 -1.08506975E-01 -1.46451658E-01  1.12868858E+00  1.00000000E+00
  1.00000000E+00  1.81961690E-03  1.39160796E-02  6.84053245E-02  2.33185760E-01
  4.71267439E-01  3.56618546E-01 -1.08506975E-01 -1.46451658E-01  1.12868858E+00
  1.00000000E+00  1.00000000E+00  1.81961690E-03  1.39160796E-02  6.84053245E-02
  2.33185760E-01  4.71267439E-01  3.56618546E-01 -1.08506975E-01 -1.46451658E-01
  1.12868858E+00  1.00000000E+00  1.00000000E+00
P(S=P) Contraction coefficients            R   N=         108
  0.00000000E+00  0.00000000E+00  0.00000000E+00  0.00000000E+00  0.00000000E+00
  0.00000000E+00  6.89990666E-02  3.16423961E-01  7.44308291E-01  1.00000000E+00
  1.00000000E+00  0.00000000E+00  0.00000000E+00  0.00000000E+00  0.00000000E+00
  0.00000000E+00  0.00000000E+00  6.89990666E-02  3.16423961E-01  7.44308291E-01
  1.00000000E+00  1.00000000E+00  0.00000000E+00  0.00000000E+00  0.00000000E+00
  0.00000000E+00  0.00000000E+00  0.00000000E+00  0.00000000E+00  0.00000000E+00
  0.00000000E+00  0.00000000E+00  0.00000000E+00  0.00000000E+00  0.00000000E+00
  0.00000000E+00  0.00000000E+00  0.00000000E+00  0.00000000E+00  0.00000000E+00
  6.89990666E-02  3.16423961E-01  7.44308291E-01  1.00000000E+00  1.00000000E+00
  0.00000000E+00  0.00000000E+00  0.00000000E+00  0.00000000E+00  0.00000000E+00
  0.00000000E+00  7.08742682E-02  3.39752839E-01  7.27158577E-01  1.00000000E+00
  1.00000000E+00  0.00000000E+00  0.00000000E+00  0.00000000E+00  0.00000000E+00
  0.00000000E+00  0.00000000E+00  6.89990666E-02  3.16423961E-01  7.44308291E-01
  1.00000000E+00  1.00000000E+00  0.00000000E+00  0.00000000E+00  0.00000000E+00
  0.00000000E+00  0.00000000E+00  0.00000000E+00  0.00000000E+00  0.00000000E+00
  0.00000000E+00  0.00000000E+00  0.00000000E+00  0.00000000E+00  0.00000000E+00
  0.00000000E+00  7.16287242E-02  3.45912103E-01  7.22469956E-01  1.00000000E+00
  1.00000000E+00  0.00000000E+00  0.00000000E+00  0.00000000E+00  0.00000000E+00
  0.00000000E+00  0.00000000E+00  7.16287242E-02  3.45912103E-01  7.22469956E-01
  1.00000000E+00  1.00000000E+00  0.00000000E+00  0.00000000E+00  0.00000000E+00
  0.00000000E+00  0.00000000E+00  0.00000000E+00  7.16287242E-02  3.45912103E-01
  7.22469956E-01  1.00000000E+00  1.00000000E+00
Coordinates of each shell                  R   N=         126
  5.22412174E+00 -1.25636875E+00  1.22456143E-01  5.22412174E+00 -1.25636875E+00
  1.22456143E-01  5.22412174E+00 -1.25636875E+00  1.22456143E-01  5.22412174E+00
 -1.25636875E+00  1.22456143E-01  2.79552676E+00  1.96261470E-01 -1.57964097E-01
  2.79552676E+00  1.96261470E-01 -1.57964097E-01  2.79552676E+00  1.96261470E-01
 -1.57964097E-01  2.79552676E+00  1.96261470E-01 -1.57964097E-01  5.25833160E+00
 -2.19921926E+00  1.96862409E+00  5.25833160E+00 -2.19921926E+00  1.96862409E+00
  6.82601594E+00  3.46640350E-02  3.91173310E-03  6.82601594E+00  3.46640350E-02
  3.91173310E-03  5.39520643E+00 -2.72355588E+00 -1.32806551E+00  5.39520643E+00
 -2.72355588E+00 -1.32806551E+00  4.48876428E-01 -1.41654266E+00 -5.98351544E-01
  4.48876428E-01 -1.41654266E+00 -5.98351544E-01  4.48876428E-01 -1.41654266E+00
 -5.98351544E-01  4.48876428E-01 -1.41654266E+00 -5.98351544E-01  2.70185458E+00
  2.51793741E+00 -4.66063156E-02  2.70185458E+00  2.51793741E+00 -4.66063156E-02
  2.70185458E+00  2.51793741E+00 -4.66063156E-02  2.70185458E+00  2.51793741E+00
 -4.66063156E-02 -2.03017611E+00 -1.63569566E-01 -6.38727433E-04 -2.03017611E+00
 -1.63569566E-01 -6.38727433E-04 -2.03017611E+00 -1.63569566E-01 -6.38727433E-04
 -2.03017611E+00 -1.63569566E-01 -6.38727433E-04  5.66376079E-01 -3.14365973E+00
  5.32940564E-01  5.66376079E-01 -3.14365973E+00  5.32940564E-01  4.07408365E-01
 -1.99679630E+00 -2.58711444E+00  4.07408365E-01 -1.99679630E+00 -2.58711444E+00
 -2.13314931E+00  7.37062555E-01  2.45959384E+00 -2.13314931E+00  7.37062555E-01
  2.45959384E+00 -2.13314931E+00  7.37062555E-01  2.45959384E+00 -2.13314931E+00
  7.37062555E-01  2.45959384E+00 -3.99762641E+00 -1.91707887E+00 -2.35749004E-01
 -3.99762641E+00 -1.91707887E+00 -2.35749004E-01 -3.99762641E+00 -1.91707887E+00
 -2.35749004E-01 -3.99762641E+00 -1.91707887E+00 -2.35749004E-01 -2.61347628E+00
  1.81628130E+00 -1.60278445E+00 -2.61347628E+00  1.81628130E+00 -1.60278445E+00
 -2.61347628E+00  1.81628130E+00 -1.60278445E+00 -2.61347628E+00  1.81628130E+00
 -1.60278445E+00
Constraint Structure                       R   N=          39
  5.22412174E+00 -1.25636875E+00  1.22456143E-01  2.79552676E+00  1.96261470E-01
 -1.57964097E-01  5.25833160E+00 -2.19921926E+00  1.96862409E+00  6.82601594E+00
  3.46640350E-02  3.91173310E-03  5.39520643E+00 -2.72355588E+00 -1.32806551E+00
  4.48876428E-01 -1.41654266E+00 -5.98351544E-01  2.70185458E+00  2.51793741E+00
 -4.66063156E-02 -2.03017611E+00 -1.63569566E-01 -6.38727433E-04  5.66376079E-01
 -3.14365973E+00  5.32940564E-01  4.07408365E-01 -1.99679630E+00 -2.58711444E+00
 -2.13314931E+00  7.37062555E-01  2.45959384E+00 -3.99762641E+00 -1.91707887E+00
 -2.35749004E-01 -2.61347628E+00  1.81628130E+00 -1.60278445E+00
Num ILSW                                   I              100
ILSW                                       I   N=         100
           0           1           0           0           2           0
           0           0           0           0        4639          -1
           0           0           0           0           2           0
           0           0           0           0           1           0
           1           0           0           0           0           0
           0           0      100000           0          -1           0
           0           0           0           0           0           0
           0           0           0           1           0           0
           0           0           1           0           0           0
           0           0         121          41           0           0
           0           0          58           0           0           0
           0           0           0          13           0           0
           0           0           0           0           0           0
           0           0           0           0           0           0
           0           0           0           0           0           0
           0           0           0           0           0           0
           0           0           0           0
Num RLSW                                   I               41
RLSW                                       R   N=          41
  1.00000000E+00  1.00000000E+00  1.00000000E+00  1.00000000E+00  1.00000000E+00
  0.00000000E+00  2.00000000E-01  2.22036000E-01  0.00000000E+00  7.77964000E-01
  0.00000000E+00  2.00000000E-01  0.00000000E+00  0.00000000E+00  1.00000000E+00
  0.00000000E+00  0.00000000E+00  1.00000000E+00  0.00000000E+00  0.00000000E+00
  0.00000000E+00  0.00000000E+00  1.00000000E+00  0.00000000E+00  0.00000000E+00
  0.00000000E+00  0.00000000E+00  1.00000000E+00  0.00000000E+00  0.00000000E+00
  0.00000000E+00  0.00000000E+00  1.00000000E+00  0.00000000E+00  0.00000000E+00
  0.00000000E+00  0.00000000E+00  0.00000000E+00  1.00000000E+00  1.00000000E+00
  0.00000000E+00
MxBond                                     I                4
NBond                                      I   N=          13
           4           3           1           1           1           4
           1           4           1           1           1           1
           1
IBond                                      I   N=          52
           2           3           4           5           1           6
           7           0           1           0           0           0
           1           0           0           0           1           0
           0           0           2           8           9          10
           2           0           0           0           6          11
          12          13           6           0           0           0
           6           0           0           0           8           0
           0           0           8           0           0           0
           8           0           0           0
RBond                                      R   N=          52
  1.00000000E+00  1.00000000E+00  1.00000000E+00  1.00000000E+00  1.00000000E+00
  1.00000000E+00  2.00000000E+00  0.00000000E+00  1.00000000E+00  0.00000000E+00
  0.00000000E+00  0.00000000E+00  1.00000000E+00  0.00000000E+00  0.00000000E+00
  0.00000000E+00  1.00000000E+00  0.00000000E+00  0.00000000E+00  0.00000000E+00
  1.00000000E+00  1.00000000E+00  1.00000000E+00  1.00000000E+00  2.00000000E+00
  0.00000000E+00  0.00000000E+00  0.00000000E+00  1.00000000E+00  1.00000000E+00
  1.00000000E+00  1.00000000E+00  1.00000000E+00  0.00000000E+00  0.00000000E+00
  0.00000000E+00  1.00000000E+00  0.00000000E+00  0.00000000E+00  0.00000000E+00
  1.00000000E+00  0.00000000E+00  0.00000000E+00  0.00000000E+00  1.00000000E+00
  0.00000000E+00  0.00000000E+00  0.00000000E+00  1.00000000E+00  0.00000000E+00
  0.00000000E+00  0.00000000E+00
Virial Ratio                               R      2.005196093436274E+00
SCF Energy                                 R     -5.299245973157758E+02
Total Energy                               R     -5.299245973157758E+02
RMS Force                                  R      2.110150604690728E-04
RMS Density                                R      7.385568509040680E-09
External E-field                           R   N=          35
  0.00000000E+00  0.00000000E+00  0.00000000E+00  0.00000000E+00  0.00000000E+00
  0.00000000E+00  0.00000000E+00  0.00000000E+00  0.00000000E+00  0.00000000E+00
  0.00000000E+00  0.00000000E+00  0.00000000E+00  0.00000000E+00  0.00000000E+00
  0.00000000E+00  0.00000000E+00  0.00000000E+00  0.00000000E+00  0.00000000E+00
  0.00000000E+00  0.00000000E+00  0.00000000E+00  0.00000000E+00  0.00000000E+00
  0.00000000E+00  0.00000000E+00  0.00000000E+00  0.00000000E+00  0.00000000E+00
  0.00000000E+00  0.00000000E+00  0.00000000E+00  0.00000000E+00  0.00000000E+00
IOpCl                                      I                0
IROHF                                      I                0
Alpha Orbital Energies                     R   N=         114
 -2.48793194E+01 -2.48783690E+01 -2.48779423E+01 -1.93027555E+01 -1.05850279E+01
 -1.04389147E+01 -1.03650098E+01 -1.03276544E+01 -1.42773127E+00 -1.34389166E+00
 -1.34061220E+00 -1.19563004E+00 -9.49482043E-01 -8.79532633E-01 -7.91475089E-01
 -7.04266349E-01 -6.92306438E-01 -6.84627216E-01 -6.33125479E-01 -5.95166825E-01
 -5.90483478E-01 -5.61345531E-01 -5.60094575E-01 -5.51752220E-01 -5.38318787E-01
 -5.28828356E-01 -5.17454600E-01 -5.12911120E-01 -5.05736190E-01 -4.91094910E-01
 -4.64861036E-01 -3.68471421E-01  1.59301425E-02  5.25244427E-02  7.88426146E-02
  9.13701239E-02  9.73123510E-02  1.02478840E-01  1.18145258E-01  1.20730589E-01
  1.23671170E-01  1.31803183E-01  1.44494103E-01  1.51276000E-01  1.62262161E-01
  1.72088141E-01  1.81106769E-01  1.87375136E-01  1.94283403E-01  2.10781842E-01
  2.26485845E-01  2.40161859E-01  2.43927616E-01  2.71712276E-01  2.85640281E-01
  3.00869272E-01  3.17287103E-01  3.27983879E-01  3.38326894E-01  3.54383149E-01
  3.58125419E-01  3.65563354E-01  3.76369071E-01  3.86797513E-01  4.00069425E-01
  4.09879624E-01  4.27930780E-01  4.35929878E-01  4.47320473E-01  4.51844880E-01
  4.55059077E-01  4.70734836E-01  4.78515561E-01  5.16796697E-01  5.25458236E-01
  5.32695428E-01  5.72533752E-01  6.90378305E-01  7.12809718E-01  7.35993088E-01
  7.52420618E-01  7.86796156E-01  8.35945280E-01  8.47909467E-01  8.64709380E-01
  8.82442151E-01  9.13584669E-01  9.44527979E-01  1.07582835E+00  1.09369982E+00
  1.14537051E+00  1.15628302E+00  1.18163342E+00  1.21307597E+00  1.23206024E+00
  1.34838114E+00  1.39129956E+00  1.44736079E+00  1.46491319E+00  1.52653707E+00
  1.57503452E+00  1.59709907E+00  1.66287577E+00  1.68316448E+00  1.69165021E+00
  1.74382048E+00  1.79760368E+00  1.82082200E+00  1.84235352E+00  1.85830265E+00
  1.99041780E+00  2.30334672E+00  2.33234400E+00  2.70327684E+00
Alpha MO coefficients                      R   N=       12996
  4.11473680E-06 -9.81382165E-06  8.68073339E-05 -1.72183698E-05 -2.63708569E-05
 -6.03120144E-04  1.55784567E-04 -9.08833740E-05  1.63176595E-04  1.34437363E-02
 -2.96787117E-03  1.47514608E-03 -5.25597294E-04 -1.22830408E-07  7.74039610E-05
 -2.05564642E-04  5.86524108E-05  1.77005399E-05  1.03787485E-03  3.85713416E-04
 -9.79156628E-04  1.73818823E-04 -6.54707919E-03 -6.05486977E-03  2.54921803E-03
 -3.32675134E-04  1.60202471E-05 -2.20956397E-04  3.09867778E-05 -4.60115278E-05
  6.29921360E-05 -1.15483254E-04  7.57093921E-05  3.76659768E-04  2.38500111E-04
 -1.38805836E-04  2.76094232E-05 -2.64604013E-03  1.35545032E-04 -2.52469721E-04
 -1.85770820E-03  1.18528243E-02 -5.14028987E-03  1.18572068E-03  7.02853311E-04
 -3.93477777E-06 -7.86126924E-06 -8.26809364E-05 -2.88937443E-05  5.57086205E-05
  5.80677170E-04  1.50048982E-04  3.66697909E-05 -2.05202129E-04 -8.05075787E-04
  2.38713493E-04  1.50320638E-04 -1.52282455E-04 -1.78134635E-04 -8.32257912E-04
 -1.71673962E-04  2.85173834E-04  7.05064594E-04  6.78168801E-03 -3.30980620E-04
  7.05293854E-04  1.60443924E-03 -2.19543893E-02 -5.67926906E-03  1.35989540E-03
  3.22735528E-04  2.73158784E-04  8.15489077E-04 -9.68503484E-05 -9.05645141E-05
  9.94973472E-01  2.79440059E-02  7.88180474E-05 -5.22114335E-04 -1.37180246E-03
 -1.65683906E-02 -1.59175419E-04  9.79106378E-04  2.74351919E-03  1.00257734E-02
  4.57563176E-04 -9.28960795E-04 -2.40395857E-03  7.27801907E-03  4.92072224E-04
  2.64745587E-05  2.73857780E-05  2.66034171E-05 -1.33888856E-03 -5.49537166E-04
 -6.56619811E-04 -4.64802779E-04 -9.04104277E-04 -2.52360029E-04 -6.63223889E-04
 -7.31031417E-04  8.96638173E-03  6.33219440E-04  1.90993868E-05 -1.83821185E-05
  4.20166949E-05 -1.67546855E-03 -1.90583261E-04  4.20392284E-04 -8.52367359E-04
 -2.71359272E-04  4.91052753E-05  1.52230265E-04 -1.13486705E-03 -6.78208673E-06
 -2.39205346E-05 -1.12129737E-04 -1.17753620E-05  1.03550896E-07  1.25615393E-03
 -1.50701724E-04  3.72292683E-04 -2.15547231E-04 -3.67763052E-03  6.87965104E-04
 -6.79714818E-04 -2.12189089E-05  2.80297225E-06  1.58268857E-05  1.53375363E-04
 -1.42916195E-05 -1.35419799E-05 -5.19224373E-04 -1.02185226E-03  1.74064173E-03
  2.33893055E-04 -5.29745905E-03  4.02016528E-03  2.20917186E-04  5.37442869E-04
 -7.91208878E-07  6.75675479E-05 -6.16799339E-05 -2.03573793E-04  9.47895142E-06
 -1.87164179E-04  7.44612209E-05  2.97082295E-04  9.07373500E-05 -7.39079605E-05
 -6.34773017E-05 -2.64051859E-03  2.93181237E-03 -1.89467950E-04  3.85906715E-05
  2.09951189E-02 -1.28252220E-03  3.32645756E-03  1.24704471E-03  1.26283259E-05
  1.72070082E-04 -8.20580105E-06 -2.37426180E-05  1.34881166E-06 -1.15246575E-03
  1.79640822E-04  4.24561236E-04  2.47002973E-07  8.11430573E-05 -3.40598297E-04
  8.77976411E-05 -1.91874603E-05 -2.23184332E-04 -1.11319297E-03 -5.45416822E-04
 -3.90157552E-04 -4.63448861E-05  9.43161466E-03 -1.58666258E-03 -1.39219710E-03
 -4.06707848E-04 -1.39629523E-02 -2.35605982E-03  2.58823453E-03  8.09484042E-04
  2.26021335E-04 -6.26451890E-04  2.96913345E-04 -3.74007433E-04 -7.39880500E-03
  7.99279068E-05 -2.08503595E-05 -2.71640188E-05 -1.13588647E-05 -1.07811806E-03
  3.56071753E-04  5.79174654E-04  7.58056679E-04 -1.93993624E-03  3.81560905E-04
  8.15441205E-04  1.01635461E-03  9.94838675E-01  2.79268296E-02  1.08641954E-03
  9.41460937E-04  1.18178619E-04 -1.65980574E-02 -2.26300435E-03 -2.04434651E-03
 -2.39405723E-04  8.62244738E-03  1.62927286E-03  1.33164794E-03  2.24865077E-04
  1.86667499E-02  8.33278318E-04 -1.32585063E-05 -6.52796101E-05  2.16110429E-05
 -1.65433788E-03  1.89557375E-04  1.00817235E-03 -4.64284413E-04 -1.61535684E-03
  3.33487179E-04  1.08795526E-03 -3.94948311E-04  2.77351585E-05  2.63956048E-04
 -9.40093499E-06 -1.72856404E-05 -6.40954523E-06 -1.08637530E-03  3.37330432E-04
 -9.25959671E-05  1.94072994E-04  2.15161022E-03 -1.23458238E-04  2.48121952E-04
 -1.57656519E-04 -2.54213350E-05 -1.16308339E-04 -1.46448897E-04  6.91587801E-05
  2.72337441E-05  2.87376732E-03 -2.13835637E-04  2.45746008E-04 -4.52362191E-04
  1.12403327E-02 -4.97599902E-03 -3.20718491E-04 -5.24281941E-04  3.89275361E-05
  8.63418836E-05  2.57080142E-05  1.73987947E-04  7.18819026E-05  1.97648590E-04
  9.09142429E-05  4.99407249E-04  1.63473886E-04 -6.57999193E-05 -1.15890980E-04
 -3.38123924E-03  7.05332608E-04 -1.76358610E-03  1.05649197E-03 -5.52072415E-04
 -4.59617668E-03 -1.09962300E-03 -8.76364574E-05  8.19460566E-06  1.55559946E-04
 -9.24860751E-05 -4.99450627E-05 -2.45503809E-05 -4.52019990E-04  2.41635705E-04
  5.68030879E-04  1.51324092E-04 -2.54987138E-03  5.13315710E-04  4.65460802E-04
  3.75097021E-04 -1.74476179E-04 -8.14737084E-04 -2.71634680E-04  6.00351704E-04
 -4.47681454E-04  7.03134205E-03 -2.62659579E-04  1.18149533E-03 -8.16230782E-04
 -1.52698105E-02 -4.09588767E-03  5.06440673E-04  1.45432977E-03 -9.75908465E-05
  3.79596409E-06  2.96419234E-04  6.73165351E-04 -8.77631113E-03  1.30589651E-04
  7.36498488E-06  1.30450747E-05 -2.95384678E-05 -1.38471464E-03  1.24673177E-05
 -5.73052601E-05  9.55221772E-04 -6.83127626E-04  3.59986328E-04 -4.57127210E-04
  1.06376032E-03 -1.86841070E-02 -2.16692575E-04  3.14726445E-06  1.53411817E-05
 -1.37161650E-05 -9.90689738E-04 -4.81402233E-04 -7.89607551E-04  1.79018839E-04
 -1.12378926E-03 -5.68562928E-05 -8.88515818E-04  3.43676939E-04  9.94825465E-01
  2.79576987E-02  3.40185664E-04 -1.13175554E-03  8.96700241E-04 -1.66270648E-02
 -7.33321505E-04  2.16067399E-03 -1.80040761E-03  1.03857363E-02  1.09526613E-03
 -2.04126692E-03  1.65211902E-03 -9.47594950E-06 -2.39710794E-04  9.02674777E-06
 -1.27743806E-04  3.15921190E-06  2.56327534E-03 -1.75909447E-03 -1.09450728E-03
 -4.07651132E-04  5.54789951E-03 -1.21896802E-03  1.09703766E-03 -9.71739760E-05
  2.50216988E-04  5.26325485E-04  1.06930913E-04 -1.22227614E-04 -7.95564739E-06
  6.00792110E-03 -1.23599498E-03  1.02594277E-02  3.40016684E-04 -2.11114753E-02
  2.62903655E-03 -3.21040007E-04  1.46763570E-04 -4.09338776E-05 -1.95523751E-04
  1.29752424E-04  1.10345019E-04 -1.36394940E-04 -4.88586179E-04  3.91092405E-05
  7.92915743E-05 -1.60976197E-04 -1.48953061E-04 -1.14385183E-04 -6.69804145E-04
  3.47091266E-03 -1.96112209E-03  7.73764499E-04  1.08863700E-02  1.26760017E-03
  2.97578225E-03  4.34024942E-04  9.95244666E-01  2.98776979E-02  2.29634329E-05
 -2.28158689E-03 -1.13788241E-04 -2.38750613E-02  1.56749232E-04  5.88933491E-03
  3.11265125E-04  7.84566280E-03 -5.55164015E-04 -6.91631300E-04  5.07347555E-06
 -5.92740641E-05 -4.09623670E-04  1.86612331E-05  2.58192038E-05  6.03055721E-05
  4.39569754E-03  2.14660733E-04 -1.27427693E-03 -1.31996289E-03  2.08329616E-03
  9.82081200E-04 -1.09914087E-04  1.70230707E-04 -1.31749677E-04 -8.45543546E-04
  2.04804282E-04 -8.21690260E-05 -3.01563470E-06  1.00982043E-06  7.81906204E-05
  6.83920125E-06 -4.00408503E-05  3.29671861E-04 -2.16132264E-04  7.91452233E-06
  1.59240425E-04 -1.25706601E-03 -2.66558614E-04  1.73456634E-04  2.76793290E-04
  8.71265571E-06  1.63470017E-04  2.55417840E-05  3.71266364E-05 -2.55981470E-05
 -7.57371059E-04 -3.69818429E-04 -3.31671144E-04  1.38254967E-04 -1.24749307E-03
 -3.24861495E-04 -2.02758675E-04  2.10763029E-05  6.17290951E-06  1.74023118E-04
  4.66891602E-05 -3.69472116E-05  1.32362748E-05 -5.46472655E-04 -1.94992904E-04
  3.57043167E-04 -1.26225907E-04 -9.47572808E-04 -2.32922730E-04  1.29357462E-04