L.pdb                                                                   
FOpt      RwB97XD                                                     6-31+G              
Number of atoms                            I                8
Info1-9                                    I   N=           9
          19          19           0           0           0         110
           2          18        -802
Charge                                     I                0
Multiplicity                               I                1
Number of electrons                        I               30
Number of alpha electrons                  I               15
Number of beta electrons                   I               15
Number of basis functions                  I               60
Number of independent functions            I               60
Number of point charges in /Mol/           I                0
Number of translation vectors              I                0
Atomic numbers                             I   N=           8
           6           6           6           8           1           1
           1           1
Nuclear charges                            R   N=           8
  6.00000000E+00  6.00000000E+00  6.00000000E+00  8.00000000E+00  1.00000000E+00
  1.00000000E+00  1.00000000E+00  1.00000000E+00
Current cartesian coordinates              R   N=          24
 -2.85126550E+00 -8.50966109E-01  1.26625563E-01 -1.24244882E+00  1.06852404E+00
 -2.37573228E-01  1.49186686E+00  8.34867223E-01  2.70328066E-01  2.77030615E+00
 -1.05509079E+00 -2.36270943E-01  2.41290025E+00  2.50835237E+00  1.09621677E+00
 -4.87068146E+00 -6.29919258E-01 -1.45870494E-01 -2.17150028E+00 -2.70033237E+00
  7.03179125E-01 -1.92208297E+00  2.94807468E+00 -7.19640253E-01
Force Field                                I                0
Int Atom Types                             I   N=           8
           0           0           0           0           0           0
           0           0
MM charges                                 R   N=           8
  0.00000000E+00  0.00000000E+00  0.00000000E+00  0.00000000E+00  0.00000000E+00
  0.00000000E+00  0.00000000E+00  0.00000000E+00
Integer atomic weights                     I   N=           8
          12          12          12          16           1           1
           1           1
Real atomic weights                        R   N=           8
  1.20000000E+01  1.20000000E+01  1.20000000E+01  1.59949146E+01  1.00782504E+00
  1.00782504E+00  1.00782504E+00  1.00782504E+00
Atom fragment info                         I   N=           8
           0           0           0           0           0           0
           0           0
Atom residue num                           I   N=           8
           0           0           0           0           0           0
           0           0
Nuclear spins                              I   N=           8
           0           0           0           0           1           1
           1           1
Nuclear ZEff                               R   N=           8
 -3.60000000E+00 -3.60000000E+00 -3.60000000E+00 -5.60000000E+00 -1.00000000E+00
 -1.00000000E+00 -1.00000000E+00 -1.00000000E+00
Nuclear ZNuc                               R   N=           8
  6.00000000E+00  6.00000000E+00  6.00000000E+00  8.00000000E+00  1.00000000E+00
  1.00000000E+00  1.00000000E+00  1.00000000E+00
Nuclear QMom                               R   N=           8
  0.00000000E+00  0.00000000E+00  0.00000000E+00  0.00000000E+00  0.00000000E+00
  0.00000000E+00  0.00000000E+00  0.00000000E+00
Nuclear GFac                               R   N=           8
  0.00000000E+00  0.00000000E+00  0.00000000E+00  0.00000000E+00  2.79284600E+00
  2.79284600E+00  2.79284600E+00  2.79284600E+00
MicOpt                                     I   N=           8
          -1          -1          -1          -1          -1          -1
          -1          -1
Number of contracted shells                I               24
Number of primitive shells                 I               60
Pure/Cartesian d shells                    I                1
Pure/Cartesian f shells                    I                0
Highest angular momentum                   I                1
Largest degree of contraction              I                6
Shell types                                I   N=          24
           0          -1          -1          -1           0          -1
          -1          -1           0          -1          -1          -1
           0          -1          -1          -1           0           0
           0           0           0           0           0           0
Number of primitives per shell             I   N=          24
           6           3           1           1           6           3
           1           1           6           3           1           1
           6           3           1           1           3           1
           3           1           3           1           3           1
Shell to atom map                          I   N=          24
           1           1           1           1           2           2
           2           2           3           3           3           3
           4           4           4           4           5           5
           6           6           7           7           8           8
Primitive exponents                        R   N=          60
  3.04752488E+03  4.57369518E+02  1.03948685E+02  2.92101553E+01  9.28666296E+00
  3.16392696E+00  7.86827235E+00  1.88128854E+00  5.44249258E-01  1.68714478E-01
  4.38000000E-02  3.04752488E+03  4.57369518E+02  1.03948685E+02  2.92101553E+01
  9.28666296E+00  3.16392696E+00  7.86827235E+00  1.88128854E+00  5.44249258E-01
  1.68714478E-01  4.38000000E-02  3.04752488E+03  4.57369518E+02  1.03948685E+02
  2.92101553E+01  9.28666296E+00  3.16392696E+00  7.86827235E+00  1.88128854E+00
  5.44249258E-01  1.68714478E-01  4.38000000E-02  5.48467166E+03  8.25234946E+02
  1.88046958E+02  5.29645000E+01  1.68975704E+01  5.79963534E+00  1.55396162E+01
  3.59993359E+00  1.01376175E+00  2.70005823E-01  8.45000000E-02  1.87311370E+01
  2.82539436E+00  6.40121692E-01  1.61277759E-01  1.87311370E+01  2.82539436E+00
  6.40121692E-01  1.61277759E-01  1.87311370E+01  2.82539436E+00  6.40121692E-01
  1.61277759E-01  1.87311370E+01  2.82539436E+00  6.40121692E-01  1.61277759E-01
Contraction coefficients                   R   N=          60
  1.83473713E-03  1.40373228E-02  6.88426223E-02  2.32184443E-01  4.67941348E-01
  3.62311985E-01 -1.19332420E-01 -1.60854152E-01  1.14345644E+00  1.00000000E+00
  1.00000000E+00  1.83473713E-03  1.40373228E-02  6.88426223E-02  2.32184443E-01
  4.67941348E-01  3.62311985E-01 -1.19332420E-01 -1.60854152E-01  1.14345644E+00
  1.00000000E+00  1.00000000E+00  1.83473713E-03  1.40373228E-02  6.88426223E-02
  2.32184443E-01  4.67941348E-01  3.62311985E-01 -1.19332420E-01 -1.60854152E-01
  1.14345644E+00  1.00000000E+00  1.00000000E+00  1.83107443E-03  1.39501722E-02
  6.84450781E-02  2.32714336E-01  4.70192898E-01  3.58520853E-01 -1.10777550E-01
 -1.48026263E-01  1.13076702E+00  1.00000000E+00  1.00000000E+00  3.34946043E-02
  2.34726953E-01  8.13757326E-01  1.00000000E+00  3.34946043E-02  2.34726953E-01
  8.13757326E-01  1.00000000E+00  3.34946043E-02  2.34726953E-01  8.13757326E-01
  1.00000000E+00  3.34946043E-02  2.34726953E-01  8.13757326E-01  1.00000000E+00
P(S=P) Contraction coefficients            R   N=          60
  0.00000000E+00  0.00000000E+00  0.00000000E+00  0.00000000E+00  0.00000000E+00
  0.00000000E+00  6.89990666E-02  3.16423961E-01  7.44308291E-01  1.00000000E+00
  1.00000000E+00  0.00000000E+00  0.00000000E+00  0.00000000E+00  0.00000000E+00
  0.00000000E+00  0.00000000E+00  6.89990666E-02  3.16423961E-01  7.44308291E-01
  1.00000000E+00  1.00000000E+00  0.00000000E+00  0.00000000E+00  0.00000000E+00
  0.00000000E+00  0.00000000E+00  0.00000000E+00  6.89990666E-02  3.16423961E-01
  7.44308291E-01  1.00000000E+00  1.00000000E+00  0.00000000E+00  0.00000000E+00
  0.00000000E+00  0.00000000E+00  0.00000000E+00  0.00000000E+00  7.08742682E-02
  3.39752839E-01  7.27158577E-01  1.00000000E+00  1.00000000E+00  0.00000000E+00
  0.00000000E+00  0.00000000E+00  0.00000000E+00  0.00000000E+00  0.00000000E+00
  0.00000000E+00  0.00000000E+00  0.00000000E+00  0.00000000E+00  0.00000000E+00
  0.00000000E+00  0.00000000E+00  0.00000000E+00  0.00000000E+00  0.00000000E+00
Coordinates of each shell                  R   N=          72
 -2.85126550E+00 -8.50966109E-01  1.26625563E-01 -2.85126550E+00 -8.50966109E-01
  1.26625563E-01 -2.85126550E+00 -8.50966109E-01  1.26625563E-01 -2.85126550E+00
 -8.50966109E-01  1.26625563E-01 -1.24244882E+00  1.06852404E+00 -2.37573228E-01
 -1.24244882E+00  1.06852404E+00 -2.37573228E-01 -1.24244882E+00  1.06852404E+00
 -2.37573228E-01 -1.24244882E+00  1.06852404E+00 -2.37573228E-01  1.49186686E+00
  8.34867223E-01  2.70328066E-01  1.49186686E+00  8.34867223E-01  2.70328066E-01
  1.49186686E+00  8.34867223E-01  2.70328066E-01  1.49186686E+00  8.34867223E-01
  2.70328066E-01  2.77030615E+00 -1.05509079E+00 -2.36270943E-01  2.77030615E+00
 -1.05509079E+00 -2.36270943E-01  2.77030615E+00 -1.05509079E+00 -2.36270943E-01
  2.77030615E+00 -1.05509079E+00 -2.36270943E-01  2.41290025E+00  2.50835237E+00
  1.09621677E+00  2.41290025E+00  2.50835237E+00  1.09621677E+00 -4.87068146E+00
 -6.29919258E-01 -1.45870494E-01 -4.87068146E+00 -6.29919258E-01 -1.45870494E-01
 -2.17150028E+00 -2.70033237E+00  7.03179125E-01 -2.17150028E+00 -2.70033237E+00
  7.03179125E-01 -1.92208297E+00  2.94807468E+00 -7.19640253E-01 -1.92208297E+00
  2.94807468E+00 -7.19640253E-01
Constraint Structure                       R   N=          24
 -2.87309579E+00 -8.50193886E-01  1.23788463E-01 -1.24250615E+00  1.06443905E+00
 -2.39141000E-01  1.49243593E+00  8.35353565E-01  2.68424322E-01  2.79459164E+00
 -1.05654937E+00 -2.30884786E-01  2.40498635E+00  2.52692880E+00  1.07997288E+00
 -4.89360234E+00 -6.16315969E-01 -1.43006852E-01 -2.21131535E+00 -2.70893221E+00
  6.94221194E-01 -1.91780570E+00  2.95312196E+00 -7.02539642E-01
Num ILSW                                   I              100
ILSW                                       I   N=         100
           0           1           0           0           2           0
           0           0           0           0        4639          -1
           0           0           0           0           2           0
           0           0           0           0           1           0
           1           0           0           0           0           0
           0           0      100000           0          -1           0
           0           0           0           0           0           0
           0           0           0           1           0           0
           0           0           1           0           0           0
           0           0         121          41           0           0
           0           0          58           0           0           0
           0           0           0           8           0           0
           0           0           0           0           0           0
           0           0           0           0           0           0
           0           0           0           0           0           0
           0           0           0           0           0           0
           0           0           0           0
Num RLSW                                   I               41
RLSW                                       R   N=          41
  1.00000000E+00  1.00000000E+00  1.00000000E+00  1.00000000E+00  1.00000000E+00
  0.00000000E+00  2.00000000E-01  2.22036000E-01  0.00000000E+00  7.77964000E-01
  0.00000000E+00  2.00000000E-01  0.00000000E+00  0.00000000E+00  1.00000000E+00
  0.00000000E+00  0.00000000E+00  1.00000000E+00  0.00000000E+00  0.00000000E+00
  0.00000000E+00  0.00000000E+00  1.00000000E+00  0.00000000E+00  0.00000000E+00
  0.00000000E+00  0.00000000E+00  1.00000000E+00  0.00000000E+00  0.00000000E+00
  0.00000000E+00  0.00000000E+00  1.00000000E+00  0.00000000E+00  0.00000000E+00
  0.00000000E+00  0.00000000E+00  0.00000000E+00  1.00000000E+00  1.00000000E+00
  0.00000000E+00
MxBond                                     I                3
NBond                                      I   N=           8
           3           3           3           1           1           1
           1           1
IBond                                      I   N=          24
           2           6           7           1           3           8
           2           4           5           3           0           0
           3           0           0           1           0           0
           1           0           0           2           0           0
RBond                                      R   N=          24
  2.00000000E+00  1.00000000E+00  1.00000000E+00  2.00000000E+00  1.00000000E+00
  1.00000000E+00  1.00000000E+00  2.00000000E+00  1.00000000E+00  2.00000000E+00
  0.00000000E+00  0.00000000E+00  1.00000000E+00  0.00000000E+00  0.00000000E+00
  1.00000000E+00  0.00000000E+00  0.00000000E+00  1.00000000E+00  0.00000000E+00
  0.00000000E+00  1.00000000E+00  0.00000000E+00  0.00000000E+00
Virial Ratio                               R      2.005797688746930E+00
SCF Energy                                 R     -1.917900763872131E+02
Total Energy                               R     -1.917900763872131E+02
RMS Force                                  R      2.747319110567675E-03
RMS Density                                R      2.973287606916232E-09
External E-field                           R   N=          35
  0.00000000E+00  0.00000000E+00  0.00000000E+00  0.00000000E+00  0.00000000E+00
  0.00000000E+00  0.00000000E+00  0.00000000E+00  0.00000000E+00  0.00000000E+00
  0.00000000E+00  0.00000000E+00  0.00000000E+00  0.00000000E+00  0.00000000E+00
  0.00000000E+00  0.00000000E+00  0.00000000E+00  0.00000000E+00  0.00000000E+00
  0.00000000E+00  0.00000000E+00  0.00000000E+00  0.00000000E+00  0.00000000E+00
  0.00000000E+00  0.00000000E+00  0.00000000E+00  0.00000000E+00  0.00000000E+00
  0.00000000E+00  0.00000000E+00  0.00000000E+00  0.00000000E+00  0.00000000E+00
IOpCl                                      I                0
IROHF                                      I                0
Alpha Orbital Energies                     R   N=          60
 -1.92889850E+01 -1.04062563E+01 -1.03309895E+01 -1.03296058E+01 -1.17159378E+00
 -9.11004229E-01 -7.69467724E-01 -6.53924024E-01 -6.14268418E-01 -5.46374294E-01
 -5.33743092E-01 -4.87172586E-01 -4.77017232E-01 -3.78022723E-01 -3.52238027E-01
 -6.67333690E-03  6.70309375E-02  8.01726171E-02  8.80402947E-02  1.00362869E-01
  1.14231406E-01  1.25638408E-01  1.34056323E-01  1.48562820E-01  1.62349512E-01
  1.75745771E-01  1.76872905E-01  2.01045312E-01  2.23561553E-01  2.65264825E-01
  2.81949703E-01  3.04309220E-01  3.18379636E-01  3.26972698E-01  3.53983816E-01
  3.72525404E-01  3.78494304E-01  4.24078476E-01  4.61823992E-01  5.25124005E-01
  7.09063900E-01  7.26772688E-01  7.66767238E-01  7.84251961E-01  8.07266147E-01
  8.36424878E-01  8.91344141E-01  9.61480936E-01  1.02113467E+00  1.04770854E+00
  1.11113671E+00  1.13311589E+00  1.17916429E+00  1.23514081E+00  1.27621633E+00
  1.31653107E+00  1.36961503E+00  1.38682426E+00  1.43313854E+00  1.89399326E+00
Alpha MO coefficients                      R   N=        3600
  1.86174312E-05  2.04899538E-04  1.31431674E-04  6.16627002E-05  3.49634140E-05
  1.87590331E-03  4.96915493E-05  4.53896196E-04 -5.06478553E-04  6.68469087E-03
  1.05695071E-03  9.78292196E-04  2.55044329E-04  2.98835147E-05  1.94618202E-05
 -2.60619995E-04 -9.41269375E-05 -6.18000695E-05 -1.17672444E-03  4.31602991E-04
  3.07870948E-03  4.27942423E-04  3.47554699E-03  3.78547819E-03  8.05706753E-04
 -7.68851347E-04  2.11873023E-04  1.69064516E-04  1.66181891E-04  9.53175426E-05
  2.23248647E-05  6.24456679E-03  2.03192183E-03 -6.19535804E-03 -1.68210583E-03
 -1.45436574E-02  1.68879639E-03  2.25013513E-03  1.74833748E-03  9.95221404E-01
  2.94078867E-02 -1.24145892E-03  1.69251806E-03  4.66787925E-04 -2.13032314E-02
  2.96178408E-03 -3.57794232E-03 -9.24731646E-04  9.12877751E-03 -7.13423538E-04
  4.18234939E-04 -1.64709492E-04 -7.57670162E-05  1.39405347E-03 -5.93447142E-05
 -4.83983899E-04  6.65437806E-05 -3.79019355E-04 -1.77722640E-04 -1.05075258E-03
 -9.94106289E-05 -4.56788173E-04 -1.06435266E-04 -6.59812511E-05 -4.07942140E-05
  9.73590721E-04  4.13432987E-04  2.66770601E-04  1.57006033E-04 -8.40631042E-03
 -1.88217561E-03 -1.74352402E-03 -7.58830258E-05  1.71923702E-03 -5.81803355E-04
 -5.48553088E-04 -6.28782266E-06 -1.18824977E-04  4.73463807E-03  3.26217025E-03
 -2.56802929E-05  4.39268788E-04 -8.60426102E-04 -3.07290139E-03 -4.68763952E-04
  7.67787377E-04  9.95432860E-01  3.61063668E-02  6.68893377E-04 -1.18706488E-03
 -3.44152881E-04 -3.16275219E-02  4.46970452E-04  2.11315122E-03  1.02341497E-03
  7.10092238E-03 -4.13369833E-03 -8.79616300E-04 -1.32000691E-03 -1.24290087E-04
 -6.12785328E-05  3.62265622E-04 -4.55015553E-04 -9.09144120E-05  1.24661106E-03
 -4.23956399E-04 -9.25248664E-05 -2.22814000E-04  1.05210784E-02 -2.83525280E-03
  4.96882514E-03  1.64224888E-03 -5.49674128E-04  3.25065598E-03 -2.56030377E-05
  6.38117295E-04 -1.32266740E-04 -3.16623089E-04 -1.41616990E-04 -4.37291737E-06
  9.42985241E-01  3.29889975E-02  7.45828002E-05  1.36336217E-04  1.67398349E-05
 -2.57624019E-02 -8.37757656E-04 -1.99250402E-03  4.39071551E-04  1.23767284E-02
  2.39335021E-03  4.44754584E-03 -9.08830197E-04  3.18310226E-01  1.04518303E-02
  6.99618578E-04  7.67253441E-04 -9.16864613E-05 -3.40331900E-03 -4.52535544E-03
 -2.69185082E-03  2.36113891E-04  2.72212012E-02  1.37151020E-02 -2.61542844E-03
  2.55356151E-03 -5.29654810E-04 -6.69899243E-04  3.75755100E-04 -1.94690606E-05
  7.79180912E-05  3.51789935E-03 -2.58291963E-03 -1.85788608E-04 -8.05853155E-04
 -3.90121032E-02  9.39467193E-03  1.36882485E-03  1.42163686E-03  1.18604759E-05
  1.12691104E-04  4.85583084E-05 -2.41260485E-05  2.98995859E-06 -8.10424947E-04
  2.97770899E-04  4.60010149E-05  2.80485584E-05  2.47889780E-03  2.84597378E-04
  4.31955937E-04  5.54465559E-04 -7.96761091E-05  9.38094536E-04 -7.23554472E-04
  4.34065214E-03 -7.06724733E-04  3.25128843E-03 -3.61085078E-04  1.26261859E-03
 -3.18520206E-01 -1.25461739E-02 -6.92903695E-04 -8.34144612E-04  1.45655690E-04
  1.90925461E-02  4.97211843E-03  3.69629372E-03 -4.25399200E-04 -4.85116127E-02
 -8.27491833E-03 -8.89228334E-03  1.52105771E-03  9.43122477E-01  3.47908087E-02
 -1.88687069E-04 -6.67467260E-04  3.40209315E-04 -3.57452001E-02 -7.68686548E-05
  5.32742873E-03 -1.89251701E-03  6.31606270E-02 -3.88994312E-03 -1.33235985E-02
  3.73660181E-03 -1.60652591E-03 -6.51914544E-04  5.06182033E-04 -9.08815224E-05
  1.74362551E-04  6.21987297E-03 -4.34507979E-03 -3.06101394E-04 -7.58564545E-04
 -1.34975517E-02  3.31985306E-03  1.52665532E-03 -3.11132886E-04 -2.92943357E-06
 -1.61042398E-04  8.84817387E-05 -1.06177658E-04  5.32596681E-05 -1.42737860E-04
  2.14230799E-06  3.67791442E-04 -1.79963076E-04  7.57372515E-04  2.18407390E-04
  1.47972747E-05  6.98872897E-04 -1.11870755E-04  3.72779843E-04  1.07264445E-04
 -3.75202597E-04 -9.45452849E-05 -1.89398193E-03 -6.32266576E-04  2.79474331E-03
 -6.67544073E-03  1.03544523E-02  7.02239449E-03  3.41913892E-03 -7.24429401E-04
 -5.81052644E-03  2.88377859E-03 -4.72714744E-03  3.85810723E-03  9.57809076E-03
  5.99674138E-03  5.99345053E-04 -2.66092006E-04 -1.99128776E-02  3.81812759E-02
  2.64812813E-02 -1.03440155E-02  3.62301133E-03  1.16195081E-02 -1.00107396E-02
 -2.09721347E-02 -5.20941098E-03 -5.46903658E-02 -1.98135452E-02  7.14097309E-03
 -1.93033843E-03 -1.16135737E-01  2.37089302E-01  9.58487355E-02 -1.52756043E-01
 -4.20005151E-02  5.17364990E-02 -3.06357658E-02  5.86950439E-02  1.53386203E-02
  5.42800892E-02  1.52409653E-03 -7.92477918E-03 -4.57631603E-03 -1.92330142E-01
  4.24617197E-01 -1.00653383E-01  1.44903130E-01  3.91191280E-02  4.19975703E-01
 -4.24458039E-02  5.77312815E-02  1.63778445E-02 -7.52255647E-04 -5.22803575E-03
  6.10986304E-03  1.30454230E-03  2.84681754E-02 -2.00780795E-02  1.78251020E-03
  3.68048900E-03  2.73189401E-03  4.17653409E-04  5.64728229E-03  5.31118688E-03
 -1.39428770E-01  2.70868611E-01  7.09372233E-02  7.99452924E-02 -1.20134550E-02
  2.14426566E-01  9.72765162E-03  4.61748583E-03 -2.39791054E-04  3.04239417E-02
  9.99661257E-03  9.42141483E-04  1.88347150E-03 -1.64408104E-01  3.20398475E-01
 -2.84084690E-02 -6.85741165E-02  2.67335730E-02  2.23034316E-01  9.02547253E-04
  2.18216238E-02  2.47205568E-03 -9.73734141E-02 -2.72079998E-02  1.59351964E-02
 -9.86415539E-03 -5.05882924E-02  9.88320138E-02 -1.27552290E-01  5.04646697E-02
 -5.48194958E-04  1.05636575E-01 -1.68834297E-02 -2.06668030E-02 -5.66148729E-03
  7.15208900E-02 -1.49920463E-02  1.26654424E-03 -1.38852144E-03  4.37418041E-02
 -9.86397809E-02 -1.04362753E-02 -1.80322619E-02 -7.24520784E-03 -1.24457202E-01
  4.12437317E-03 -1.13193719E-02 -3.74307572E-03 -1.72504027E-02  1.53554711E-03
 -7.45535104E-03 -3.11090145E-03  2.78003470E-02  1.47246494E-02  6.88993154E-02
  9.55791057E-03  6.93325076E-02  5.73426872E-03  8.37335454E-02  3.61238138E-03
 -1.27824407E-01  2.53788122E-01 -3.43833892E-02 -1.21839218E-02 -4.36446925E-03
  2.31143148E-01 -1.68073426E-02 -1.13080718E-02  1.20777466E-03 -1.15732105E-01
 -1.77514846E-02 -2.47165724E-02  3.49445237E-03  4.85360717E-02 -9.75004626E-02
 -1.98013706E-01 -1.17400697E-01 -8.35134074E-03 -9.50705847E-02 -4.24148823E-02
 -2.74669165E-02 -1.58206091E-03  5.38145975E-02 -4.78180334E-02 -2.22570031E-02
  5.28812853E-03  1.20511963E-01 -2.53128789E-01  1.07147633E-01 -1.42580980E-01
 -1.74543257E-02 -2.49076530E-01  1.28973931E-02 -4.23541239E-02 -8.27967735E-03
  6.31396684E-02 -1.38930686E-02 -5.99788288E-03 -9.37137133E-03 -6.01917417E-02
  1.40262669E-01  1.89943620E-02 -3.70630689E-02 -2.68826034E-03  1.69136018E-01
  6.46452111E-03 -1.20389962E-02 -1.71492405E-04  2.21510723E-02 -6.58715105E-03
  1.00765393E-02  4.54974228E-03 -1.23844184E-01 -3.68095223E-02  1.13410955E-01
  3.64679841E-02  9.90533390E-02  2.82376012E-02 -5.45411939E-02 -1.91916746E-02
 -6.91076250E-02  1.39914975E-01 -9.66874027E-02 -1.79809672E-01  4.87942140E-02
  1.57320036E-01 -3.68990364E-02 -5.36341342E-02  1.75390779E-02 -7.79771065E-02
 -2.08538376E-02 -1.93610167E-02  5.51961223E-03  9.47397451E-02 -1.93799224E-01
  7.87049108E-02 -7.03620026E-02  4.73950460E-02 -1.95667672E-01  2.35808624E-02
 -5.06305794E-02  1.95235176E-02  9.22244096E-02 -4.57077761E-03 -2.58451706E-02
  2.48016655E-03 -8.73411873E-02  1.89464478E-01  1.37268552E-01  1.31030218E-01
  1.00716480E-01  2.20709744E-01  5.07500223E-02  6.04539390E-02  4.05000088E-02
 -4.51387906E-03  6.35851874E-03  1.04044810E-02  5.80720978E-03  5.35983562E-02
 -1.24702287E-01  1.24166103E-02  1.20451081E-01  6.43941641E-02 -1.74441112E-01
  8.68496947E-03  4.36153210E-02  2.67544796E-02 -3.15948536E-02  1.68666150E-03
 -6.05662702E-03 -1.52568034E-03  1.80981562E-01  7.58326262E-02  1.02556586E-01
  4.53382394E-02  1.34335353E-01  6.48229478E-02 -1.41015091E-01 -5.53157822E-02
 -3.79144738E-03  8.37453102E-03 -2.00787014E-01  1.30607733E-01 -4.97772849E-02
  1.48430490E-02 -8.57794516E-02  5.96341234E-02 -2.25715893E-02  1.86672868E-02
 -3.72785085E-03  7.15514463E-03 -1.92646169E-03 -1.04437020E-02  1.50272894E-02
 -2.09199969E-01  2.20265429E-01 -6.34159460E-02  5.56104571E-02 -5.02293247E-02
  7.66458161E-02 -1.92150779E-02  9.65285719E-03  1.66598699E-03  9.69928374E-03
 -4.61489617E-04  1.44244735E-02 -3.50071653E-02  2.30796036E-01  1.68367352E-01
  6.77392748E-02 -4.96661377E-02  8.92711762E-02  8.69099038E-02  3.17179671E-02
 -2.23105997E-02  1.88303631E-02  3.91439061E-03  5.21439807E-03 -2.04165052E-02
  4.58152108E-02  1.72779514E-01  5.02413532E-02  2.11143186E-02  8.47490402E-02
  7.81907120E-02  3.62822110E-02  1.22833051E-02  2.67899654E-02 -6.74208939E-03
  1.75523508E-04 -1.67499279E-03  1.15236859E-01  5.05009626E-02  1.17961891E-01
  5.55125862E-02 -9.85496493E-02 -4.40189291E-02  1.62794827E-01  9.33801509E-02
 -1.05438793E-03  7.56450458E-03  2.21924210E-01  2.77287951E-01 -4.37943523E-02
 -4.29349040E-02  6.68980493E-02  9.51910155E-02 -1.46044487E-02 -1.61611063E-02
  1.44319609E-02  1.33801017E-02 -5.00446044E-05 -1.36873210E-02  3.04525145E-02
 -2.33881006E-01 -2.53408992E-01  6.07190844E-02  2.07133642E-02 -6.17926039E-02
 -8.19605336E-02  2.77268980E-02  2.68457743E-02 -1.32106428E-02 -1.97171115E-02
  1.06383347E-03 -1.29525594E-02  4.04029683E-02  2.14614345E-01 -1.01333761E-01
  1.11116374E-01  5.05034492E-02  9.04628967E-02 -4.61555282E-02  5.26873637E-02
 -1.32255487E-02  1.82031889E-02  4.35546439E-03  6.23800148E-03  4.41571964E-02
 -9.57665528E-02 -3.64474670E-02  2.02343166E-01  1.64118150E-01 -1.92773707E-01
  2.12686219E-03  7.44150567E-02  7.98343875E-02 -6.32966776E-02  2.03195163E-04
  2.91043769E-03  2.12265062E-03  4.78790034E-02  2.89264966E-02 -1.13674574E-01
 -7.85127432E-02 -1.15698206E-01 -7.16298450E-02 -8.87049946E-02 -6.31381922E-02
  3.34671107E-03 -8.13185891E-03 -2.14466674E-01  2.99695819E-02 -6.89325743E-02
 -8.32254862E-03 -8.95813709E-02  1.77462564E-02 -3.27304096E-02 -6.79797027E-02
 -1.76059019E-02 -1.12983360E-02  1.19740837E-03  1.21548785E-02 -2.27284043E-02
  3.46932481E-02  6.08524706E-02 -9.44645407E-02 -4.01089546E-02 -8.31172261E-03
  7.97794660E-03 -4.41499805E-02  1.78211130E-03 -3.14752841E-02 -1.89007908E-02
 -4.82826339E-03 -3.66875353E-02  1.07538778E-01  3.92765179E-02 -2.52297729E-01
 -2.02253714E-01  9.84521942E-02 -1.98538598E-02 -7.40874546E-02 -9.03526286E-02
  6.81067498E-02 -2.10026490E-02  1.67606832E-03 -1.15455445E-02  7.00043049E-02
 -1.53445513E-01 -2.94565137E-01  3.06168506E-01 -4.41332356E-02 -2.80419911E-01
 -1.27239496E-01  1.25582020E-01 -3.78114423E-02 -8.04713309E-02 -5.79712656E-03
  1.17708467E-02  2.51117395E-03 -1.08876770E-01 -7.14447570E-02  1.37980130E-01
  9.05497926E-02 -7.54757926E-02 -4.45008937E-02  2.57621143E-02  2.19991436E-02
  8.97604136E-03 -2.36538150E-02 -2.31992402E-01  1.37283748E-01  6.48516100E-03
 -1.77854647E-02 -9.04865060E-02  7.74868173E-02  6.48368511E-03  1.47606267E-01
  8.40013127E-03  3.42450848E-02 -7.05370556E-03  1.03267669E-02 -1.73494449E-02
  8.13039179E-02 -8.96928872E-03  1.32411081E-01 -6.49554643E-02  1.71237349E-02
 -3.19570347E-03  6.00671514E-02 -1.38914433E-01  4.43261340E-02  4.33284434E-02
 -3.30194369E-03 -1.60562907E-02  3.28377772E-02 -1.99121436E-01 -9.01187430E-02
  2.37701221E-01  5.08124027E-02 -1.09673099E-01 -5.09998137E-02  1.27403930E-01
 -1.90960451E-02 -8.93549612E-03 -2.12056410E-02  2.31271138E-02 -9.83366845E-03
  2.08830256E-02 -1.16742766E-01 -2.34451788E-01  2.66355726E-01  4.85732014E-02
 -7.34720467E-02 -1.26410288E-01  1.68206494E-01  2.62990222E-02 -5.22736357E-03
 -2.07275996E-03  4.06667692E-03 -1.87543473E-02 -8.33479787E-03  1.59004984E-01
  1.23639320E-01 -1.42025754E-01 -9.02768628E-02 -6.37032257E-02 -4.55480854E-02
  1.23390851E-02 -3.35810552E-02  7.62453398E-02 -2.18483202E-01  1.14471127E-01
  1.60037863E-02  7.83876799E-02 -9.46932824E-02  6.09703931E-02  1.78530269E-01
  3.82585242E-02  1.10628406E-02  5.36145801E-03 -7.11448754E-03  1.02150680E-02
 -6.93763992E-02  2.50924811E-01 -3.72993869E-03  3.43272336E-02 -3.98853178E-02
  1.49087120E-01 -7.46981080E-03 -1.97124358E-01  1.12903001E-02  7.81942537E-02
 -2.25131718E-02  1.42978182E-02 -2.07973970E-02  9.94850340E-02 -1.91008953E-01
  1.47000486E-01 -4.76719537E-02  1.79644789E-02 -8.39343215E-02  9.10204287E-02
  2.59321067E-02 -8.86454693E-03 -2.16668980E-02  1.90687817E-02  2.20338697E-02
 -4.59482971E-02 -1.12595113E-01  9.54838134E-02  3.08858029E-01 -9.53249141E-02
 -5.19365301E-02  3.02104574E-02  1.83966294E-01 -2.92979155E-02 -5.61503073E-03
  1.37216324E-02  7.30172369E-03 -5.72571008E-02 -4.08958726E-02 -1.01156189E-01
 -5.99577344E-02  1.66511008E-01  1.12972666E-01  1.97905956E-01  1.34517902E-01
 -2.21769774E-04  2.44118336E-03 -3.97979419E-02  9.42408176E-02  3.63322723E-01
 -4.02684448E-02 -4.94068330E-02  4.31025644E-02  2.32754742E-01 -2.36822121E-01
 -4.06840488E-02 -2.75738174E-02  3.66479743E-02 -2.71418581E-04 -5.23394644E-03
 -1.98249371E-02  8.82180894E-02  3.66578449E-01  4.44825034E-02 -2.54324900E-02
  2.06552685E-02  2.60060746E-01  2.12771167E-01 -5.46990706E-02 -6.18368585E-02
  6.79441507E-02  3.13479357E-03 -3.55418332E-04 -1.57635866E-02 -3.21066484E-02
 -5.79516423E-02 -3.90012344E-02 -8.72115416E-04  1.52127013E-02 -3.55733896E-02
  3.65920366E-02 -9.44122199E-03  3.56615524E-03 -3.89631985E-02 -2.70202979E-03
  8.55312761E-03  4.56132798E-02  1.51677053E-01 -1.89161839E-01  2.30278832E-02
  3.78722369E-02  1.01658552E-01 -1.29301369E-01 -2.19192230E-02  9.15435850E-03
  1.26781194E-02 -8.63722452E-03 -6.26235349E-02 -7.61523100E-02  1.94953396E-03
 -5.13238212E-03 -1.26789233E-03 -7.23810684E-03 -2.69078011E-03  1.60249408E-03
  4.22067497E-03 -8.90020344E-03 -4.69786604E-02 -4.05368974E-02 -3.85017306E-02
 -1.42745849E-03 -6.55597940E-02 -4.64965912E-03 -3.02732124E-02 -9.02393589E-02
 -3.88861733E-02 -7.05764246E-03  4.65416411E-03 -3.63301607E-02  7.17107387E-02
  2.23818621E-01 -4.62600973E-02 -1.51047141E-02  2.78469434E-01  2.05461867E-01
 -4.20611436E-02  3.91756463E-03  1.35137113E-01  1.40490495E-02 -2.98803219E-02
 -1.12308984E-02  3.44467120E-04  1.57516008E-02 -1.25634945E-01 -6.48491223E-02
 -4.93213937E-02 -7.25548604E-02  9.13873463E-02 -1.64228672E-02  1.75073323E-02
 -4.65015429E-02  2.52451862E-02 -1.44944905E-02  9.44705714E-03 -1.18032489E-03
  4.07716000E-03  4.75767426E-01  2.53409636E-01  2.35713295E-01 -5.47038963E-03
  3.22903552E-01  1.66286396E-01  1.56309650E-01 -3.22395153E-02  5.40714677E-02