 Entering Gaussian System, Link 0=/opt/cluster/programs/g09_d.01/g09//g09
 Input=/home/unibas/boittier/RDKit_G2/O.pdb/SCAN_1_2_6_8_S_17_20.0/4_SCAN_1_2_6_8_F/4_SCAN_O.pdb.com
 Output=/scratch/boittier/4_SCAN_O.pdb/4_SCAN_O.pdb.out
 Initial command:
 /opt/cluster/programs/g09_d.01/g09/l1.exe "/scratch/boittier/4_SCAN_O.pdb/Gau-162516.inp" -scrdir="/scratch/boittier/4_SCAN_O.pdb/"
 Entering Link 1 = /opt/cluster/programs/g09_d.01/g09/l1.exe PID=    162520.
  
 Copyright (c) 1988,1990,1992,1993,1995,1998,2003,2009,2013,
            Gaussian, Inc.  All Rights Reserved.
  
 This is part of the Gaussian(R) 09 program.  It is based on
 the Gaussian(R) 03 system (copyright 2003, Gaussian, Inc.),
 the Gaussian(R) 98 system (copyright 1998, Gaussian, Inc.),
 the Gaussian(R) 94 system (copyright 1995, Gaussian, Inc.),
 the Gaussian 92(TM) system (copyright 1992, Gaussian, Inc.),
 the Gaussian 90(TM) system (copyright 1990, Gaussian, Inc.),
 the Gaussian 88(TM) system (copyright 1988, Gaussian, Inc.),
 the Gaussian 86(TM) system (copyright 1986, Carnegie Mellon
 University), and the Gaussian 82(TM) system (copyright 1983,
 Carnegie Mellon University). Gaussian is a federally registered
 trademark of Gaussian, Inc.
  
 This software contains proprietary and confidential information,
 including trade secrets, belonging to Gaussian, Inc.
  
 This software is provided under written license and may be
 used, copied, transmitted, or stored only in accord with that
 written license.
  
 The following legend is applicable only to US Government
 contracts under FAR:
  
                    RESTRICTED RIGHTS LEGEND
  
 Use, reproduction and disclosure by the US Government is
 subject to restrictions as set forth in subparagraphs (a)
 and (c) of the Commercial Computer Software - Restricted
 Rights clause in FAR 52.227-19.
  
 Gaussian, Inc.
 340 Quinnipiac St., Bldg. 40, Wallingford CT 06492
  
  
 ---------------------------------------------------------------
 Warning -- This program may not be used in any manner that
 competes with the business of Gaussian, Inc. or will provide
 assistance to any competitor of Gaussian, Inc.  The licensee
 of this program is prohibited from giving any competitor of
 Gaussian, Inc. access to this program.  By using this program,
 the user acknowledges that Gaussian, Inc. is engaged in the
 business of creating and licensing software in the field of
 computational chemistry and represents and warrants to the
 licensee that it is not a competitor of Gaussian, Inc. and that
 it will not use this program in any manner prohibited above.
 ---------------------------------------------------------------
  

 Cite this work as:
 Gaussian 09, Revision D.01,
 M. J. Frisch, G. W. Trucks, H. B. Schlegel, G. E. Scuseria, 
 M. A. Robb, J. R. Cheeseman, G. Scalmani, V. Barone, B. Mennucci, 
 G. A. Petersson, H. Nakatsuji, M. Caricato, X. Li, H. P. Hratchian, 
 A. F. Izmaylov, J. Bloino, G. Zheng, J. L. Sonnenberg, M. Hada, 
 M. Ehara, K. Toyota, R. Fukuda, J. Hasegawa, M. Ishida, T. Nakajima, 
 Y. Honda, O. Kitao, H. Nakai, T. Vreven, J. A. Montgomery, Jr., 
 J. E. Peralta, F. Ogliaro, M. Bearpark, J. J. Heyd, E. Brothers, 
 K. N. Kudin, V. N. Staroverov, T. Keith, R. Kobayashi, J. Normand, 
 K. Raghavachari, A. Rendell, J. C. Burant, S. S. Iyengar, J. Tomasi, 
 M. Cossi, N. Rega, J. M. Millam, M. Klene, J. E. Knox, J. B. Cross, 
 V. Bakken, C. Adamo, J. Jaramillo, R. Gomperts, R. E. Stratmann, 
 O. Yazyev, A. J. Austin, R. Cammi, C. Pomelli, J. W. Ochterski, 
 R. L. Martin, K. Morokuma, V. G. Zakrzewski, G. A. Voth, 
 P. Salvador, J. J. Dannenberg, S. Dapprich, A. D. Daniels, 
 O. Farkas, J. B. Foresman, J. V. Ortiz, J. Cioslowski, 
 and D. J. Fox, Gaussian, Inc., Wallingford CT, 2013.
 
 ******************************************
 Gaussian 09:  ES64L-G09RevD.01 24-Apr-2013
                26-May-2021 
 ******************************************
 %chk=/home/unibas/boittier/RDKit_G2/O.pdb/SCAN_1_2_6_8_S_17_20.0/4_SCAN_1_2_6_8_
 F/O.pdb.chk
 %nproc=8
 Will use up to    8 processors via shared memory.
 %mem=16GB
 -----------------------------
 #p wB97XD/6-31+G Opt=ModRedun
 -----------------------------
 1/14=-1,18=120,19=15,26=3,38=1/1,3;
 2/9=110,12=2,17=6,18=5,40=1/2;
 3/5=1,6=6,7=10,11=2,16=1,25=1,30=1,71=1,74=-58/1,2,3;
 4//1;
 5/5=2,38=5/2;
 6/7=2,8=2,9=2,10=2,28=1/1;
 7//1,2,3,16;
 1/14=-1,18=20,19=15,26=3/3(2);
 2/9=110/2;
 99//99;
 2/9=110/2;
 3/5=1,6=6,7=10,11=2,16=1,25=1,30=1,71=1,74=-58/1,2,3;
 4/5=5,16=3,69=1/1;
 5/5=2,38=5/2;
 7//1,2,3,16;
 1/14=-1,18=20,19=15,26=3/3(-5);
 2/9=110/2;
 6/7=2,8=2,9=2,10=2,19=2,28=1/1;
 99/9=1/99;
 Leave Link    1 at Wed May 26 09:01:13 2021, MaxMem=  2147483648 cpu:         0.2
 (Enter /opt/cluster/programs/g09_d.01/g09/l101.exe)
 -----
 O.pdb
 -----
 Symbolic Z-matrix:
 Charge =  0 Multiplicity = 1
 C                     1.42084  -0.96647  -0.12865 
 C                     0.53104   0.215     0.10969 
 H                     1.54708  -1.53001   0.80047 
 H                     2.39101  -0.64135  -0.50362 
 H                     0.94884  -1.63796  -0.85425 
 O                    -0.71671  -0.13379   0.62273 
 O                     0.82081   1.38139  -0.11843 
 C                    -1.84323  -0.17929  -0.30477 
 H                    -1.96514   0.78774  -0.8001 
 H                    -2.71344  -0.40048   0.30854 
 H                    -1.69305  -0.97424  -1.04309 
 
 The following ModRedundant input section has been read:
 D       1       2       6       8 F                                           
 
 NAtoms=     11 NQM=       11 NQMF=       0 NMMI=      0 NMMIF=      0
                NMic=       0 NMicF=      0.
                    Isotopes and Nuclear Properties:
 (Nuclear quadrupole moments (NQMom) in fm**2, nuclear magnetic moments (NMagM)
  in nuclear magnetons)

  Atom         1           2           3           4           5           6           7           8           9          10
 IAtWgt=          12          12           1           1           1          16          16          12           1           1
 AtmWgt=  12.0000000  12.0000000   1.0078250   1.0078250   1.0078250  15.9949146  15.9949146  12.0000000   1.0078250   1.0078250
 NucSpn=           0           0           1           1           1           0           0           0           1           1
 AtZEff=   0.0000000   0.0000000   0.0000000   0.0000000   0.0000000   0.0000000   0.0000000   0.0000000   0.0000000   0.0000000
 NQMom=    0.0000000   0.0000000   0.0000000   0.0000000   0.0000000   0.0000000   0.0000000   0.0000000   0.0000000   0.0000000
 NMagM=    0.0000000   0.0000000   2.7928460   2.7928460   2.7928460   0.0000000   0.0000000   0.0000000   2.7928460   2.7928460
 AtZNuc=   6.0000000   6.0000000   1.0000000   1.0000000   1.0000000   8.0000000   8.0000000   6.0000000   1.0000000   1.0000000

  Atom        11
 IAtWgt=           1
 AtmWgt=   1.0078250
 NucSpn=           1
 AtZEff=   0.0000000
 NQMom=    0.0000000
 NMagM=    2.7928460
 AtZNuc=   1.0000000
 Leave Link  101 at Wed May 26 09:01:14 2021, MaxMem=  2147483648 cpu:         4.2
 (Enter /opt/cluster/programs/g09_d.01/g09/l103.exe)

 GradGradGradGradGradGradGradGradGradGradGradGradGradGradGradGradGradGrad
 Berny optimization.
 Initialization pass.
                           ----------------------------
                           !    Initial Parameters    !
                           ! (Angstroms and Degrees)  !
 --------------------------                            --------------------------
 ! Name  Definition              Value          Derivative Info.                !
 --------------------------------------------------------------------------------
 ! R1    R(1,2)                  1.4981         estimate D2E/DX2                !
 ! R2    R(1,3)                  1.094          estimate D2E/DX2                !
 ! R3    R(1,4)                  1.0897         estimate D2E/DX2                !
 ! R4    R(1,5)                  1.0955         estimate D2E/DX2                !
 ! R5    R(2,6)                  1.3935         estimate D2E/DX2                !
 ! R6    R(2,7)                  1.2233         estimate D2E/DX2                !
 ! R7    R(6,8)                  1.4599         estimate D2E/DX2                !
 ! R8    R(8,9)                  1.0933         estimate D2E/DX2                !
 ! R9    R(8,10)                 1.0874         estimate D2E/DX2                !
 ! R10   R(8,11)                 1.0953         estimate D2E/DX2                !
 ! A1    A(2,1,3)              109.8567         estimate D2E/DX2                !
 ! A2    A(2,1,4)              110.3792         estimate D2E/DX2                !
 ! A3    A(2,1,5)              109.4421         estimate D2E/DX2                !
 ! A4    A(3,1,4)              110.0716         estimate D2E/DX2                !
 ! A5    A(3,1,5)              107.2466         estimate D2E/DX2                !
 ! A6    A(4,1,5)              109.7877         estimate D2E/DX2                !
 ! A7    A(1,2,6)              113.142          estimate D2E/DX2                !
 ! A8    A(1,2,7)              125.5612         estimate D2E/DX2                !
 ! A9    A(6,2,7)              121.2936         estimate D2E/DX2                !
 ! A10   A(2,6,8)              117.6997         estimate D2E/DX2                !
 ! A11   A(6,8,9)              110.2615         estimate D2E/DX2                !
 ! A12   A(6,8,10)             105.3986         estimate D2E/DX2                !
 ! A13   A(6,8,11)             110.186          estimate D2E/DX2                !
 ! A14   A(9,8,10)             110.2567         estimate D2E/DX2                !
 ! A15   A(9,8,11)             110.6005         estimate D2E/DX2                !
 ! A16   A(10,8,11)            110.0179         estimate D2E/DX2                !
 ! D1    D(3,1,2,6)            -56.94           estimate D2E/DX2                !
 ! D2    D(3,1,2,7)            123.7125         estimate D2E/DX2                !
 ! D3    D(4,1,2,6)           -178.5012         estimate D2E/DX2                !
 ! D4    D(4,1,2,7)              2.1513         estimate D2E/DX2                !
 ! D5    D(5,1,2,6)             60.5611         estimate D2E/DX2                !
 ! D6    D(5,1,2,7)           -118.7864         estimate D2E/DX2                !
 ! D7    D(1,2,6,8)           -100.6146         Frozen                          !
 ! D8    D(7,2,6,8)             78.7642         estimate D2E/DX2                !
 ! D9    D(2,6,8,9)            -57.2514         estimate D2E/DX2                !
 ! D10   D(2,6,8,10)          -176.2295         estimate D2E/DX2                !
 ! D11   D(2,6,8,11)            65.1142         estimate D2E/DX2                !
 --------------------------------------------------------------------------------
 Trust Radius=3.00D-01 FncErr=1.00D-07 GrdErr=1.00D-06
 Number of steps in this run=     47 maximum allowed number of steps=    100.
 GradGradGradGradGradGradGradGradGradGradGradGradGradGradGradGradGradGrad

 Leave Link  103 at Wed May 26 09:01:14 2021, MaxMem=  2147483648 cpu:         0.1
 (Enter /opt/cluster/programs/g09_d.01/g09/l202.exe)
                          Input orientation:                          
 ---------------------------------------------------------------------
 Center     Atomic      Atomic             Coordinates (Angstroms)
 Number     Number       Type             X           Y           Z
 ---------------------------------------------------------------------
      1          6           0        1.420841   -0.966467   -0.128650
      2          6           0        0.531035    0.214999    0.109692
      3          1           0        1.547083   -1.530011    0.800467
      4          1           0        2.391006   -0.641349   -0.503622
      5          1           0        0.948839   -1.637963   -0.854245
      6          8           0       -0.716706   -0.133788    0.622729
      7          8           0        0.820811    1.381390   -0.118425
      8          6           0       -1.843232   -0.179285   -0.304772
      9          1           0       -1.965144    0.787739   -0.800104
     10          1           0       -2.713435   -0.400476    0.308541
     11          1           0       -1.693046   -0.974235   -1.043088
 ---------------------------------------------------------------------
                    Distance matrix (angstroms):
                    1          2          3          4          5
     1  C    0.000000
     2  C    1.498140   0.000000
     3  H    1.093973   2.134147   0.000000
     4  H    1.089737   2.137517   1.789574   0.000000
     5  H    1.095528   2.130071   1.762845   1.787742   0.000000
     6  O    2.413925   1.393455   2.665665   3.344273   2.686640
     7  O    2.423339   1.223305   3.138167   2.589471   3.110356
     8  C    3.362268   2.442209   3.813168   4.264014   3.197706
     9  H    3.872077   2.717843   4.502170   4.594152   3.791867
    10  H    4.195679   3.308313   4.435071   5.174258   4.036793
    11  H    3.245389   2.773034   3.769087   4.132955   2.730522
                    6          7          8          9         10
     6  O    0.000000
     7  O    2.282330   0.000000
     8  C    1.459928   3.093147   0.000000
     9  H    2.105294   2.928934   1.093321   0.000000
    10  H    2.038814   3.980985   1.087351   1.789103   0.000000
    11  H    2.105834   3.566994   1.095268   1.799342   1.788098
                   11
    11  H    0.000000
 Stoichiometry    C3H6O2
 Framework group  C1[X(C3H6O2)]
 Deg. of freedom    27
 Full point group                 C1      NOp   1
 Largest Abelian subgroup         C1      NOp   1
 Largest concise Abelian subgroup C1      NOp   1
                         Standard orientation:                         
 ---------------------------------------------------------------------
 Center     Atomic      Atomic             Coordinates (Angstroms)
 Number     Number       Type             X           Y           Z
 ---------------------------------------------------------------------
      1          6           0       -1.420841   -0.966467    0.128650
      2          6           0       -0.531035    0.214999   -0.109692
      3          1           0       -1.547083   -1.530011   -0.800467
      4          1           0       -2.391006   -0.641349    0.503622
      5          1           0       -0.948839   -1.637963    0.854245
      6          8           0        0.716706   -0.133788   -0.622729
      7          8           0       -0.820811    1.381390    0.118425
      8          6           0        1.843232   -0.179285    0.304772
      9          1           0        1.965144    0.787739    0.800104
     10          1           0        2.713435   -0.400476   -0.308541
     11          1           0        1.693046   -0.974235    1.043088
 ---------------------------------------------------------------------
 Rotational constants (GHZ):      8.2971619      4.1359322      3.1469162
 Leave Link  202 at Wed May 26 09:01:14 2021, MaxMem=  2147483648 cpu:         0.0
 (Enter /opt/cluster/programs/g09_d.01/g09/l301.exe)
 Standard basis: 6-31+G (6D, 7F)
 Ernie: Thresh=  0.10000D-02 Tol=  0.10000D-05 Strict=F.
 There are    77 symmetry adapted cartesian basis functions of A   symmetry.
 There are    77 symmetry adapted basis functions of A   symmetry.
    77 basis functions,   154 primitive gaussians,    77 cartesian basis functions
    20 alpha electrons       20 beta electrons
       nuclear repulsion energy       178.4598341862 Hartrees.
 IExCor= 4639 DFT=T Ex+Corr=wB97XD ExCW=0 ScaHFX=  1.000000
 ScaDFX=  1.000000  1.000000  1.000000  1.000000 ScalE2=  1.000000  1.000000
 IRadAn=      0 IRanWt=     -1 IRanGd=            0 ICorTp=0 IEmpDi=121
  HFx wShort=  0.000000 wLong=  0.200000 cFull=  0.222036 cShort=  0.000000 cLong=  0.777964
  DFx wShort=  0.000000 wLong=  0.200000 cFull=  0.000000 cShort=  0.000000 cLong=  1.000000
 NAtoms=   11 NActive=   11 NUniq=   11 SFac= 1.00D+00 NAtFMM=   60 NAOKFM=F Big=F
 Integral buffers will be    131072 words long.
 Raffenetti 2 integral format.
 Two-electron integral symmetry is turned on.
 R6Disp:  Grimme-D2 Dispersion energy=       -0.0034624406 Hartrees.
 Nuclear repulsion after empirical dispersion term =      178.4563717455 Hartrees.
 Leave Link  301 at Wed May 26 09:01:14 2021, MaxMem=  2147483648 cpu:         0.3
 (Enter /opt/cluster/programs/g09_d.01/g09/l302.exe)
 NPDir=0 NMtPBC=     1 NCelOv=     1 NCel=       1 NClECP=     1 NCelD=      1
         NCelK=      1 NCelE2=     1 NClLst=     1 CellRange=     0.0.
 One-electron integrals computed using PRISM.
 NBasis=    77 RedAO= T EigKep=  1.73D-04  NBF=    77
 NBsUse=    77 1.00D-06 EigRej= -1.00D+00 NBFU=    77
 Precomputing XC quadrature grid using
 IXCGrd= 4 IRadAn=           0 IRanWt=          -1 IRanGd=           0 AccXCQ= 0.00D+00.
 Generated NRdTot=       0 NPtTot=           0 NUsed=           0 NTot=          32
 NSgBfM=    77    77    77    77    77 MxSgAt=    11 MxSgA2=    11.
 Leave Link  302 at Wed May 26 09:01:14 2021, MaxMem=  2147483648 cpu:         0.9
 (Enter /opt/cluster/programs/g09_d.01/g09/l303.exe)
 DipDrv:  MaxL=1.
 Leave Link  303 at Wed May 26 09:01:14 2021, MaxMem=  2147483648 cpu:         0.2
 (Enter /opt/cluster/programs/g09_d.01/g09/l401.exe)
 ExpMin= 4.38D-02 ExpMax= 5.48D+03 ExpMxC= 8.25D+02 IAcc=2 IRadAn=         4 AccDes= 0.00D+00
 Harris functional with IExCor= 4639 and IRadAn=       4 diagonalized for initial guess.
 HarFok:  IExCor= 4639 AccDes= 0.00D+00 IRadAn=         4 IDoV= 1 UseB2=F ITyADJ=14
 ICtDFT=  3500011 ScaDFX=  1.000000  1.000000  1.000000  1.000000
 FoFCou: FMM=F IPFlag=           0 FMFlag=      100000 FMFlg1=           0
         NFxFlg=           0 DoJE=T BraDBF=F KetDBF=T FulRan=T
         wScrn=  0.000000 ICntrl=     500 IOpCl=  0 I1Cent=   200000004 NGrid=           0
         NMat0=    1 NMatS0=      1 NMatT0=    0 NMatD0=    1 NMtDS0=    0 NMtDT0=    0
 Petite list used in FoFCou.
 Harris En= -257.352815026018    
 JPrj=0 DoOrth=F DoCkMO=F.
 Leave Link  401 at Wed May 26 09:01:14 2021, MaxMem=  2147483648 cpu:         1.4
 (Enter /opt/cluster/programs/g09_d.01/g09/l502.exe)
 Closed shell SCF:
 Using DIIS extrapolation, IDIIS=  1040.
 Integral symmetry usage will be decided dynamically.
 Keep R1 ints in memory in canonical form, NReq=9956864.
 IVT=       37546 IEndB=       37546 NGot=  2147483648 MDV=  2138425091
 LenX=  2138425091 LenY=  2138418721
 Requested convergence on RMS density matrix=1.00D-08 within 128 cycles.
 Requested convergence on MAX density matrix=1.00D-06.
 Requested convergence on             energy=1.00D-06.
 No special actions if energy rises.
 FoFCou: FMM=F IPFlag=           0 FMFlag=           0 FMFlg1=           0
         NFxFlg=           0 DoJE=F BraDBF=F KetDBF=F FulRan=T
         wScrn=  0.000000 ICntrl=     600 IOpCl=  0 I1Cent=           0 NGrid=           0
         NMat0=    1 NMatS0=   3003 NMatT0=    0 NMatD0=    1 NMtDS0=    0 NMtDT0=    0
 Symmetry not used in FoFCou.

 Cycle   1  Pass 1  IDiag  1:
 E= -268.114995126591    
 DIIS: error= 2.47D-02 at cycle   1 NSaved=   1.
 NSaved= 1 IEnMin= 1 EnMin= -268.114995126591     IErMin= 1 ErrMin= 2.47D-02
 ErrMax= 2.47D-02  0.00D+00 EMaxC= 1.00D-01 BMatC= 1.35D-01 BMatP= 1.35D-01
 IDIUse=3 WtCom= 7.53D-01 WtEn= 2.47D-01
 Coeff-Com:  0.100D+01
 Coeff-En:   0.100D+01
 Coeff:      0.100D+01
 Gap=     0.539 Goal=   None    Shift=    0.000
 GapD=    0.539 DampG=2.000 DampE=0.500 DampFc=1.0000 IDamp=-1.
 RMSDP=9.54D-03 MaxDP=1.85D-01              OVMax= 8.98D-02

 Cycle   2  Pass 1  IDiag  1:
 E= -268.143711786319     Delta-E=       -0.028716659728 Rises=F Damp=F
 DIIS: error= 2.60D-02 at cycle   2 NSaved=   2.
 NSaved= 2 IEnMin= 2 EnMin= -268.143711786319     IErMin= 1 ErrMin= 2.47D-02
 ErrMax= 2.60D-02  0.00D+00 EMaxC= 1.00D-01 BMatC= 7.18D-02 BMatP= 1.35D-01
 IDIUse=3 WtCom= 7.40D-01 WtEn= 2.60D-01
 Coeff-Com:  0.410D+00 0.590D+00
 Coeff-En:   0.375D+00 0.625D+00
 Coeff:      0.401D+00 0.599D+00
 Gap=     0.419 Goal=   None    Shift=    0.000
 RMSDP=4.44D-03 MaxDP=6.76D-02 DE=-2.87D-02 OVMax= 5.67D-02

 Cycle   3  Pass 1  IDiag  1:
 E= -268.195026655919     Delta-E=       -0.051314869600 Rises=F Damp=F
 DIIS: error= 9.34D-03 at cycle   3 NSaved=   3.
 NSaved= 3 IEnMin= 3 EnMin= -268.195026655919     IErMin= 3 ErrMin= 9.34D-03
 ErrMax= 9.34D-03  0.00D+00 EMaxC= 1.00D-01 BMatC= 8.02D-03 BMatP= 7.18D-02
 IDIUse=3 WtCom= 9.07D-01 WtEn= 9.34D-02
 Coeff-Com:  0.815D-01 0.268D+00 0.650D+00
 Coeff-En:   0.000D+00 0.000D+00 0.100D+01
 Coeff:      0.738D-01 0.243D+00 0.683D+00
 Gap=     0.427 Goal=   None    Shift=    0.000
 RMSDP=1.43D-03 MaxDP=2.08D-02 DE=-5.13D-02 OVMax= 2.68D-02

 Cycle   4  Pass 1  IDiag  1:
 E= -268.199857236719     Delta-E=       -0.004830580800 Rises=F Damp=F
 DIIS: error= 4.58D-03 at cycle   4 NSaved=   4.
 NSaved= 4 IEnMin= 4 EnMin= -268.199857236719     IErMin= 4 ErrMin= 4.58D-03
 ErrMax= 4.58D-03  0.00D+00 EMaxC= 1.00D-01 BMatC= 1.51D-03 BMatP= 8.02D-03
 IDIUse=3 WtCom= 9.54D-01 WtEn= 4.58D-02
 Coeff-Com: -0.339D-02 0.622D-01 0.366D+00 0.576D+00
 Coeff-En:   0.000D+00 0.000D+00 0.130D+00 0.870D+00
 Coeff:     -0.323D-02 0.594D-01 0.355D+00 0.589D+00
 Gap=     0.409 Goal=   None    Shift=    0.000
 RMSDP=7.76D-04 MaxDP=1.31D-02 DE=-4.83D-03 OVMax= 1.02D-02

 Cycle   5  Pass 1  IDiag  1:
 E= -268.200929327970     Delta-E=       -0.001072091251 Rises=F Damp=F
 DIIS: error= 8.69D-04 at cycle   5 NSaved=   5.
 NSaved= 5 IEnMin= 5 EnMin= -268.200929327970     IErMin= 5 ErrMin= 8.69D-04
 ErrMax= 8.69D-04  0.00D+00 EMaxC= 1.00D-01 BMatC= 9.71D-05 BMatP= 1.51D-03
 IDIUse=3 WtCom= 9.91D-01 WtEn= 8.69D-03
 Coeff-Com: -0.532D-02 0.163D-01 0.155D+00 0.323D+00 0.511D+00
 Coeff-En:   0.000D+00 0.000D+00 0.000D+00 0.000D+00 0.100D+01
 Coeff:     -0.528D-02 0.161D-01 0.154D+00 0.320D+00 0.516D+00
 Gap=     0.406 Goal=   None    Shift=    0.000
 RMSDP=1.30D-04 MaxDP=2.27D-03 DE=-1.07D-03 OVMax= 2.56D-03

 Cycle   6  Pass 1  IDiag  1:
 E= -268.201006173715     Delta-E=       -0.000076845744 Rises=F Damp=F
 DIIS: error= 1.17D-04 at cycle   6 NSaved=   6.
 NSaved= 6 IEnMin= 6 EnMin= -268.201006173715     IErMin= 6 ErrMin= 1.17D-04
 ErrMax= 1.17D-04  0.00D+00 EMaxC= 1.00D-01 BMatC= 2.47D-06 BMatP= 9.71D-05
 IDIUse=3 WtCom= 9.99D-01 WtEn= 1.17D-03
 Coeff-Com: -0.347D-03-0.800D-02-0.273D-01-0.312D-01 0.879D-01 0.979D+00
 Coeff-En:   0.000D+00 0.000D+00 0.000D+00 0.000D+00 0.000D+00 0.100D+01
 Coeff:     -0.346D-03-0.799D-02-0.273D-01-0.311D-01 0.878D-01 0.979D+00
 Gap=     0.407 Goal=   None    Shift=    0.000
 RMSDP=1.47D-04 MaxDP=3.49D-03 DE=-7.68D-05 OVMax= 7.36D-04

 Cycle   7  Pass 1  IDiag  1:
 E= -268.201009865353     Delta-E=       -0.000003691638 Rises=F Damp=F
 DIIS: error= 4.69D-05 at cycle   7 NSaved=   7.
 NSaved= 7 IEnMin= 7 EnMin= -268.201009865353     IErMin= 7 ErrMin= 4.69D-05
 ErrMax= 4.69D-05  0.00D+00 EMaxC= 1.00D-01 BMatC= 2.03D-07 BMatP= 2.47D-06
 IDIUse=1 WtCom= 1.00D+00 WtEn= 0.00D+00
 Coeff-Com:  0.373D-03-0.382D-02-0.200D-01-0.341D-01-0.186D-03 0.303D+00
 Coeff-Com:  0.755D+00
 Coeff:      0.373D-03-0.382D-02-0.200D-01-0.341D-01-0.186D-03 0.303D+00
 Coeff:      0.755D+00
 Gap=     0.407 Goal=   None    Shift=    0.000
 RMSDP=2.53D-05 MaxDP=5.39D-04 DE=-3.69D-06 OVMax= 1.95D-04

 Cycle   8  Pass 1  IDiag  1:
 E= -268.201010182985     Delta-E=       -0.000000317632 Rises=F Damp=F
 DIIS: error= 9.98D-06 at cycle   8 NSaved=   8.
 NSaved= 8 IEnMin= 8 EnMin= -268.201010182985     IErMin= 8 ErrMin= 9.98D-06
 ErrMax= 9.98D-06  0.00D+00 EMaxC= 1.00D-01 BMatC= 1.08D-08 BMatP= 2.03D-07
 IDIUse=1 WtCom= 1.00D+00 WtEn= 0.00D+00
 Coeff-Com: -0.454D-05 0.779D-03 0.287D-02 0.312D-02-0.331D-02-0.104D+00
 Coeff-Com: -0.167D-01 0.112D+01
 Coeff:     -0.454D-05 0.779D-03 0.287D-02 0.312D-02-0.331D-02-0.104D+00
 Coeff:     -0.167D-01 0.112D+01
 Gap=     0.407 Goal=   None    Shift=    0.000
 RMSDP=7.33D-06 MaxDP=9.52D-05 DE=-3.18D-07 OVMax= 1.18D-04

 Cycle   9  Pass 1  IDiag  1:
 E= -268.201010212390     Delta-E=       -0.000000029406 Rises=F Damp=F
 DIIS: error= 3.35D-06 at cycle   9 NSaved=   9.
 NSaved= 9 IEnMin= 9 EnMin= -268.201010212390     IErMin= 9 ErrMin= 3.35D-06
 ErrMax= 3.35D-06  0.00D+00 EMaxC= 1.00D-01 BMatC= 4.25D-10 BMatP= 1.08D-08
 IDIUse=1 WtCom= 1.00D+00 WtEn= 0.00D+00
 Coeff-Com: -0.155D-04 0.135D-03 0.794D-03 0.144D-02 0.142D-02-0.670D-02
 Coeff-Com: -0.347D-01-0.103D+00 0.114D+01
 Coeff:     -0.155D-04 0.135D-03 0.794D-03 0.144D-02 0.142D-02-0.670D-02
 Coeff:     -0.347D-01-0.103D+00 0.114D+01
 Gap=     0.407 Goal=   None    Shift=    0.000
 RMSDP=1.91D-06 MaxDP=3.27D-05 DE=-2.94D-08 OVMax= 3.76D-05

 Cycle  10  Pass 1  IDiag  1:
 E= -268.201010214294     Delta-E=       -0.000000001903 Rises=F Damp=F
 DIIS: error= 1.21D-06 at cycle  10 NSaved=  10.
 NSaved=10 IEnMin=10 EnMin= -268.201010214294     IErMin=10 ErrMin= 1.21D-06
 ErrMax= 1.21D-06  0.00D+00 EMaxC= 1.00D-01 BMatC= 3.65D-11 BMatP= 4.25D-10
 IDIUse=1 WtCom= 1.00D+00 WtEn= 0.00D+00
 Coeff-Com:  0.172D-05-0.607D-04-0.254D-03-0.332D-03 0.253D-03 0.713D-02
 Coeff-Com:  0.364D-02-0.607D-01-0.108D+00 0.116D+01
 Coeff:      0.172D-05-0.607D-04-0.254D-03-0.332D-03 0.253D-03 0.713D-02
 Coeff:      0.364D-02-0.607D-01-0.108D+00 0.116D+01
 Gap=     0.407 Goal=   None    Shift=    0.000
 RMSDP=6.11D-07 MaxDP=1.07D-05 DE=-1.90D-09 OVMax= 1.53D-05

 Cycle  11  Pass 1  IDiag  1:
 E= -268.201010214526     Delta-E=       -0.000000000233 Rises=F Damp=F
 DIIS: error= 3.78D-07 at cycle  11 NSaved=  11.
 NSaved=11 IEnMin=11 EnMin= -268.201010214526     IErMin=11 ErrMin= 3.78D-07
 ErrMax= 3.78D-07  0.00D+00 EMaxC= 1.00D-01 BMatC= 8.43D-12 BMatP= 3.65D-11
 IDIUse=1 WtCom= 1.00D+00 WtEn= 0.00D+00
 Coeff-Com:  0.210D-05-0.317D-04-0.161D-03-0.257D-03-0.140D-03 0.261D-02
 Coeff-Com:  0.502D-02-0.231D-02-0.174D+00 0.321D+00 0.849D+00
 Coeff:      0.210D-05-0.317D-04-0.161D-03-0.257D-03-0.140D-03 0.261D-02
 Coeff:      0.502D-02-0.231D-02-0.174D+00 0.321D+00 0.849D+00
 Gap=     0.407 Goal=   None    Shift=    0.000
 RMSDP=1.43D-07 MaxDP=1.79D-06 DE=-2.33D-10 OVMax= 5.43D-06

 Cycle  12  Pass 1  IDiag  1:
 E= -268.201010214554     Delta-E=       -0.000000000027 Rises=F Damp=F
 DIIS: error= 1.34D-07 at cycle  12 NSaved=  12.
 NSaved=12 IEnMin=12 EnMin= -268.201010214554     IErMin=12 ErrMin= 1.34D-07
 ErrMax= 1.34D-07  0.00D+00 EMaxC= 1.00D-01 BMatC= 1.01D-12 BMatP= 8.43D-12
 IDIUse=1 WtCom= 1.00D+00 WtEn= 0.00D+00
 Coeff-Com: -0.355D-06 0.120D-04 0.494D-04 0.672D-04-0.933D-04-0.142D-02
 Coeff-Com: -0.707D-03 0.126D-01 0.187D-01-0.228D+00 0.803D-02 0.119D+01
 Coeff:     -0.355D-06 0.120D-04 0.494D-04 0.672D-04-0.933D-04-0.142D-02
 Coeff:     -0.707D-03 0.126D-01 0.187D-01-0.228D+00 0.803D-02 0.119D+01
 Gap=     0.407 Goal=   None    Shift=    0.000
 RMSDP=8.68D-08 MaxDP=1.19D-06 DE=-2.73D-11 OVMax= 3.00D-06

 Cycle  13  Pass 1  IDiag  1:
 E= -268.201010214561     Delta-E=       -0.000000000007 Rises=F Damp=F
 DIIS: error= 2.33D-08 at cycle  13 NSaved=  13.
 NSaved=13 IEnMin=13 EnMin= -268.201010214561     IErMin=13 ErrMin= 2.33D-08
 ErrMax= 2.33D-08  0.00D+00 EMaxC= 1.00D-01 BMatC= 2.67D-14 BMatP= 1.01D-12
 IDIUse=1 WtCom= 1.00D+00 WtEn= 0.00D+00
 Coeff-Com: -0.378D-07-0.540D-06-0.271D-06 0.275D-05 0.187D-04 0.149D-03
 Coeff-Com: -0.102D-03-0.223D-02 0.474D-02 0.278D-01-0.403D-01-0.224D+00
 Coeff-Com:  0.123D+01
 Coeff:     -0.378D-07-0.540D-06-0.271D-06 0.275D-05 0.187D-04 0.149D-03
 Coeff:     -0.102D-03-0.223D-02 0.474D-02 0.278D-01-0.403D-01-0.224D+00
 Coeff:      0.123D+01
 Gap=     0.407 Goal=   None    Shift=    0.000
 RMSDP=1.72D-08 MaxDP=2.42D-07 DE=-6.93D-12 OVMax= 3.94D-07

 Cycle  14  Pass 1  IDiag  1:
 E= -268.201010214560     Delta-E=        0.000000000001 Rises=F Damp=F
 DIIS: error= 5.40D-09 at cycle  14 NSaved=  14.
 NSaved=14 IEnMin=13 EnMin= -268.201010214561     IErMin=14 ErrMin= 5.40D-09
 ErrMax= 5.40D-09  0.00D+00 EMaxC= 1.00D-01 BMatC= 1.12D-15 BMatP= 2.67D-14
 IDIUse=1 WtCom= 1.00D+00 WtEn= 0.00D+00
 Coeff-Com:  0.197D-07-0.114D-06-0.122D-05-0.228D-05-0.334D-05-0.965D-05
 Coeff-Com:  0.526D-04 0.309D-03-0.198D-02-0.135D-02 0.119D-01 0.310D-01
 Coeff-Com: -0.399D+00 0.136D+01
 Coeff:      0.197D-07-0.114D-06-0.122D-05-0.228D-05-0.334D-05-0.965D-05
 Coeff:      0.526D-04 0.309D-03-0.198D-02-0.135D-02 0.119D-01 0.310D-01
 Coeff:     -0.399D+00 0.136D+01
 Gap=     0.407 Goal=   None    Shift=    0.000
 RMSDP=3.33D-09 MaxDP=6.15D-08 DE= 9.09D-13 OVMax= 7.41D-08

 SCF Done:  E(RwB97XD) =  -268.201010215     A.U. after   14 cycles
            NFock= 14  Conv=0.33D-08     -V/T= 2.0057
 KE= 2.666698841668D+02 PE=-9.844769545532D+02 EE= 2.711496884263D+02
 Leave Link  502 at Wed May 26 09:01:16 2021, MaxMem=  2147483648 cpu:        15.4
 (Enter /opt/cluster/programs/g09_d.01/g09/l601.exe)
 Copying SCF densities to generalized density rwf, IOpCl= 0 IROHF=0.

 **********************************************************************

            Population analysis using the SCF density.

 **********************************************************************

 Orbital symmetries:
       Occupied  (A) (A) (A) (A) (A) (A) (A) (A) (A) (A) (A) (A)
                 (A) (A) (A) (A) (A) (A) (A) (A)
       Virtual   (A) (A) (A) (A) (A) (A) (A) (A) (A) (A) (A) (A)
                 (A) (A) (A) (A) (A) (A) (A) (A) (A) (A) (A) (A)
                 (A) (A) (A) (A) (A) (A) (A) (A) (A) (A) (A) (A)
                 (A) (A) (A) (A) (A) (A) (A) (A) (A) (A) (A) (A)
                 (A) (A) (A) (A) (A) (A) (A) (A) (A)
 The electronic state is 1-A.
 Alpha  occ. eigenvalues --  -19.30414 -19.28788 -10.45558 -10.36439 -10.31581
 Alpha  occ. eigenvalues --   -1.21571  -1.13644  -0.87608  -0.82088  -0.66498
 Alpha  occ. eigenvalues --   -0.59703  -0.58331  -0.57230  -0.53041  -0.52606
 Alpha  occ. eigenvalues --   -0.50713  -0.47081  -0.43029  -0.37933  -0.36725
 Alpha virt. eigenvalues --    0.03942   0.06706   0.08004   0.09940   0.10409
 Alpha virt. eigenvalues --    0.10948   0.12454   0.13103   0.14729   0.15087
 Alpha virt. eigenvalues --    0.16517   0.17314   0.19745   0.22858   0.24222
 Alpha virt. eigenvalues --    0.26083   0.27465   0.28564   0.29705   0.32393
 Alpha virt. eigenvalues --    0.33240   0.34790   0.36053   0.37751   0.38540
 Alpha virt. eigenvalues --    0.40217   0.41020   0.42588   0.43494   0.45766
 Alpha virt. eigenvalues --    0.56269   0.71371   0.72790   0.75034   0.75776
 Alpha virt. eigenvalues --    0.77802   0.82075   0.88593   0.90567   0.93550
 Alpha virt. eigenvalues --    1.06287   1.10114   1.10997   1.15245   1.16266
 Alpha virt. eigenvalues --    1.19558   1.24208   1.28293   1.34389   1.38582
 Alpha virt. eigenvalues --    1.40797   1.44619   1.47174   1.54351   1.60330
 Alpha virt. eigenvalues --    1.92395   2.01725
          Condensed to atoms (all electrons):
               1          2          3          4          5          6
     1  C    6.733071  -0.480303   0.367916   0.345098   0.343109  -0.490139
     2  C   -0.480303   5.729198  -0.033970  -0.012790  -0.012568   0.241366
     3  H    0.367916  -0.033970   0.451005  -0.020855  -0.022083   0.000088
     4  H    0.345098  -0.012790  -0.020855   0.463161  -0.023533   0.010372
     5  H    0.343109  -0.012568  -0.022083  -0.023533   0.482638   0.002397
     6  O   -0.490139   0.241366   0.000088   0.010372   0.002397   8.779636
     7  O   -0.147761   0.341707   0.003487  -0.002229   0.000069  -0.195045
     8  C   -0.044390  -0.126731   0.000894   0.000234   0.002478   0.125501
     9  H   -0.003960  -0.000606  -0.000006   0.000022  -0.000115  -0.050875
    10  H   -0.002122  -0.001083   0.000000   0.000003   0.000004  -0.050684
    11  H    0.009924   0.001894   0.000084  -0.000104   0.000677  -0.060291
               7          8          9         10         11
     1  C   -0.147761  -0.044390  -0.003960  -0.002122   0.009924
     2  C    0.341707  -0.126731  -0.000606  -0.001083   0.001894
     3  H    0.003487   0.000894  -0.000006   0.000000   0.000084
     4  H   -0.002229   0.000234   0.000022   0.000003  -0.000104
     5  H    0.000069   0.002478  -0.000115   0.000004   0.000677
     6  O   -0.195045   0.125501  -0.050875  -0.050684  -0.060291
     7  O    8.396815  -0.017066   0.011988  -0.000599  -0.003107
     8  C   -0.017066   5.294184   0.380862   0.400524   0.374403
     9  H    0.011988   0.380862   0.506424  -0.026120  -0.040790
    10  H   -0.000599   0.400524  -0.026120   0.481364  -0.029300
    11  H   -0.003107   0.374403  -0.040790  -0.029300   0.550749
 Mulliken charges:
               1
     1  C   -0.630442
     2  C    0.353886
     3  H    0.253441
     4  H    0.240620
     5  H    0.226925
     6  O   -0.312327
     7  O   -0.388260
     8  C   -0.390893
     9  H    0.223176
    10  H    0.228013
    11  H    0.195861
 Sum of Mulliken charges =   0.00000
 Mulliken charges with hydrogens summed into heavy atoms:
               1
     1  C    0.090544
     2  C    0.353886
     6  O   -0.312327
     7  O   -0.388260
     8  C    0.256156
 Electronic spatial extent (au):  <R**2>=            434.9218
 Charge=              0.0000 electrons
 Dipole moment (field-independent basis, Debye):
    X=              1.0291    Y=             -3.0806    Z=              1.4536  Tot=              3.5584
 Quadrupole moment (field-independent basis, Debye-Ang):
   XX=            -25.6300   YY=            -34.2527   ZZ=            -31.1871
   XY=              3.1466   XZ=              2.3316   YZ=             -0.8651
 Traceless Quadrupole moment (field-independent basis, Debye-Ang):
   XX=              4.7266   YY=             -3.8961   ZZ=             -0.8305
   XY=              3.1466   XZ=              2.3316   YZ=             -0.8651
 Octapole moment (field-independent basis, Debye-Ang**2):
  XXX=              9.4753  YYY=             -5.6670  ZZZ=             -0.1352  XYY=              3.5341
  XXY=             -3.4790  XXZ=              0.1903  XZZ=             -1.1266  YZZ=              0.1038
  YYZ=             -0.2298  XYZ=              0.2924
 Hexadecapole moment (field-independent basis, Debye-Ang**3):
 XXXX=           -307.6576 YYYY=           -167.7685 ZZZZ=            -63.4484 XXXY=             -1.7011
 XXXZ=             -4.9202 YYYX=              4.2666 YYYZ=             -0.3901 ZZZX=              1.6008
 ZZZY=              0.4948 XXYY=            -85.7863 XXZZ=            -65.5447 YYZZ=            -34.4801
 XXYZ=              1.4666 YYXZ=              2.8408 ZZXY=             -0.0148
 N-N= 1.784563717455D+02 E-N=-9.844769546245D+02  KE= 2.666698841668D+02
 No NMR shielding tensors so no spin-rotation constants.
 Leave Link  601 at Wed May 26 09:01:16 2021, MaxMem=  2147483648 cpu:         0.6
 (Enter /opt/cluster/programs/g09_d.01/g09/l701.exe)
 Compute integral first derivatives.
 ... and contract with generalized density number  0.
 R6Disp: Adding Grimme-D2 dispersion energy 1st derivatives to the gradient.
 Leave Link  701 at Wed May 26 09:01:16 2021, MaxMem=  2147483648 cpu:         0.6
 (Enter /opt/cluster/programs/g09_d.01/g09/l702.exe)
 L702 exits ... SP integral derivatives will be done elsewhere.
 Leave Link  702 at Wed May 26 09:01:17 2021, MaxMem=  2147483648 cpu:         0.2
 (Enter /opt/cluster/programs/g09_d.01/g09/l703.exe)
 Compute integral first derivatives, UseDBF=F ICtDFT=           0.
 Integral derivatives from FoFJK, PRISM(SPDF).
 Calling FoFJK, ICntrl=      2127 FMM=F ISym2X=0 I1Cent= 0 IOpClX= 0 NMat=1 NMatS=1 NMatT=0.
 FoFJK:  IHMeth= 1 ICntrl=    2127 DoSepK=T KAlg= 0 I1Cent=   0 FoldK=F
 IRaf=         1 NMat=   1 IRICut=       1 DoRegI=T DoRafI=F ISym2E= 0.
 FoFCou: FMM=F IPFlag=           0 FMFlag=      100000 FMFlg1=         800
         NFxFlg=           0 DoJE=F BraDBF=F KetDBF=F FulRan=T
         wScrn=  0.000000 ICntrl=    2527 IOpCl=  0 I1Cent=           0 NGrid=           0
         NMat0=    1 NMatS0=      1 NMatT0=    0 NMatD0=    1 NMtDS0=    0 NMtDT0=    0
 Symmetry not used in FoFCou.
 Leave Link  703 at Wed May 26 09:01:17 2021, MaxMem=  2147483648 cpu:         3.6
 (Enter /opt/cluster/programs/g09_d.01/g09/l716.exe)
 Dipole        = 4.04873239D-01-1.21200836D+00 5.71906653D-01
 ***** Axes restored to original set *****
 -------------------------------------------------------------------
 Center     Atomic                   Forces (Hartrees/Bohr)
 Number     Number              X              Y              Z
 -------------------------------------------------------------------
      1        6           0.001423986    0.000330026    0.003764582
      2        6          -0.002446278    0.001569020   -0.004992117
      3        1           0.000009570   -0.000001740   -0.000011825
      4        1           0.000004963    0.000012226   -0.000007163
      5        1           0.000006247    0.000000229   -0.000007551
      6        8           0.001832140   -0.006060257    0.000446953
      7        8          -0.000002547   -0.000000996    0.000004661
      8        6          -0.000832823    0.004144686    0.000774034
      9        1          -0.000007252    0.000005565    0.000012881
     10        1           0.000009517   -0.000003806    0.000010001
     11        1           0.000002477    0.000005047    0.000005544
 -------------------------------------------------------------------
 Cartesian Forces:  Max     0.006060257 RMS     0.001812679
 Leave Link  716 at Wed May 26 09:01:17 2021, MaxMem=  2147483648 cpu:         0.2
 (Enter /opt/cluster/programs/g09_d.01/g09/l103.exe)

 GradGradGradGradGradGradGradGradGradGradGradGradGradGradGradGradGradGrad
 Berny optimization.
 FormGI is forming the generalized inverse of G from B-inverse, IUseBI=4.
 Internal  Forces:  Max     0.006493576 RMS     0.001360195
 Search for a local minimum.
 Step number   1 out of a maximum of   47
 All quantities printed in internal units (Hartrees-Bohrs-Radians)
 RMS Force = .11246D-04 SwitMx=.10000D-02 MixMth= 2
 Mixed Optimization -- En-DIIS/RFO-DIIS
 Second derivative matrix not updated -- first step.
 ITU=  0
     Eigenvalues ---    0.00791   0.00899   0.01163   0.07351   0.07578
     Eigenvalues ---    0.10056   0.10599   0.16000   0.16000   0.16000
     Eigenvalues ---    0.16000   0.16000   0.16000   0.24998   0.25000
     Eigenvalues ---    0.25000   0.32573   0.34182   0.34211   0.34357
     Eigenvalues ---    0.34432   0.34843   0.35121   0.36973   0.46723
     Eigenvalues ---    0.939341000.000001000.000001000.000001000.00000
     Eigenvalues --- 1000.000001000.000001000.000001000.000001000.00000
     Eigenvalues --- 1000.000001000.00000
 RFO step:  Lambda=-2.50904791D-08 EMin= 7.90551336D-03
 Linear search not attempted -- first point.
 Iteration  1 RMS(Cart)=  0.00028014 RMS(Int)=  0.00000005
 Iteration  2 RMS(Cart)=  0.00000005 RMS(Int)=  0.00000000
 Iteration  1 RMS(Cart)=  0.00000000 RMS(Int)=  0.00000000
 ITry= 1 IFail=0 DXMaxC= 6.92D-04 DCOld= 1.00D+10 DXMaxT= 3.00D-01 DXLimC= 3.00D+00 Rises=F
 Variable       Old X    -DE/DX   Delta X   Delta X   Delta X     New X
                                 (Linear)    (Quad)   (Total)
    R1        2.83107   0.00000   0.00000  -0.00001  -0.00001   2.83106
    R2        2.06731   0.00000   0.00000   0.00000   0.00000   2.06730
    R3        2.05930   0.00001   0.00000   0.00002   0.00002   2.05932
    R4        2.07025   0.00000   0.00000   0.00000   0.00000   2.07025
    R5        2.63325   0.00002   0.00000   0.00005   0.00005   2.63330
    R6        2.31171   0.00000   0.00000   0.00000   0.00000   2.31171
    R7        2.75886   0.00001   0.00000   0.00003   0.00003   2.75889
    R8        2.06608   0.00000   0.00000   0.00001   0.00001   2.06609
    R9        2.05480  -0.00001   0.00000  -0.00001  -0.00001   2.05478
   R10        2.06976  -0.00001   0.00000  -0.00002  -0.00002   2.06974
    A1        1.91736   0.00001   0.00000   0.00004   0.00004   1.91740
    A2        1.92648  -0.00001   0.00000  -0.00008  -0.00008   1.92640
    A3        1.91013   0.00001   0.00000   0.00009   0.00009   1.91021
    A4        1.92111   0.00000   0.00000  -0.00004  -0.00004   1.92107
    A5        1.87181   0.00000   0.00000   0.00000   0.00000   1.87180
    A6        1.91616   0.00000   0.00000  -0.00001  -0.00001   1.91615
    A7        1.97470  -0.00001   0.00000  -0.00006  -0.00006   1.97463
    A8        2.19146   0.00005   0.00000   0.00003   0.00003   2.19148
    A9        2.11697  -0.00001   0.00000   0.00004   0.00004   2.11701
   A10        2.05425  -0.00005   0.00000  -0.00020  -0.00020   2.05404
   A11        1.92443   0.00000   0.00000   0.00000   0.00000   1.92443
   A12        1.83955  -0.00001   0.00000  -0.00009  -0.00009   1.83947
   A13        1.92311   0.00000   0.00000   0.00000   0.00000   1.92311
   A14        1.92434   0.00000   0.00000  -0.00002  -0.00002   1.92433
   A15        1.93034   0.00001   0.00000   0.00005   0.00005   1.93039
   A16        1.92017   0.00001   0.00000   0.00005   0.00005   1.92022
    D1       -0.99379   0.00128   0.00000  -0.00009  -0.00009  -0.99388
    D2        2.15919  -0.00129   0.00000  -0.00005  -0.00005   2.15914
    D3       -3.11543   0.00129   0.00000  -0.00002  -0.00002  -3.11545
    D4        0.03755  -0.00128   0.00000   0.00002   0.00002   0.03757
    D5        1.05699   0.00129   0.00000  -0.00001  -0.00001   1.05698
    D6       -2.07321  -0.00128   0.00000   0.00002   0.00002  -2.07319
    D7       -1.75606  -0.00649   0.00000   0.00000   0.00000  -1.75606
    D8        1.37469  -0.00405   0.00000  -0.00003  -0.00003   1.37466
    D9       -0.99922  -0.00001   0.00000  -0.00052  -0.00052  -0.99975
   D10       -3.07579   0.00000   0.00000  -0.00045  -0.00045  -3.07624
   D11        1.13646   0.00000   0.00000  -0.00046  -0.00046   1.13600
         Item               Value     Threshold  Converged?
 Maximum Force            0.000051     0.000450     YES
 RMS     Force            0.000011     0.000300     YES
 Maximum Displacement     0.000692     0.001800     YES
 RMS     Displacement     0.000280     0.001200     YES
 Predicted change in Energy=-1.254562D-08
 Optimization completed.
    -- Stationary point found.
                           ----------------------------
                           !   Optimized Parameters   !
                           ! (Angstroms and Degrees)  !
 --------------------------                            --------------------------
 ! Name  Definition              Value          Derivative Info.                !
 --------------------------------------------------------------------------------
 ! R1    R(1,2)                  1.4981         -DE/DX =    0.0                 !
 ! R2    R(1,3)                  1.094          -DE/DX =    0.0                 !
 ! R3    R(1,4)                  1.0897         -DE/DX =    0.0                 !
 ! R4    R(1,5)                  1.0955         -DE/DX =    0.0                 !
 ! R5    R(2,6)                  1.3935         -DE/DX =    0.0                 !
 ! R6    R(2,7)                  1.2233         -DE/DX =    0.0                 !
 ! R7    R(6,8)                  1.4599         -DE/DX =    0.0                 !
 ! R8    R(8,9)                  1.0933         -DE/DX =    0.0                 !
 ! R9    R(8,10)                 1.0874         -DE/DX =    0.0                 !
 ! R10   R(8,11)                 1.0953         -DE/DX =    0.0                 !
 ! A1    A(2,1,3)              109.8567         -DE/DX =    0.0                 !
 ! A2    A(2,1,4)              110.3792         -DE/DX =    0.0                 !
 ! A3    A(2,1,5)              109.4421         -DE/DX =    0.0                 !
 ! A4    A(3,1,4)              110.0716         -DE/DX =    0.0                 !
 ! A5    A(3,1,5)              107.2466         -DE/DX =    0.0                 !
 ! A6    A(4,1,5)              109.7877         -DE/DX =    0.0                 !
 ! A7    A(1,2,6)              113.142          -DE/DX =    0.0                 !
 ! A8    A(1,2,7)              125.5612         -DE/DX =    0.0                 !
 ! A9    A(6,2,7)              121.2936         -DE/DX =    0.0                 !
 ! A10   A(2,6,8)              117.6997         -DE/DX =   -0.0001              !
 ! A11   A(6,8,9)              110.2615         -DE/DX =    0.0                 !
 ! A12   A(6,8,10)             105.3986         -DE/DX =    0.0                 !
 ! A13   A(6,8,11)             110.186          -DE/DX =    0.0                 !
 ! A14   A(9,8,10)             110.2567         -DE/DX =    0.0                 !
 ! A15   A(9,8,11)             110.6005         -DE/DX =    0.0                 !
 ! A16   A(10,8,11)            110.0179         -DE/DX =    0.0                 !
 ! D1    D(3,1,2,6)            -56.94           -DE/DX =    0.0013              !
 ! D2    D(3,1,2,7)            123.7125         -DE/DX =   -0.0013              !
 ! D3    D(4,1,2,6)           -178.5012         -DE/DX =    0.0013              !
 ! D4    D(4,1,2,7)              2.1513         -DE/DX =   -0.0013              !
 ! D5    D(5,1,2,6)             60.5611         -DE/DX =    0.0013              !
 ! D6    D(5,1,2,7)           -118.7864         -DE/DX =   -0.0013              !
 ! D7    D(1,2,6,8)           -100.6146         -DE/DX =   -0.0065              !
 ! D8    D(7,2,6,8)             78.7642         -DE/DX =   -0.004               !
 ! D9    D(2,6,8,9)            -57.2514         -DE/DX =    0.0                 !
 ! D10   D(2,6,8,10)          -176.2295         -DE/DX =    0.0                 !
 ! D11   D(2,6,8,11)            65.1142         -DE/DX =    0.0                 !
 --------------------------------------------------------------------------------
 Lowest energy point so far.  Saving SCF results.
 GradGradGradGradGradGradGradGradGradGradGradGradGradGradGradGradGradGrad

 Largest change from initial coordinates is atom   10       0.000 Angstoms.
 Leave Link  103 at Wed May 26 09:01:17 2021, MaxMem=  2147483648 cpu:         0.0
 (Enter /opt/cluster/programs/g09_d.01/g09/l202.exe)
                          Input orientation:                          
 ---------------------------------------------------------------------
 Center     Atomic      Atomic             Coordinates (Angstroms)
 Number     Number       Type             X           Y           Z
 ---------------------------------------------------------------------
      1          6           0        1.420841   -0.966467   -0.128650
      2          6           0        0.531035    0.214999    0.109692
      3          1           0        1.547083   -1.530011    0.800467
      4          1           0        2.391006   -0.641349   -0.503622
      5          1           0        0.948839   -1.637963   -0.854245
      6          8           0       -0.716706   -0.133788    0.622729
      7          8           0        0.820811    1.381390   -0.118425
      8          6           0       -1.843232   -0.179285   -0.304772
      9          1           0       -1.965144    0.787739   -0.800104
     10          1           0       -2.713435   -0.400476    0.308541
     11          1           0       -1.693046   -0.974235   -1.043088
 ---------------------------------------------------------------------
                    Distance matrix (angstroms):
                    1          2          3          4          5
     1  C    0.000000
     2  C    1.498140   0.000000
     3  H    1.093973   2.134147   0.000000
     4  H    1.089737   2.137517   1.789574   0.000000
     5  H    1.095528   2.130071   1.762845   1.787742   0.000000
     6  O    2.413925   1.393455   2.665665   3.344273   2.686640
     7  O    2.423339   1.223305   3.138167   2.589471   3.110356
     8  C    3.362268   2.442209   3.813168   4.264014   3.197706
     9  H    3.872077   2.717843   4.502170   4.594152   3.791867
    10  H    4.195679   3.308313   4.435071   5.174258   4.036793
    11  H    3.245389   2.773034   3.769087   4.132955   2.730522
                    6          7          8          9         10
     6  O    0.000000
     7  O    2.282330   0.000000
     8  C    1.459928   3.093147   0.000000
     9  H    2.105294   2.928934   1.093321   0.000000
    10  H    2.038814   3.980985   1.087351   1.789103   0.000000
    11  H    2.105834   3.566994   1.095268   1.799342   1.788098
                   11
    11  H    0.000000
 Stoichiometry    C3H6O2
 Framework group  C1[X(C3H6O2)]
 Deg. of freedom    27
 Full point group                 C1      NOp   1
 RotChk:  IX=0 Diff= 1.26D-15
 Largest Abelian subgroup         C1      NOp   1
 Largest concise Abelian subgroup C1      NOp   1
                         Standard orientation:                         
 ---------------------------------------------------------------------
 Center     Atomic      Atomic             Coordinates (Angstroms)
 Number     Number       Type             X           Y           Z
 ---------------------------------------------------------------------
      1          6           0       -1.420841   -0.966467    0.128650
      2          6           0       -0.531035    0.214999   -0.109692
      3          1           0       -1.547083   -1.530011   -0.800467
      4          1           0       -2.391006   -0.641349    0.503622
      5          1           0       -0.948839   -1.637963    0.854245
      6          8           0        0.716706   -0.133788   -0.622729
      7          8           0       -0.820811    1.381390    0.118425
      8          6           0        1.843232   -0.179285    0.304772
      9          1           0        1.965144    0.787739    0.800104
     10          1           0        2.713435   -0.400476   -0.308541
     11          1           0        1.693046   -0.974235    1.043088
 ---------------------------------------------------------------------
 Rotational constants (GHZ):      8.2971619      4.1359322      3.1469162
 Leave Link  202 at Wed May 26 09:01:17 2021, MaxMem=  2147483648 cpu:         0.0
 (Enter /opt/cluster/programs/g09_d.01/g09/l9999.exe)
 1\1\GINC-NODE07\FOpt\RwB97XD\6-31+G\C3H6O2\BOITTIER\26-May-2021\0\\#p 
 wB97XD/6-31+G Opt=ModRedun\\O.pdb\\0,1\C,1.420841,-0.966467,-0.12865\C
 ,0.531035,0.214999,0.109692\H,1.547083,-1.530011,0.800467\H,2.391006,-
 0.641349,-0.503622\H,0.948839,-1.637963,-0.854245\O,-0.716706,-0.13378
 8,0.622729\O,0.820811,1.38139,-0.118425\C,-1.843232,-0.179285,-0.30477
 2\H,-1.965144,0.787739,-0.800104\H,-2.713435,-0.400476,0.308541\H,-1.6
 93046,-0.974235,-1.043088\\Version=ES64L-G09RevD.01\State=1-A\HF=-268.
 2010102\RMSD=3.333e-09\RMSF=1.813e-03\Dipole=-0.4048733,-1.2120083,-0.
 5719067\Quadrupole=3.5141095,-2.896656,-0.6174535,-2.339384,1.7334736,
 0.643183\PG=C01 [X(C3H6O2)]\\@


 TELEVISION IS CALLED A MEDIUM BECAUSE IT ISN'T
 RARE, AND IT ISN'T WELL DONE.
 Job cpu time:       0 days  0 hours  0 minutes 28.6 seconds.
 File lengths (MBytes):  RWF=      5 Int=      0 D2E=      0 Chk=      2 Scr=      1
 Normal termination of Gaussian 09 at Wed May 26 09:01:17 2021.
