 Entering Gaussian System, Link 0=/opt/cluster/programs/g09_d.01/g09//g09
 Input=/home/unibas/boittier/RDKit_G2/O.pdb/SCAN_1_2_6_8_S_17_20.0/16_SCAN_1_2_6_8_F/16_SCAN_O.pdb.com
 Output=/scratch/boittier/16_SCAN_O.pdb/16_SCAN_O.pdb.out
 Initial command:
 /opt/cluster/programs/g09_d.01/g09/l1.exe "/scratch/boittier/16_SCAN_O.pdb/Gau-146078.inp" -scrdir="/scratch/boittier/16_SCAN_O.pdb/"
 Entering Link 1 = /opt/cluster/programs/g09_d.01/g09/l1.exe PID=    146080.
  
 Copyright (c) 1988,1990,1992,1993,1995,1998,2003,2009,2013,
            Gaussian, Inc.  All Rights Reserved.
  
 This is part of the Gaussian(R) 09 program.  It is based on
 the Gaussian(R) 03 system (copyright 2003, Gaussian, Inc.),
 the Gaussian(R) 98 system (copyright 1998, Gaussian, Inc.),
 the Gaussian(R) 94 system (copyright 1995, Gaussian, Inc.),
 the Gaussian 92(TM) system (copyright 1992, Gaussian, Inc.),
 the Gaussian 90(TM) system (copyright 1990, Gaussian, Inc.),
 the Gaussian 88(TM) system (copyright 1988, Gaussian, Inc.),
 the Gaussian 86(TM) system (copyright 1986, Carnegie Mellon
 University), and the Gaussian 82(TM) system (copyright 1983,
 Carnegie Mellon University). Gaussian is a federally registered
 trademark of Gaussian, Inc.
  
 This software contains proprietary and confidential information,
 including trade secrets, belonging to Gaussian, Inc.
  
 This software is provided under written license and may be
 used, copied, transmitted, or stored only in accord with that
 written license.
  
 The following legend is applicable only to US Government
 contracts under FAR:
  
                    RESTRICTED RIGHTS LEGEND
  
 Use, reproduction and disclosure by the US Government is
 subject to restrictions as set forth in subparagraphs (a)
 and (c) of the Commercial Computer Software - Restricted
 Rights clause in FAR 52.227-19.
  
 Gaussian, Inc.
 340 Quinnipiac St., Bldg. 40, Wallingford CT 06492
  
  
 ---------------------------------------------------------------
 Warning -- This program may not be used in any manner that
 competes with the business of Gaussian, Inc. or will provide
 assistance to any competitor of Gaussian, Inc.  The licensee
 of this program is prohibited from giving any competitor of
 Gaussian, Inc. access to this program.  By using this program,
 the user acknowledges that Gaussian, Inc. is engaged in the
 business of creating and licensing software in the field of
 computational chemistry and represents and warrants to the
 licensee that it is not a competitor of Gaussian, Inc. and that
 it will not use this program in any manner prohibited above.
 ---------------------------------------------------------------
  

 Cite this work as:
 Gaussian 09, Revision D.01,
 M. J. Frisch, G. W. Trucks, H. B. Schlegel, G. E. Scuseria, 
 M. A. Robb, J. R. Cheeseman, G. Scalmani, V. Barone, B. Mennucci, 
 G. A. Petersson, H. Nakatsuji, M. Caricato, X. Li, H. P. Hratchian, 
 A. F. Izmaylov, J. Bloino, G. Zheng, J. L. Sonnenberg, M. Hada, 
 M. Ehara, K. Toyota, R. Fukuda, J. Hasegawa, M. Ishida, T. Nakajima, 
 Y. Honda, O. Kitao, H. Nakai, T. Vreven, J. A. Montgomery, Jr., 
 J. E. Peralta, F. Ogliaro, M. Bearpark, J. J. Heyd, E. Brothers, 
 K. N. Kudin, V. N. Staroverov, T. Keith, R. Kobayashi, J. Normand, 
 K. Raghavachari, A. Rendell, J. C. Burant, S. S. Iyengar, J. Tomasi, 
 M. Cossi, N. Rega, J. M. Millam, M. Klene, J. E. Knox, J. B. Cross, 
 V. Bakken, C. Adamo, J. Jaramillo, R. Gomperts, R. E. Stratmann, 
 O. Yazyev, A. J. Austin, R. Cammi, C. Pomelli, J. W. Ochterski, 
 R. L. Martin, K. Morokuma, V. G. Zakrzewski, G. A. Voth, 
 P. Salvador, J. J. Dannenberg, S. Dapprich, A. D. Daniels, 
 O. Farkas, J. B. Foresman, J. V. Ortiz, J. Cioslowski, 
 and D. J. Fox, Gaussian, Inc., Wallingford CT, 2013.
 
 ******************************************
 Gaussian 09:  ES64L-G09RevD.01 24-Apr-2013
                26-May-2021 
 ******************************************
 %chk=/home/unibas/boittier/RDKit_G2/O.pdb/SCAN_1_2_6_8_S_17_20.0/16_SCAN_1_2_6_8
 _F/O.pdb.chk
 %nproc=8
 Will use up to    8 processors via shared memory.
 %mem=16GB
 -----------------------------
 #p wB97XD/6-31+G Opt=ModRedun
 -----------------------------
 1/14=-1,18=120,19=15,26=3,38=1/1,3;
 2/9=110,12=2,17=6,18=5,40=1/2;
 3/5=1,6=6,7=10,11=2,16=1,25=1,30=1,71=1,74=-58/1,2,3;
 4//1;
 5/5=2,38=5/2;
 6/7=2,8=2,9=2,10=2,28=1/1;
 7//1,2,3,16;
 1/14=-1,18=20,19=15,26=3/3(2);
 2/9=110/2;
 99//99;
 2/9=110/2;
 3/5=1,6=6,7=10,11=2,16=1,25=1,30=1,71=1,74=-58/1,2,3;
 4/5=5,16=3,69=1/1;
 5/5=2,38=5/2;
 7//1,2,3,16;
 1/14=-1,18=20,19=15,26=3/3(-5);
 2/9=110/2;
 6/7=2,8=2,9=2,10=2,19=2,28=1/1;
 99/9=1/99;
 Leave Link    1 at Wed May 26 09:01:16 2021, MaxMem=  2147483648 cpu:         0.2
 (Enter /opt/cluster/programs/g09_d.01/g09/l101.exe)
 -----
 O.pdb
 -----
 Symbolic Z-matrix:
 Charge =  0 Multiplicity = 1
 C                     1.71455  -0.64282   0.14815 
 C                     0.4976    0.18606  -0.12273 
 H                     1.61675  -1.07308   1.15073 
 H                     2.60932  -0.02179   0.10743 
 H                     1.79148  -1.47     -0.56088 
 O                    -0.6094   -0.59143  -0.37209 
 O                     0.43075   1.40926  -0.01848 
 C                    -1.88337  -0.1655    0.20796 
 H                    -1.78503  -0.11419   1.295 
 H                    -2.59375  -0.93635  -0.07999 
 H                    -2.18229   0.80634  -0.188 
 
 The following ModRedundant input section has been read:
 D       1       2       6       8 F                                           
 
 NAtoms=     11 NQM=       11 NQMF=       0 NMMI=      0 NMMIF=      0
                NMic=       0 NMicF=      0.
                    Isotopes and Nuclear Properties:
 (Nuclear quadrupole moments (NQMom) in fm**2, nuclear magnetic moments (NMagM)
  in nuclear magnetons)

  Atom         1           2           3           4           5           6           7           8           9          10
 IAtWgt=          12          12           1           1           1          16          16          12           1           1
 AtmWgt=  12.0000000  12.0000000   1.0078250   1.0078250   1.0078250  15.9949146  15.9949146  12.0000000   1.0078250   1.0078250
 NucSpn=           0           0           1           1           1           0           0           0           1           1
 AtZEff=   0.0000000   0.0000000   0.0000000   0.0000000   0.0000000   0.0000000   0.0000000   0.0000000   0.0000000   0.0000000
 NQMom=    0.0000000   0.0000000   0.0000000   0.0000000   0.0000000   0.0000000   0.0000000   0.0000000   0.0000000   0.0000000
 NMagM=    0.0000000   0.0000000   2.7928460   2.7928460   2.7928460   0.0000000   0.0000000   0.0000000   2.7928460   2.7928460
 AtZNuc=   6.0000000   6.0000000   1.0000000   1.0000000   1.0000000   8.0000000   8.0000000   6.0000000   1.0000000   1.0000000

  Atom        11
 IAtWgt=           1
 AtmWgt=   1.0078250
 NucSpn=           1
 AtZEff=   0.0000000
 NQMom=    0.0000000
 NMagM=    2.7928460
 AtZNuc=   1.0000000
 Leave Link  101 at Wed May 26 09:01:17 2021, MaxMem=  2147483648 cpu:         4.2
 (Enter /opt/cluster/programs/g09_d.01/g09/l103.exe)

 GradGradGradGradGradGradGradGradGradGradGradGradGradGradGradGradGradGrad
 Berny optimization.
 Initialization pass.
                           ----------------------------
                           !    Initial Parameters    !
                           ! (Angstroms and Degrees)  !
 --------------------------                            --------------------------
 ! Name  Definition              Value          Derivative Info.                !
 --------------------------------------------------------------------------------
 ! R1    R(1,2)                  1.4971         estimate D2E/DX2                !
 ! R2    R(1,3)                  1.0954         estimate D2E/DX2                !
 ! R3    R(1,4)                  1.0899         estimate D2E/DX2                !
 ! R4    R(1,5)                  1.0922         estimate D2E/DX2                !
 ! R5    R(2,6)                  1.3755         estimate D2E/DX2                !
 ! R6    R(2,7)                  1.2295         estimate D2E/DX2                !
 ! R7    R(6,8)                  1.4632         estimate D2E/DX2                !
 ! R8    R(8,9)                  1.0927         estimate D2E/DX2                !
 ! R9    R(8,10)                 1.0871         estimate D2E/DX2                !
 ! R10   R(8,11)                 1.0911         estimate D2E/DX2                !
 ! A1    A(2,1,3)              108.0893         estimate D2E/DX2                !
 ! A2    A(2,1,4)              110.1873         estimate D2E/DX2                !
 ! A3    A(2,1,5)              111.0456         estimate D2E/DX2                !
 ! A4    A(3,1,4)              109.3479         estimate D2E/DX2                !
 ! A5    A(3,1,5)              107.6366         estimate D2E/DX2                !
 ! A6    A(4,1,5)              110.4544         estimate D2E/DX2                !
 ! A7    A(1,2,6)              111.9646         estimate D2E/DX2                !
 ! A8    A(1,2,7)              125.4289         estimate D2E/DX2                !
 ! A9    A(6,2,7)              122.2731         estimate D2E/DX2                !
 ! A10   A(2,6,8)              117.6652         estimate D2E/DX2                !
 ! A11   A(6,8,9)              109.25           estimate D2E/DX2                !
 ! A12   A(6,8,10)             104.9244         estimate D2E/DX2                !
 ! A13   A(6,8,11)             110.7279         estimate D2E/DX2                !
 ! A14   A(9,8,10)             110.8321         estimate D2E/DX2                !
 ! A15   A(9,8,11)             110.1113         estimate D2E/DX2                !
 ! A16   A(10,8,11)            110.8803         estimate D2E/DX2                !
 ! D1    D(3,1,2,6)            -73.9264         estimate D2E/DX2                !
 ! D2    D(3,1,2,7)             99.5377         estimate D2E/DX2                !
 ! D3    D(4,1,2,6)            166.6384         estimate D2E/DX2                !
 ! D4    D(4,1,2,7)            -19.8975         estimate D2E/DX2                !
 ! D5    D(5,1,2,6)             43.9261         estimate D2E/DX2                !
 ! D6    D(5,1,2,7)           -142.6097         estimate D2E/DX2                !
 ! D7    D(1,2,6,8)            139.3854         Frozen                          !
 ! D8    D(7,2,6,8)            -34.3168         estimate D2E/DX2                !
 ! D9    D(2,6,8,9)            -58.8602         estimate D2E/DX2                !
 ! D10   D(2,6,8,10)          -177.7366         estimate D2E/DX2                !
 ! D11   D(2,6,8,11)            62.5771         estimate D2E/DX2                !
 --------------------------------------------------------------------------------
 Trust Radius=3.00D-01 FncErr=1.00D-07 GrdErr=1.00D-06
 Number of steps in this run=     47 maximum allowed number of steps=    100.
 GradGradGradGradGradGradGradGradGradGradGradGradGradGradGradGradGradGrad

 Leave Link  103 at Wed May 26 09:01:17 2021, MaxMem=  2147483648 cpu:         0.1
 (Enter /opt/cluster/programs/g09_d.01/g09/l202.exe)
                          Input orientation:                          
 ---------------------------------------------------------------------
 Center     Atomic      Atomic             Coordinates (Angstroms)
 Number     Number       Type             X           Y           Z
 ---------------------------------------------------------------------
      1          6           0        1.714554   -0.642816    0.148149
      2          6           0        0.497604    0.186059   -0.122729
      3          1           0        1.616754   -1.073077    1.150728
      4          1           0        2.609320   -0.021788    0.107430
      5          1           0        1.791484   -1.470003   -0.560875
      6          8           0       -0.609395   -0.591431   -0.372091
      7          8           0        0.430745    1.409258   -0.018483
      8          6           0       -1.883373   -0.165500    0.207964
      9          1           0       -1.785027   -0.114185    1.295004
     10          1           0       -2.593754   -0.936350   -0.079989
     11          1           0       -2.182291    0.806335   -0.188003
 ---------------------------------------------------------------------
                    Distance matrix (angstroms):
                    1          2          3          4          5
     1  C    0.000000
     2  C    1.497123   0.000000
     3  H    1.095378   2.111780   0.000000
     4  H    1.089927   2.134366   1.782938   0.000000
     5  H    1.092187   2.146774   1.765691   1.792432   0.000000
     6  O    2.382022   1.375543   2.739836   3.303719   2.563542
     7  O    2.426302   1.229452   2.989257   2.609585   3.230471
     8  C    3.629943   2.429404   3.736762   4.496115   3.974596
     9  H    3.720456   2.703797   3.537288   4.552928   4.251348
    10  H    4.324318   3.289092   4.388819   5.286164   4.443686
    11  H    4.171143   2.751516   4.444900   4.871612   4.594740
                    6          7          8          9         10
     6  O    0.000000
     7  O    2.282474   0.000000
     8  C    1.463182   2.808253   0.000000
     9  H    2.095013   2.992620   1.092685   0.000000
    10  H    2.035184   3.827957   1.087091   1.794603   0.000000
    11  H    2.112259   2.687045   1.091149   1.790108   1.793856
                   11
    11  H    0.000000
 Stoichiometry    C3H6O2
 Framework group  C1[X(C3H6O2)]
 Deg. of freedom    27
 Full point group                 C1      NOp   1
 Largest Abelian subgroup         C1      NOp   1
 Largest concise Abelian subgroup C1      NOp   1
                         Standard orientation:                         
 ---------------------------------------------------------------------
 Center     Atomic      Atomic             Coordinates (Angstroms)
 Number     Number       Type             X           Y           Z
 ---------------------------------------------------------------------
      1          6           0        1.714554   -0.642816    0.148149
      2          6           0        0.497604    0.186059   -0.122729
      3          1           0        1.616754   -1.073077    1.150728
      4          1           0        2.609320   -0.021788    0.107430
      5          1           0        1.791484   -1.470003   -0.560875
      6          8           0       -0.609395   -0.591431   -0.372091
      7          8           0        0.430745    1.409258   -0.018483
      8          6           0       -1.883373   -0.165501    0.207964
      9          1           0       -1.785027   -0.114186    1.295004
     10          1           0       -2.593754   -0.936351   -0.079989
     11          1           0       -2.182291    0.806334   -0.188003
 ---------------------------------------------------------------------
 Rotational constants (GHZ):      9.3226863      4.0775233      3.0610094
 Leave Link  202 at Wed May 26 09:01:17 2021, MaxMem=  2147483648 cpu:         0.0
 (Enter /opt/cluster/programs/g09_d.01/g09/l301.exe)
 Standard basis: 6-31+G (6D, 7F)
 Ernie: Thresh=  0.10000D-02 Tol=  0.10000D-05 Strict=F.
 There are    77 symmetry adapted cartesian basis functions of A   symmetry.
 There are    77 symmetry adapted basis functions of A   symmetry.
    77 basis functions,   154 primitive gaussians,    77 cartesian basis functions
    20 alpha electrons       20 beta electrons
       nuclear repulsion energy       179.1154414328 Hartrees.
 IExCor= 4639 DFT=T Ex+Corr=wB97XD ExCW=0 ScaHFX=  1.000000
 ScaDFX=  1.000000  1.000000  1.000000  1.000000 ScalE2=  1.000000  1.000000
 IRadAn=      0 IRanWt=     -1 IRanGd=            0 ICorTp=0 IEmpDi=121
  HFx wShort=  0.000000 wLong=  0.200000 cFull=  0.222036 cShort=  0.000000 cLong=  0.777964
  DFx wShort=  0.000000 wLong=  0.200000 cFull=  0.000000 cShort=  0.000000 cLong=  1.000000
 NAtoms=   11 NActive=   11 NUniq=   11 SFac= 1.00D+00 NAtFMM=   60 NAOKFM=F Big=F
 Integral buffers will be    131072 words long.
 Raffenetti 2 integral format.
 Two-electron integral symmetry is turned on.
 R6Disp:  Grimme-D2 Dispersion energy=       -0.0031801280 Hartrees.
 Nuclear repulsion after empirical dispersion term =      179.1122613048 Hartrees.
 Leave Link  301 at Wed May 26 09:01:17 2021, MaxMem=  2147483648 cpu:         0.3
 (Enter /opt/cluster/programs/g09_d.01/g09/l302.exe)
 NPDir=0 NMtPBC=     1 NCelOv=     1 NCel=       1 NClECP=     1 NCelD=      1
         NCelK=      1 NCelE2=     1 NClLst=     1 CellRange=     0.0.
 One-electron integrals computed using PRISM.
 NBasis=    77 RedAO= T EigKep=  1.30D-04  NBF=    77
 NBsUse=    77 1.00D-06 EigRej= -1.00D+00 NBFU=    77
 Precomputing XC quadrature grid using
 IXCGrd= 4 IRadAn=           0 IRanWt=          -1 IRanGd=           0 AccXCQ= 0.00D+00.
 Generated NRdTot=       0 NPtTot=           0 NUsed=           0 NTot=          32
 NSgBfM=    77    77    77    77    77 MxSgAt=    11 MxSgA2=    11.
 Leave Link  302 at Wed May 26 09:01:17 2021, MaxMem=  2147483648 cpu:         0.9
 (Enter /opt/cluster/programs/g09_d.01/g09/l303.exe)
 DipDrv:  MaxL=1.
 Leave Link  303 at Wed May 26 09:01:17 2021, MaxMem=  2147483648 cpu:         0.3
 (Enter /opt/cluster/programs/g09_d.01/g09/l401.exe)
 ExpMin= 4.38D-02 ExpMax= 5.48D+03 ExpMxC= 8.25D+02 IAcc=2 IRadAn=         4 AccDes= 0.00D+00
 Harris functional with IExCor= 4639 and IRadAn=       4 diagonalized for initial guess.
 HarFok:  IExCor= 4639 AccDes= 0.00D+00 IRadAn=         4 IDoV= 1 UseB2=F ITyADJ=14
 ICtDFT=  3500011 ScaDFX=  1.000000  1.000000  1.000000  1.000000
 FoFCou: FMM=F IPFlag=           0 FMFlag=      100000 FMFlg1=           0
         NFxFlg=           0 DoJE=T BraDBF=F KetDBF=T FulRan=T
         wScrn=  0.000000 ICntrl=     500 IOpCl=  0 I1Cent=   200000004 NGrid=           0
         NMat0=    1 NMatS0=      1 NMatT0=    0 NMatD0=    1 NMtDS0=    0 NMtDT0=    0
 Petite list used in FoFCou.
 Harris En= -257.362806519027    
 JPrj=0 DoOrth=F DoCkMO=F.
 Leave Link  401 at Wed May 26 09:01:17 2021, MaxMem=  2147483648 cpu:         1.4
 (Enter /opt/cluster/programs/g09_d.01/g09/l502.exe)
 Closed shell SCF:
 Using DIIS extrapolation, IDIIS=  1040.
 Integral symmetry usage will be decided dynamically.
 Keep R1 ints in memory in canonical form, NReq=9956864.
 IVT=       37546 IEndB=       37546 NGot=  2147483648 MDV=  2138425091
 LenX=  2138425091 LenY=  2138418721
 Requested convergence on RMS density matrix=1.00D-08 within 128 cycles.
 Requested convergence on MAX density matrix=1.00D-06.
 Requested convergence on             energy=1.00D-06.
 No special actions if energy rises.
 FoFCou: FMM=F IPFlag=           0 FMFlag=           0 FMFlg1=           0
         NFxFlg=           0 DoJE=F BraDBF=F KetDBF=F FulRan=T
         wScrn=  0.000000 ICntrl=     600 IOpCl=  0 I1Cent=           0 NGrid=           0
         NMat0=    1 NMatS0=   3003 NMatT0=    0 NMatD0=    1 NMtDS0=    0 NMtDT0=    0
 Symmetry not used in FoFCou.

 Cycle   1  Pass 1  IDiag  1:
 E= -268.120817361251    
 DIIS: error= 2.78D-02 at cycle   1 NSaved=   1.
 NSaved= 1 IEnMin= 1 EnMin= -268.120817361251     IErMin= 1 ErrMin= 2.78D-02
 ErrMax= 2.78D-02  0.00D+00 EMaxC= 1.00D-01 BMatC= 1.43D-01 BMatP= 1.43D-01
 IDIUse=3 WtCom= 7.22D-01 WtEn= 2.78D-01
 Coeff-Com:  0.100D+01
 Coeff-En:   0.100D+01
 Coeff:      0.100D+01
 Gap=     0.525 Goal=   None    Shift=    0.000
 GapD=    0.525 DampG=2.000 DampE=0.500 DampFc=1.0000 IDamp=-1.
 RMSDP=1.03D-02 MaxDP=2.11D-01              OVMax= 9.74D-02

 Cycle   2  Pass 1  IDiag  1:
 E= -268.137385936522     Delta-E=       -0.016568575271 Rises=F Damp=F
 DIIS: error= 3.27D-02 at cycle   2 NSaved=   2.
 NSaved= 2 IEnMin= 2 EnMin= -268.137385936522     IErMin= 1 ErrMin= 2.78D-02
 ErrMax= 3.27D-02  0.00D+00 EMaxC= 1.00D-01 BMatC= 9.86D-02 BMatP= 1.43D-01
 IDIUse=3 WtCom= 6.73D-01 WtEn= 3.27D-01
 Coeff-Com:  0.446D+00 0.554D+00
 Coeff-En:   0.443D+00 0.557D+00
 Coeff:      0.445D+00 0.555D+00
 Gap=     0.434 Goal=   None    Shift=    0.000
 RMSDP=5.57D-03 MaxDP=8.00D-02 DE=-1.66D-02 OVMax= 7.58D-02

 Cycle   3  Pass 1  IDiag  1:
 E= -268.205920834671     Delta-E=       -0.068534898148 Rises=F Damp=F
 DIIS: error= 9.71D-03 at cycle   3 NSaved=   3.
 NSaved= 3 IEnMin= 3 EnMin= -268.205920834671     IErMin= 3 ErrMin= 9.71D-03
 ErrMax= 9.71D-03  0.00D+00 EMaxC= 1.00D-01 BMatC= 9.82D-03 BMatP= 9.86D-02
 IDIUse=3 WtCom= 9.03D-01 WtEn= 9.71D-02
 Coeff-Com:  0.102D+00 0.258D+00 0.640D+00
 Coeff-En:   0.000D+00 0.000D+00 0.100D+01
 Coeff:      0.920D-01 0.233D+00 0.675D+00
 Gap=     0.446 Goal=   None    Shift=    0.000
 RMSDP=1.58D-03 MaxDP=2.42D-02 DE=-6.85D-02 OVMax= 3.92D-02

 Cycle   4  Pass 1  IDiag  1:
 E= -268.211637386744     Delta-E=       -0.005716552073 Rises=F Damp=F
 DIIS: error= 4.16D-03 at cycle   4 NSaved=   4.
 NSaved= 4 IEnMin= 4 EnMin= -268.211637386744     IErMin= 4 ErrMin= 4.16D-03
 ErrMax= 4.16D-03  0.00D+00 EMaxC= 1.00D-01 BMatC= 2.17D-03 BMatP= 9.82D-03
 IDIUse=3 WtCom= 9.58D-01 WtEn= 4.16D-02
 Coeff-Com: -0.234D-02 0.526D-01 0.371D+00 0.579D+00
 Coeff-En:   0.000D+00 0.000D+00 0.177D+00 0.823D+00
 Coeff:     -0.224D-02 0.504D-01 0.363D+00 0.589D+00
 Gap=     0.421 Goal=   None    Shift=    0.000
 RMSDP=1.15D-03 MaxDP=2.21D-02 DE=-5.72D-03 OVMax= 1.11D-02

 Cycle   5  Pass 1  IDiag  1:
 E= -268.213193794919     Delta-E=       -0.001556408176 Rises=F Damp=F
 DIIS: error= 9.61D-04 at cycle   5 NSaved=   5.
 NSaved= 5 IEnMin= 5 EnMin= -268.213193794919     IErMin= 5 ErrMin= 9.61D-04
 ErrMax= 9.61D-04  0.00D+00 EMaxC= 1.00D-01 BMatC= 1.09D-04 BMatP= 2.17D-03
 IDIUse=3 WtCom= 9.90D-01 WtEn= 9.61D-03
 Coeff-Com: -0.588D-02 0.105D-01 0.153D+00 0.311D+00 0.531D+00
 Coeff-En:   0.000D+00 0.000D+00 0.000D+00 0.000D+00 0.100D+01
 Coeff:     -0.583D-02 0.104D-01 0.152D+00 0.308D+00 0.536D+00
 Gap=     0.418 Goal=   None    Shift=    0.000
 RMSDP=1.53D-04 MaxDP=2.21D-03 DE=-1.56D-03 OVMax= 2.44D-03

 Cycle   6  Pass 1  IDiag  1:
 E= -268.213280731244     Delta-E=       -0.000086936325 Rises=F Damp=F
 DIIS: error= 1.26D-04 at cycle   6 NSaved=   6.
 NSaved= 6 IEnMin= 6 EnMin= -268.213280731244     IErMin= 6 ErrMin= 1.26D-04
 ErrMax= 1.26D-04  0.00D+00 EMaxC= 1.00D-01 BMatC= 2.34D-06 BMatP= 1.09D-04
 IDIUse=3 WtCom= 9.99D-01 WtEn= 1.26D-03
 Coeff-Com: -0.177D-03-0.706D-02-0.288D-01-0.418D-01 0.455D-01 0.103D+01
 Coeff-En:   0.000D+00 0.000D+00 0.000D+00 0.000D+00 0.000D+00 0.100D+01
 Coeff:     -0.177D-03-0.705D-02-0.287D-01-0.417D-01 0.454D-01 0.103D+01
 Gap=     0.419 Goal=   None    Shift=    0.000
 RMSDP=1.85D-04 MaxDP=4.06D-03 DE=-8.69D-05 OVMax= 1.04D-03

 Cycle   7  Pass 1  IDiag  1:
 E= -268.213285088517     Delta-E=       -0.000004357273 Rises=F Damp=F
 DIIS: error= 4.56D-05 at cycle   7 NSaved=   7.
 NSaved= 7 IEnMin= 7 EnMin= -268.213285088517     IErMin= 7 ErrMin= 4.56D-05
 ErrMax= 4.56D-05  0.00D+00 EMaxC= 1.00D-01 BMatC= 2.54D-07 BMatP= 2.34D-06
 IDIUse=1 WtCom= 1.00D+00 WtEn= 0.00D+00
 Coeff-Com:  0.457D-03-0.304D-02-0.194D-01-0.366D-01-0.201D-01 0.314D+00
 Coeff-Com:  0.765D+00
 Coeff:      0.457D-03-0.304D-02-0.194D-01-0.366D-01-0.201D-01 0.314D+00
 Coeff:      0.765D+00
 Gap=     0.419 Goal=   None    Shift=    0.000
 RMSDP=3.13D-05 MaxDP=5.67D-04 DE=-4.36D-06 OVMax= 2.85D-04

 Cycle   8  Pass 1  IDiag  1:
 E= -268.213285516474     Delta-E=       -0.000000427957 Rises=F Damp=F
 DIIS: error= 1.43D-05 at cycle   8 NSaved=   8.
 NSaved= 8 IEnMin= 8 EnMin= -268.213285516474     IErMin= 8 ErrMin= 1.43D-05
 ErrMax= 1.43D-05  0.00D+00 EMaxC= 1.00D-01 BMatC= 1.73D-08 BMatP= 2.54D-07
 IDIUse=1 WtCom= 1.00D+00 WtEn= 0.00D+00
 Coeff-Com: -0.330D-04 0.899D-03 0.444D-02 0.541D-02-0.213D-02-0.137D+00
 Coeff-Com: -0.519D-01 0.118D+01
 Coeff:     -0.330D-04 0.899D-03 0.444D-02 0.541D-02-0.213D-02-0.137D+00
 Coeff:     -0.519D-01 0.118D+01
 Gap=     0.419 Goal=   None    Shift=    0.000
 RMSDP=1.06D-05 MaxDP=1.18D-04 DE=-4.28D-07 OVMax= 1.88D-04

 Cycle   9  Pass 1  IDiag  1:
 E= -268.213285569505     Delta-E=       -0.000000053031 Rises=F Damp=F
 DIIS: error= 2.71D-06 at cycle   9 NSaved=   9.
 NSaved= 9 IEnMin= 9 EnMin= -268.213285569505     IErMin= 9 ErrMin= 2.71D-06
 ErrMax= 2.71D-06  0.00D+00 EMaxC= 1.00D-01 BMatC= 5.20D-10 BMatP= 1.73D-08
 IDIUse=1 WtCom= 1.00D+00 WtEn= 0.00D+00
 Coeff-Com: -0.131D-04 0.308D-04 0.396D-03 0.892D-03 0.207D-02 0.400D-02
 Coeff-Com: -0.291D-01-0.148D+00 0.117D+01
 Coeff:     -0.131D-04 0.308D-04 0.396D-03 0.892D-03 0.207D-02 0.400D-02
 Coeff:     -0.291D-01-0.148D+00 0.117D+01
 Gap=     0.419 Goal=   None    Shift=    0.000
 RMSDP=2.32D-06 MaxDP=3.31D-05 DE=-5.30D-08 OVMax= 3.34D-05

 Cycle  10  Pass 1  IDiag  1:
 E= -268.213285571460     Delta-E=       -0.000000001954 Rises=F Damp=F
 DIIS: error= 7.50D-07 at cycle  10 NSaved=  10.
 NSaved=10 IEnMin=10 EnMin= -268.213285571460     IErMin=10 ErrMin= 7.50D-07
 ErrMax= 7.50D-07  0.00D+00 EMaxC= 1.00D-01 BMatC= 3.88D-11 BMatP= 5.20D-10
 IDIUse=1 WtCom= 1.00D+00 WtEn= 0.00D+00
 Coeff-Com:  0.531D-06-0.441D-04-0.188D-03-0.207D-03 0.431D-03 0.787D-02
 Coeff-Com: -0.172D-02-0.803D-01 0.164D+00 0.910D+00
 Coeff:      0.531D-06-0.441D-04-0.188D-03-0.207D-03 0.431D-03 0.787D-02
 Coeff:     -0.172D-02-0.803D-01 0.164D+00 0.910D+00
 Gap=     0.419 Goal=   None    Shift=    0.000
 RMSDP=4.49D-07 MaxDP=6.88D-06 DE=-1.95D-09 OVMax= 6.81D-06

 Cycle  11  Pass 1  IDiag  1:
 E= -268.213285571577     Delta-E=       -0.000000000118 Rises=F Damp=F
 DIIS: error= 2.89D-07 at cycle  11 NSaved=  11.
 NSaved=11 IEnMin=11 EnMin= -268.213285571577     IErMin=11 ErrMin= 2.89D-07
 ErrMax= 2.89D-07  0.00D+00 EMaxC= 1.00D-01 BMatC= 7.42D-12 BMatP= 3.88D-11
 IDIUse=1 WtCom= 1.00D+00 WtEn= 0.00D+00
 Coeff-Com:  0.147D-05-0.164D-04-0.101D-03-0.169D-03-0.158D-03 0.169D-02
 Coeff-Com:  0.285D-02-0.381D-02-0.102D+00 0.263D+00 0.839D+00
 Coeff:      0.147D-05-0.164D-04-0.101D-03-0.169D-03-0.158D-03 0.169D-02
 Coeff:      0.285D-02-0.381D-02-0.102D+00 0.263D+00 0.839D+00
 Gap=     0.419 Goal=   None    Shift=    0.000
 RMSDP=1.28D-07 MaxDP=2.03D-06 DE=-1.18D-10 OVMax= 3.31D-06

 Cycle  12  Pass 1  IDiag  1:
 E= -268.213285571595     Delta-E=       -0.000000000018 Rises=F Damp=F
 DIIS: error= 1.57D-07 at cycle  12 NSaved=  12.
 NSaved=12 IEnMin=12 EnMin= -268.213285571595     IErMin=12 ErrMin= 1.57D-07
 ErrMax= 1.57D-07  0.00D+00 EMaxC= 1.00D-01 BMatC= 5.16D-13 BMatP= 7.42D-12
 IDIUse=1 WtCom= 1.00D+00 WtEn= 0.00D+00
 Coeff-Com: -0.348D-06 0.766D-05 0.379D-04 0.531D-04-0.502D-04-0.121D-02
 Coeff-Com: -0.267D-03 0.103D-01-0.499D-02-0.146D+00-0.133D+00 0.128D+01
 Coeff:     -0.348D-06 0.766D-05 0.379D-04 0.531D-04-0.502D-04-0.121D-02
 Coeff:     -0.267D-03 0.103D-01-0.499D-02-0.146D+00-0.133D+00 0.128D+01
 Gap=     0.419 Goal=   None    Shift=    0.000
 RMSDP=7.49D-08 MaxDP=1.43D-06 DE=-1.81D-11 OVMax= 2.06D-06

 Cycle  13  Pass 1  IDiag  1:
 E= -268.213285571601     Delta-E=       -0.000000000006 Rises=F Damp=F
 DIIS: error= 3.95D-08 at cycle  13 NSaved=  13.
 NSaved=13 IEnMin=13 EnMin= -268.213285571601     IErMin=13 ErrMin= 3.95D-08
 ErrMax= 3.95D-08  0.00D+00 EMaxC= 1.00D-01 BMatC= 2.89D-14 BMatP= 5.16D-13
 IDIUse=1 WtCom= 1.00D+00 WtEn= 0.00D+00
 Coeff-Com: -0.174D-07-0.678D-06-0.157D-05 0.124D-05 0.253D-04 0.197D-03
 Coeff-Com: -0.117D-03-0.247D-02 0.856D-02 0.237D-01-0.226D-01-0.357D+00
 Coeff-Com:  0.135D+01
 Coeff:     -0.174D-07-0.678D-06-0.157D-05 0.124D-05 0.253D-04 0.197D-03
 Coeff:     -0.117D-03-0.247D-02 0.856D-02 0.237D-01-0.226D-01-0.357D+00
 Coeff:      0.135D+01
 Gap=     0.419 Goal=   None    Shift=    0.000
 RMSDP=1.96D-08 MaxDP=2.31D-07 DE=-5.68D-12 OVMax= 5.70D-07

 Cycle  14  Pass 1  IDiag  1:
 E= -268.213285571599     Delta-E=        0.000000000002 Rises=F Damp=F
 DIIS: error= 6.82D-09 at cycle  14 NSaved=  14.
 NSaved=14 IEnMin=13 EnMin= -268.213285571601     IErMin=14 ErrMin= 6.82D-09
 ErrMax= 6.82D-09  0.00D+00 EMaxC= 1.00D-01 BMatC= 1.19D-15 BMatP= 2.89D-14
 IDIUse=1 WtCom= 1.00D+00 WtEn= 0.00D+00
 Coeff-Com:  0.167D-07-0.859D-08-0.791D-06-0.206D-05-0.505D-05-0.239D-04
 Coeff-Com:  0.483D-04 0.378D-03-0.243D-02-0.117D-02 0.117D-01 0.569D-01
 Coeff-Com: -0.430D+00 0.136D+01
 Coeff:      0.167D-07-0.859D-08-0.791D-06-0.206D-05-0.505D-05-0.239D-04
 Coeff:      0.483D-04 0.378D-03-0.243D-02-0.117D-02 0.117D-01 0.569D-01
 Coeff:     -0.430D+00 0.136D+01
 Gap=     0.419 Goal=   None    Shift=    0.000
 RMSDP=3.29D-09 MaxDP=3.81D-08 DE= 2.39D-12 OVMax= 9.76D-08

 SCF Done:  E(RwB97XD) =  -268.213285572     A.U. after   14 cycles
            NFock= 14  Conv=0.33D-08     -V/T= 2.0057
 KE= 2.666799514232D+02 PE=-9.858526952780D+02 EE= 2.718471969784D+02
 Leave Link  502 at Wed May 26 09:01:19 2021, MaxMem=  2147483648 cpu:        15.4
 (Enter /opt/cluster/programs/g09_d.01/g09/l601.exe)
 Copying SCF densities to generalized density rwf, IOpCl= 0 IROHF=0.

 **********************************************************************

            Population analysis using the SCF density.

 **********************************************************************

 Orbital symmetries:
       Occupied  (A) (A) (A) (A) (A) (A) (A) (A) (A) (A) (A) (A)
                 (A) (A) (A) (A) (A) (A) (A) (A)
       Virtual   (A) (A) (A) (A) (A) (A) (A) (A) (A) (A) (A) (A)
                 (A) (A) (A) (A) (A) (A) (A) (A) (A) (A) (A) (A)
                 (A) (A) (A) (A) (A) (A) (A) (A) (A) (A) (A) (A)
                 (A) (A) (A) (A) (A) (A) (A) (A) (A) (A) (A) (A)
                 (A) (A) (A) (A) (A) (A) (A) (A) (A)
 The electronic state is 1-A.
 Alpha  occ. eigenvalues --  -19.31830 -19.27931 -10.45192 -10.35847 -10.31199
 Alpha  occ. eigenvalues --   -1.22035  -1.13520  -0.87936  -0.81593  -0.66484
 Alpha  occ. eigenvalues --   -0.59584  -0.58485  -0.56843  -0.53064  -0.51878
 Alpha  occ. eigenvalues --   -0.49863  -0.46565  -0.43727  -0.38643  -0.36744
 Alpha virt. eigenvalues --    0.05125   0.07114   0.08191   0.10101   0.10291
 Alpha virt. eigenvalues --    0.11070   0.12735   0.13080   0.15285   0.15789
 Alpha virt. eigenvalues --    0.16382   0.19163   0.20513   0.22588   0.24550
 Alpha virt. eigenvalues --    0.25914   0.27159   0.28228   0.30002   0.31692
 Alpha virt. eigenvalues --    0.33556   0.35015   0.35600   0.36839   0.37062
 Alpha virt. eigenvalues --    0.39677   0.41261   0.42192   0.43225   0.45696
 Alpha virt. eigenvalues --    0.55889   0.71975   0.74248   0.74578   0.75890
 Alpha virt. eigenvalues --    0.77939   0.82965   0.84691   0.92178   0.94034
 Alpha virt. eigenvalues --    1.07639   1.09542   1.12585   1.15963   1.17822
 Alpha virt. eigenvalues --    1.20680   1.25124   1.28060   1.32440   1.36639
 Alpha virt. eigenvalues --    1.41257   1.43629   1.46095   1.48540   1.61118
 Alpha virt. eigenvalues --    1.96107   2.00286
          Condensed to atoms (all electrons):
               1          2          3          4          5          6
     1  C    7.053215  -0.795236   0.351486   0.349794   0.359576  -0.559507
     2  C   -0.795236   6.013234  -0.008237  -0.015080  -0.026650   0.266410
     3  H    0.351486  -0.008237   0.464684  -0.021596  -0.022093  -0.000550
     4  H    0.349794  -0.015080  -0.021596   0.463604  -0.022792   0.010911
     5  H    0.359576  -0.026650  -0.022093  -0.022792   0.460601   0.002021
     6  O   -0.559507   0.266410  -0.000550   0.010911   0.002021   8.894323
     7  O   -0.064344   0.282041  -0.004356  -0.004596   0.005857  -0.233825
     8  C   -0.032522  -0.095216  -0.000645   0.000138  -0.000012   0.060372
     9  H    0.008051  -0.004803   0.000187  -0.000021   0.000005  -0.054237
    10  H    0.000074   0.003785  -0.000013   0.000001  -0.000005  -0.058512
    11  H   -0.006902  -0.001795  -0.000016   0.000012  -0.000004  -0.028893
               7          8          9         10         11
     1  C   -0.064344  -0.032522   0.008051   0.000074  -0.006902
     2  C    0.282041  -0.095216  -0.004803   0.003785  -0.001795
     3  H   -0.004356  -0.000645   0.000187  -0.000013  -0.000016
     4  H   -0.004596   0.000138  -0.000021   0.000001   0.000012
     5  H    0.005857  -0.000012   0.000005  -0.000005  -0.000004
     6  O   -0.233825   0.060372  -0.054237  -0.058512  -0.028893
     7  O    8.474549  -0.026433   0.001375  -0.000082   0.005149
     8  C   -0.026433   5.300830   0.386160   0.400429   0.378708
     9  H    0.001375   0.386160   0.516924  -0.027353  -0.034889
    10  H   -0.000082   0.400429  -0.027353   0.486134  -0.026719
    11  H    0.005149   0.378708  -0.034889  -0.026719   0.482683
 Mulliken charges:
               1
     1  C   -0.663686
     2  C    0.381546
     3  H    0.241149
     4  H    0.239626
     5  H    0.243495
     6  O   -0.298515
     7  O   -0.435335
     8  C   -0.371808
     9  H    0.208602
    10  H    0.222260
    11  H    0.232666
 Sum of Mulliken charges =   0.00000
 Mulliken charges with hydrogens summed into heavy atoms:
               1
     1  C    0.060584
     2  C    0.381546
     6  O   -0.298515
     7  O   -0.435335
     8  C    0.291720
 Electronic spatial extent (au):  <R**2>=            436.4286
 Charge=              0.0000 electrons
 Dipole moment (field-independent basis, Debye):
    X=             -0.5683    Y=             -2.1670    Z=              1.0769  Tot=              2.4856
 Quadrupole moment (field-independent basis, Debye-Ang):
   XX=            -23.5651   YY=            -36.2129   ZZ=            -29.9993
   XY=             -2.4075   XZ=             -0.9300   YZ=             -1.0148
 Traceless Quadrupole moment (field-independent basis, Debye-Ang):
   XX=              6.3607   YY=             -6.2871   ZZ=             -0.0735
   XY=             -2.4075   XZ=             -0.9300   YZ=             -1.0148
 Octapole moment (field-independent basis, Debye-Ang**2):
  XXX=             -7.6534  YYY=             -6.5858  ZZZ=              1.0951  XYY=             -2.3366
  XXY=             -2.3974  XXZ=              0.2743  XZZ=              0.0973  YZZ=              0.0594
  YYZ=             -0.4190  XYZ=              0.3728
 Hexadecapole moment (field-independent basis, Debye-Ang**3):
 XXXX=           -335.9467 YYYY=           -158.0241 ZZZZ=            -48.5986 XXXY=              7.6804
 XXXZ=              0.9574 YYYX=             -3.5718 YYYZ=              0.7964 ZZZX=             -0.7520
 ZZZY=             -1.1809 XXYY=            -82.2009 XXZZ=            -69.3218 YYZZ=            -32.2042
 XXYZ=              0.3480 YYXZ=             -0.0258 ZZXY=             -1.1803
 N-N= 1.791122613048D+02 E-N=-9.858526953663D+02  KE= 2.666799514232D+02
 No NMR shielding tensors so no spin-rotation constants.
 Leave Link  601 at Wed May 26 09:01:19 2021, MaxMem=  2147483648 cpu:         0.6
 (Enter /opt/cluster/programs/g09_d.01/g09/l701.exe)
 Compute integral first derivatives.
 ... and contract with generalized density number  0.
 R6Disp: Adding Grimme-D2 dispersion energy 1st derivatives to the gradient.
 Leave Link  701 at Wed May 26 09:01:19 2021, MaxMem=  2147483648 cpu:         0.6
 (Enter /opt/cluster/programs/g09_d.01/g09/l702.exe)
 L702 exits ... SP integral derivatives will be done elsewhere.
 Leave Link  702 at Wed May 26 09:01:19 2021, MaxMem=  2147483648 cpu:         0.2
 (Enter /opt/cluster/programs/g09_d.01/g09/l703.exe)
 Compute integral first derivatives, UseDBF=F ICtDFT=           0.
 Integral derivatives from FoFJK, PRISM(SPDF).
 Calling FoFJK, ICntrl=      2127 FMM=F ISym2X=0 I1Cent= 0 IOpClX= 0 NMat=1 NMatS=1 NMatT=0.
 FoFJK:  IHMeth= 1 ICntrl=    2127 DoSepK=T KAlg= 0 I1Cent=   0 FoldK=F
 IRaf=         1 NMat=   1 IRICut=       1 DoRegI=T DoRafI=F ISym2E= 0.
 FoFCou: FMM=F IPFlag=           0 FMFlag=      100000 FMFlg1=         800
         NFxFlg=           0 DoJE=F BraDBF=F KetDBF=F FulRan=T
         wScrn=  0.000000 ICntrl=    2527 IOpCl=  0 I1Cent=           0 NGrid=           0
         NMat0=    1 NMatS0=      1 NMatT0=    0 NMatD0=    1 NMtDS0=    0 NMtDT0=    0
 Symmetry not used in FoFCou.
 Leave Link  703 at Wed May 26 09:01:20 2021, MaxMem=  2147483648 cpu:         3.7
 (Enter /opt/cluster/programs/g09_d.01/g09/l716.exe)
 Dipole        =-2.23588910D-01-8.52557911D-01 4.23673329D-01
 ***** Axes restored to original set *****
 -------------------------------------------------------------------
 Center     Atomic                   Forces (Hartrees/Bohr)
 Number     Number              X              Y              Z
 -------------------------------------------------------------------
      1        6           0.001750620    0.000011241   -0.007773854
      2        6          -0.003274015    0.002259293    0.007490550
      3        1          -0.000003620   -0.000004817   -0.000000656
      4        1          -0.000002137    0.000004048    0.000011576
      5        1           0.000002144    0.000008752   -0.000002932
      6        8           0.003174274   -0.006869967    0.007286685
      7        8           0.000003948    0.000000421    0.000015083
      8        6          -0.001651215    0.004604739   -0.007018818
      9        1          -0.000006283   -0.000011450    0.000001376
     10        1           0.000010331   -0.000001933   -0.000013193
     11        1          -0.000004047   -0.000000328    0.000004183
 -------------------------------------------------------------------
 Cartesian Forces:  Max     0.007773854 RMS     0.003109091
 Leave Link  716 at Wed May 26 09:01:20 2021, MaxMem=  2147483648 cpu:         0.3
 (Enter /opt/cluster/programs/g09_d.01/g09/l103.exe)

 GradGradGradGradGradGradGradGradGradGradGradGradGradGradGradGradGradGrad
 Berny optimization.
 FormGI is forming the generalized inverse of G from B-inverse, IUseBI=4.
 Internal  Forces:  Max     0.012954230 RMS     0.002705643
 Search for a local minimum.
 Step number   1 out of a maximum of   47
 All quantities printed in internal units (Hartrees-Bohrs-Radians)
 RMS Force = .38518D-05 SwitMx=.10000D-02 MixMth= 2
 Mixed Optimization -- En-DIIS/RFO-DIIS
 Second derivative matrix not updated -- first step.
 ITU=  0
     Eigenvalues ---    0.00804   0.00856   0.01301   0.07287   0.07693
     Eigenvalues ---    0.10108   0.10631   0.16000   0.16000   0.16000
     Eigenvalues ---    0.16000   0.16000   0.16000   0.24842   0.25000
     Eigenvalues ---    0.25000   0.32681   0.34198   0.34504   0.34561
     Eigenvalues ---    0.34680   0.34821   0.35151   0.36569   0.49926
     Eigenvalues ---    0.913151000.000001000.000001000.000001000.00000
     Eigenvalues --- 1000.000001000.000001000.000001000.000001000.00000
     Eigenvalues --- 1000.000001000.00000
 RFO step:  Lambda= 0.00000000D+00 EMin= 8.04010456D-03
 Linear search not attempted -- first point.
 Iteration  1 RMS(Cart)=  0.00007212 RMS(Int)=  0.00000000
 Iteration  2 RMS(Cart)=  0.00000000 RMS(Int)=  0.00000000
 Iteration  1 RMS(Cart)=  0.00000000 RMS(Int)=  0.00000000
 ITry= 1 IFail=0 DXMaxC= 2.41D-04 DCOld= 1.00D+10 DXMaxT= 3.00D-01 DXLimC= 3.00D+00 Rises=F
 Variable       Old X    -DE/DX   Delta X   Delta X   Delta X     New X
                                 (Linear)    (Quad)   (Total)
    R1        2.82915   0.00000   0.00000   0.00001   0.00001   2.82917
    R2        2.06997   0.00000   0.00000   0.00000   0.00000   2.06996
    R3        2.05966   0.00000   0.00000   0.00000   0.00000   2.05966
    R4        2.06393   0.00000   0.00000   0.00000   0.00000   2.06393
    R5        2.59940   0.00000   0.00000   0.00001   0.00001   2.59941
    R6        2.32333   0.00000   0.00000   0.00000   0.00000   2.32333
    R7        2.76501   0.00000   0.00000   0.00000   0.00000   2.76501
    R8        2.06488   0.00001   0.00000   0.00002   0.00002   2.06489
    R9        2.05431  -0.00001   0.00000  -0.00002  -0.00002   2.05429
   R10        2.06197   0.00000   0.00000   0.00000   0.00000   2.06197
    A1        1.88651   0.00000   0.00000  -0.00001  -0.00001   1.88650
    A2        1.92313   0.00000   0.00000  -0.00001  -0.00001   1.92312
    A3        1.93811   0.00000   0.00000  -0.00001  -0.00001   1.93811
    A4        1.90848   0.00000   0.00000   0.00000   0.00000   1.90848
    A5        1.87861   0.00000   0.00000   0.00001   0.00001   1.87862
    A6        1.92779   0.00000   0.00000   0.00002   0.00002   1.92781
    A7        1.95415   0.00015   0.00000  -0.00001  -0.00001   1.95414
    A8        2.18915   0.00077   0.00000  -0.00002  -0.00002   2.18913
    A9        2.13407  -0.00040   0.00000   0.00003   0.00003   2.13410
   A10        2.05365   0.00000   0.00000  -0.00001  -0.00001   2.05364
   A11        1.90677   0.00000   0.00000   0.00002   0.00002   1.90679
   A12        1.83128  -0.00001   0.00000  -0.00009  -0.00009   1.83119
   A13        1.93257   0.00001   0.00000   0.00008   0.00008   1.93264
   A14        1.93439   0.00000   0.00000  -0.00003  -0.00003   1.93436
   A15        1.92180   0.00000   0.00000   0.00000   0.00000   1.92180
   A16        1.93523   0.00000   0.00000   0.00001   0.00001   1.93524
    D1       -1.29026  -0.00255   0.00000  -0.00004  -0.00004  -1.29030
    D2        1.73726   0.00255   0.00000   0.00001   0.00001   1.73727
    D3        2.90839  -0.00255   0.00000  -0.00003  -0.00003   2.90836
    D4       -0.34728   0.00255   0.00000   0.00002   0.00002  -0.34726
    D5        0.76666  -0.00255   0.00000  -0.00003  -0.00003   0.76662
    D6       -2.48901   0.00255   0.00000   0.00001   0.00001  -2.48900
    D7        2.43273   0.01295   0.00000   0.00000   0.00000   2.43273
    D8       -0.59894   0.00795   0.00000  -0.00004  -0.00004  -0.59898
    D9       -1.02730   0.00000   0.00000   0.00009   0.00009  -1.02721
   D10       -3.10209   0.00000   0.00000   0.00016   0.00016  -3.10193
   D11        1.09218   0.00000   0.00000   0.00015   0.00015   1.09233
         Item               Value     Threshold  Converged?
 Maximum Force            0.000012     0.000450     YES
 RMS     Force            0.000004     0.000300     YES
 Maximum Displacement     0.000241     0.001800     YES
 RMS     Displacement     0.000072     0.001200     YES
 Predicted change in Energy=-1.781849D-09
 Optimization completed.
    -- Stationary point found.
                           ----------------------------
                           !   Optimized Parameters   !
                           ! (Angstroms and Degrees)  !
 --------------------------                            --------------------------
 ! Name  Definition              Value          Derivative Info.                !
 --------------------------------------------------------------------------------
 ! R1    R(1,2)                  1.4971         -DE/DX =    0.0                 !
 ! R2    R(1,3)                  1.0954         -DE/DX =    0.0                 !
 ! R3    R(1,4)                  1.0899         -DE/DX =    0.0                 !
 ! R4    R(1,5)                  1.0922         -DE/DX =    0.0                 !
 ! R5    R(2,6)                  1.3755         -DE/DX =    0.0                 !
 ! R6    R(2,7)                  1.2295         -DE/DX =    0.0                 !
 ! R7    R(6,8)                  1.4632         -DE/DX =    0.0                 !
 ! R8    R(8,9)                  1.0927         -DE/DX =    0.0                 !
 ! R9    R(8,10)                 1.0871         -DE/DX =    0.0                 !
 ! R10   R(8,11)                 1.0911         -DE/DX =    0.0                 !
 ! A1    A(2,1,3)              108.0893         -DE/DX =    0.0                 !
 ! A2    A(2,1,4)              110.1873         -DE/DX =    0.0                 !
 ! A3    A(2,1,5)              111.0456         -DE/DX =    0.0                 !
 ! A4    A(3,1,4)              109.3479         -DE/DX =    0.0                 !
 ! A5    A(3,1,5)              107.6366         -DE/DX =    0.0                 !
 ! A6    A(4,1,5)              110.4544         -DE/DX =    0.0                 !
 ! A7    A(1,2,6)              111.9646         -DE/DX =    0.0001              !
 ! A8    A(1,2,7)              125.4289         -DE/DX =    0.0008              !
 ! A9    A(6,2,7)              122.2731         -DE/DX =   -0.0004              !
 ! A10   A(2,6,8)              117.6652         -DE/DX =    0.0                 !
 ! A11   A(6,8,9)              109.25           -DE/DX =    0.0                 !
 ! A12   A(6,8,10)             104.9244         -DE/DX =    0.0                 !
 ! A13   A(6,8,11)             110.7279         -DE/DX =    0.0                 !
 ! A14   A(9,8,10)             110.8321         -DE/DX =    0.0                 !
 ! A15   A(9,8,11)             110.1113         -DE/DX =    0.0                 !
 ! A16   A(10,8,11)            110.8803         -DE/DX =    0.0                 !
 ! D1    D(3,1,2,6)            -73.9264         -DE/DX =   -0.0025              !
 ! D2    D(3,1,2,7)             99.5377         -DE/DX =    0.0025              !
 ! D3    D(4,1,2,6)            166.6384         -DE/DX =   -0.0025              !
 ! D4    D(4,1,2,7)            -19.8975         -DE/DX =    0.0025              !
 ! D5    D(5,1,2,6)             43.9261         -DE/DX =   -0.0025              !
 ! D6    D(5,1,2,7)           -142.6097         -DE/DX =    0.0025              !
 ! D7    D(1,2,6,8)            139.3854         -DE/DX =    0.013               !
 ! D8    D(7,2,6,8)            -34.3168         -DE/DX =    0.008               !
 ! D9    D(2,6,8,9)            -58.8602         -DE/DX =    0.0                 !
 ! D10   D(2,6,8,10)          -177.7366         -DE/DX =    0.0                 !
 ! D11   D(2,6,8,11)            62.5771         -DE/DX =    0.0                 !
 --------------------------------------------------------------------------------
 Lowest energy point so far.  Saving SCF results.
 GradGradGradGradGradGradGradGradGradGradGradGradGradGradGradGradGradGrad

 Largest change from initial coordinates is atom   10       0.000 Angstoms.
 Leave Link  103 at Wed May 26 09:01:20 2021, MaxMem=  2147483648 cpu:         0.2
 (Enter /opt/cluster/programs/g09_d.01/g09/l202.exe)
                          Input orientation:                          
 ---------------------------------------------------------------------
 Center     Atomic      Atomic             Coordinates (Angstroms)
 Number     Number       Type             X           Y           Z
 ---------------------------------------------------------------------
      1          6           0        1.714554   -0.642816    0.148149
      2          6           0        0.497604    0.186059   -0.122729
      3          1           0        1.616754   -1.073077    1.150728
      4          1           0        2.609320   -0.021788    0.107430
      5          1           0        1.791484   -1.470003   -0.560875
      6          8           0       -0.609395   -0.591431   -0.372091
      7          8           0        0.430745    1.409258   -0.018483
      8          6           0       -1.883373   -0.165500    0.207964
      9          1           0       -1.785027   -0.114185    1.295004
     10          1           0       -2.593754   -0.936350   -0.079989
     11          1           0       -2.182291    0.806335   -0.188003
 ---------------------------------------------------------------------
                    Distance matrix (angstroms):
                    1          2          3          4          5
     1  C    0.000000
     2  C    1.497123   0.000000
     3  H    1.095378   2.111780   0.000000
     4  H    1.089927   2.134366   1.782938   0.000000
     5  H    1.092187   2.146774   1.765691   1.792432   0.000000
     6  O    2.382022   1.375543   2.739836   3.303719   2.563542
     7  O    2.426302   1.229452   2.989257   2.609585   3.230471
     8  C    3.629943   2.429404   3.736762   4.496115   3.974596
     9  H    3.720456   2.703797   3.537288   4.552928   4.251348
    10  H    4.324318   3.289092   4.388819   5.286164   4.443686
    11  H    4.171143   2.751516   4.444900   4.871612   4.594740
                    6          7          8          9         10
     6  O    0.000000
     7  O    2.282474   0.000000
     8  C    1.463182   2.808253   0.000000
     9  H    2.095013   2.992620   1.092685   0.000000
    10  H    2.035184   3.827957   1.087091   1.794603   0.000000
    11  H    2.112259   2.687045   1.091149   1.790108   1.793856
                   11
    11  H    0.000000
 Stoichiometry    C3H6O2
 Framework group  C1[X(C3H6O2)]
 Deg. of freedom    27
 Full point group                 C1      NOp   1
 RotChk:  IX=0 Diff= 3.87D-16
 Largest Abelian subgroup         C1      NOp   1
 Largest concise Abelian subgroup C1      NOp   1
                         Standard orientation:                         
 ---------------------------------------------------------------------
 Center     Atomic      Atomic             Coordinates (Angstroms)
 Number     Number       Type             X           Y           Z
 ---------------------------------------------------------------------
      1          6           0        1.714554   -0.642816    0.148149
      2          6           0        0.497604    0.186059   -0.122729
      3          1           0        1.616754   -1.073077    1.150728
      4          1           0        2.609320   -0.021788    0.107430
      5          1           0        1.791484   -1.470003   -0.560875
      6          8           0       -0.609395   -0.591431   -0.372091
      7          8           0        0.430745    1.409258   -0.018483
      8          6           0       -1.883373   -0.165501    0.207964
      9          1           0       -1.785027   -0.114186    1.295004
     10          1           0       -2.593754   -0.936351   -0.079989
     11          1           0       -2.182291    0.806334   -0.188003
 ---------------------------------------------------------------------
 Rotational constants (GHZ):      9.3226863      4.0775233      3.0610094
 Leave Link  202 at Wed May 26 09:01:20 2021, MaxMem=  2147483648 cpu:         0.0
 (Enter /opt/cluster/programs/g09_d.01/g09/l9999.exe)
 1\1\GINC-NODE13\FOpt\RwB97XD\6-31+G\C3H6O2\BOITTIER\26-May-2021\0\\#p 
 wB97XD/6-31+G Opt=ModRedun\\O.pdb\\0,1\C,1.714554,-0.642816,0.148149\C
 ,0.497604,0.186059,-0.122729\H,1.616754,-1.073077,1.150728\H,2.60932,-
 0.021788,0.10743\H,1.791484,-1.470003,-0.560875\O,-0.609395,-0.591431,
 -0.372091\O,0.430745,1.409258,-0.018483\C,-1.883373,-0.1655,0.207964\H
 ,-1.785027,-0.114185,1.295004\H,-2.593754,-0.93635,-0.079989\H,-2.1822
 91,0.806335,-0.188003\\Version=ES64L-G09RevD.01\State=1-A\HF=-268.2132
 856\RMSD=3.289e-09\RMSF=3.109e-03\Dipole=-0.2235891,-0.8525579,0.42367
 33\Quadrupole=4.729007,-4.6743354,-0.0546716,-1.7898972,-0.6914137,-0.
 7545103\PG=C01 [X(C3H6O2)]\\@


 THE WHOLE OF SCIENCE IS NOTHING MORE THAN A REFINEMENT OF EVERYDAY THINKING.
                                                              -- A. EINSTEIN
 Job cpu time:       0 days  0 hours  0 minutes 29.0 seconds.
 File lengths (MBytes):  RWF=      5 Int=      0 D2E=      0 Chk=      2 Scr=      1
 Normal termination of Gaussian 09 at Wed May 26 09:01:20 2021.
