N.pdb                                                                   
FOpt      RwB97XD                                                     6-31+G              
Number of atoms                            I               13
Info1-9                                    I   N=           9
          24          24           0           0           0         100
           2          18        -802
Charge                                     I                0
Multiplicity                               I                1
Number of electrons                        I               64
Number of alpha electrons                  I               32
Number of beta electrons                   I               32
Number of basis functions                  I              114
Number of independent functions            I              114
Number of point charges in /Mol/           I                0
Number of translation vectors              I                0
Atomic numbers                             I   N=          13
           6           6           1           1           1           6
           8           6           1           1           9           9
           9
Nuclear charges                            R   N=          13
  6.00000000E+00  6.00000000E+00  1.00000000E+00  1.00000000E+00  1.00000000E+00
  6.00000000E+00  8.00000000E+00  6.00000000E+00  1.00000000E+00  1.00000000E+00
  9.00000000E+00  9.00000000E+00  9.00000000E+00
Current cartesian coordinates              R   N=          39
  3.54309099E+00  2.31106703E+00 -2.61991631E-02  2.84591433E+00 -4.27720613E-01
 -2.79218374E-01  3.07259832E+00  3.36352354E+00 -1.74299646E+00  5.55747102E+00
  2.47279735E+00  3.77924440E-01  2.47854401E+00  3.17670900E+00  1.52611637E+00
  2.82512167E-01 -1.10072012E+00 -1.43449300E+00  4.29647378E+00 -2.15120943E+00
  3.18781681E-01 -1.95577395E+00 -7.92966880E-02 -1.66220311E-02  1.25568522E-01
 -3.15767757E+00 -1.47556808E+00  1.74708960E-01 -3.84959890E-01 -3.37293438E+00
 -1.84353556E+00 -6.14763816E-01  2.55237939E+00 -4.20433073E+00 -1.09107496E+00
 -9.19448140E-01 -2.18270360E+00  2.54131882E+00 -2.24440883E-01
Force Field                                I                0
Int Atom Types                             I   N=          13
           0           0           0           0           0           0
           0           0           0           0           0           0
           0
MM charges                                 R   N=          13
  0.00000000E+00  0.00000000E+00  0.00000000E+00  0.00000000E+00  0.00000000E+00
  0.00000000E+00  0.00000000E+00  0.00000000E+00  0.00000000E+00  0.00000000E+00
  0.00000000E+00  0.00000000E+00  0.00000000E+00
Integer atomic weights                     I   N=          13
          12          12           1           1           1          12
          16          12           1           1          19          19
          19
Real atomic weights                        R   N=          13
  1.20000000E+01  1.20000000E+01  1.00782504E+00  1.00782504E+00  1.00782504E+00
  1.20000000E+01  1.59949146E+01  1.20000000E+01  1.00782504E+00  1.00782504E+00
  1.89984032E+01  1.89984032E+01  1.89984032E+01
Atom fragment info                         I   N=          13
           0           0           0           0           0           0
           0           0           0           0           0           0
           0
Atom residue num                           I   N=          13
           0           0           0           0           0           0
           0           0           0           0           0           0
           0
Nuclear spins                              I   N=          13
           0           0           1           1           1           0
           0           0           1           1           1           1
           1
Nuclear ZEff                               R   N=          13
 -3.60000000E+00 -3.60000000E+00 -1.00000000E+00 -1.00000000E+00 -1.00000000E+00
 -3.60000000E+00 -5.60000000E+00 -3.60000000E+00 -1.00000000E+00 -1.00000000E+00
 -6.75000000E+00 -6.75000000E+00 -6.75000000E+00
Nuclear ZNuc                               R   N=          13
  6.00000000E+00  6.00000000E+00  1.00000000E+00  1.00000000E+00  1.00000000E+00
  6.00000000E+00  8.00000000E+00  6.00000000E+00  1.00000000E+00  1.00000000E+00
  9.00000000E+00  9.00000000E+00  9.00000000E+00
Nuclear QMom                               R   N=          13
  0.00000000E+00  0.00000000E+00  0.00000000E+00  0.00000000E+00  0.00000000E+00
  0.00000000E+00  0.00000000E+00  0.00000000E+00  0.00000000E+00  0.00000000E+00
  0.00000000E+00  0.00000000E+00  0.00000000E+00
Nuclear GFac                               R   N=          13
  0.00000000E+00  0.00000000E+00  2.79284600E+00  2.79284600E+00  2.79284600E+00
  0.00000000E+00  0.00000000E+00  0.00000000E+00  2.79284600E+00  2.79284600E+00
  2.62886700E+00  2.62886700E+00  2.62886700E+00
MicOpt                                     I   N=          13
          -1          -1          -1          -1          -1          -1
          -1          -1          -1          -1          -1          -1
          -1
Number of contracted shells                I               42
Number of primitive shells                 I              108
Pure/Cartesian d shells                    I                1
Pure/Cartesian f shells                    I                0
Highest angular momentum                   I                1
Largest degree of contraction              I                6
Shell types                                I   N=          42
           0          -1          -1          -1           0          -1
          -1          -1           0           0           0           0
           0           0           0          -1          -1          -1
           0          -1          -1          -1           0          -1
          -1          -1           0           0           0           0
           0          -1          -1          -1           0          -1
          -1          -1           0          -1          -1          -1
Number of primitives per shell             I   N=          42
           6           3           1           1           6           3
           1           1           3           1           3           1
           3           1           6           3           1           1
           6           3           1           1           6           3
           1           1           3           1           3           1
           6           3           1           1           6           3
           1           1           6           3           1           1
Shell to atom map                          I   N=          42
           1           1           1           1           2           2
           2           2           3           3           4           4
           5           5           6           6           6           6
           7           7           7           7           8           8
           8           8           9           9          10          10
          11          11          11          11          12          12
          12          12          13          13          13          13
Primitive exponents                        R   N=         108
  3.04752488E+03  4.57369518E+02  1.03948685E+02  2.92101553E+01  9.28666296E+00
  3.16392696E+00  7.86827235E+00  1.88128854E+00  5.44249258E-01  1.68714478E-01
  4.38000000E-02  3.04752488E+03  4.57369518E+02  1.03948685E+02  2.92101553E+01
  9.28666296E+00  3.16392696E+00  7.86827235E+00  1.88128854E+00  5.44249258E-01
  1.68714478E-01  4.38000000E-02  1.87311370E+01  2.82539436E+00  6.40121692E-01
  1.61277759E-01  1.87311370E+01  2.82539436E+00  6.40121692E-01  1.61277759E-01
  1.87311370E+01  2.82539436E+00  6.40121692E-01  1.61277759E-01  3.04752488E+03
  4.57369518E+02  1.03948685E+02  2.92101553E+01  9.28666296E+00  3.16392696E+00
  7.86827235E+00  1.88128854E+00  5.44249258E-01  1.68714478E-01  4.38000000E-02
  5.48467166E+03  8.25234946E+02  1.88046958E+02  5.29645000E+01  1.68975704E+01
  5.79963534E+00  1.55396162E+01  3.59993359E+00  1.01376175E+00  2.70005823E-01
  8.45000000E-02  3.04752488E+03  4.57369518E+02  1.03948685E+02  2.92101553E+01
  9.28666296E+00  3.16392696E+00  7.86827235E+00  1.88128854E+00  5.44249258E-01
  1.68714478E-01  4.38000000E-02  1.87311370E+01  2.82539436E+00  6.40121692E-01
  1.61277759E-01  1.87311370E+01  2.82539436E+00  6.40121692E-01  1.61277759E-01
  7.00171309E+03  1.05136609E+03  2.39285690E+02  6.73974453E+01  2.15199573E+01
  7.40310130E+00  2.08479528E+01  4.80830834E+00  1.34406986E+00  3.58151393E-01
  1.07600000E-01  7.00171309E+03  1.05136609E+03  2.39285690E+02  6.73974453E+01
  2.15199573E+01  7.40310130E+00  2.08479528E+01  4.80830834E+00  1.34406986E+00
  3.58151393E-01  1.07600000E-01  7.00171309E+03  1.05136609E+03  2.39285690E+02
  6.73974453E+01  2.15199573E+01  7.40310130E+00  2.08479528E+01  4.80830834E+00
  1.34406986E+00  3.58151393E-01  1.07600000E-01
Contraction coefficients                   R   N=         108
  1.83473713E-03  1.40373228E-02  6.88426223E-02  2.32184443E-01  4.67941348E-01
  3.62311985E-01 -1.19332420E-01 -1.60854152E-01  1.14345644E+00  1.00000000E+00
  1.00000000E+00  1.83473713E-03  1.40373228E-02  6.88426223E-02  2.32184443E-01
  4.67941348E-01  3.62311985E-01 -1.19332420E-01 -1.60854152E-01  1.14345644E+00
  1.00000000E+00  1.00000000E+00  3.34946043E-02  2.34726953E-01  8.13757326E-01
  1.00000000E+00  3.34946043E-02  2.34726953E-01  8.13757326E-01  1.00000000E+00
  3.34946043E-02  2.34726953E-01  8.13757326E-01  1.00000000E+00  1.83473713E-03
  1.40373228E-02  6.88426223E-02  2.32184443E-01  4.67941348E-01  3.62311985E-01
 -1.19332420E-01 -1.60854152E-01  1.14345644E+00  1.00000000E+00  1.00000000E+00
  1.83107443E-03  1.39501722E-02  6.84450781E-02  2.32714336E-01  4.70192898E-01
  3.58520853E-01 -1.10777550E-01 -1.48026263E-01  1.13076702E+00  1.00000000E+00
  1.00000000E+00  1.83473713E-03  1.40373228E-02  6.88426223E-02  2.32184443E-01
  4.67941348E-01  3.62311985E-01 -1.19332420E-01 -1.60854152E-01  1.14345644E+00
  1.00000000E+00  1.00000000E+00  3.34946043E-02  2.34726953E-01  8.13757326E-01
  1.00000000E+00  3.34946043E-02  2.34726953E-01  8.13757326E-01  1.00000000E+00
  1.81961690E-03  1.39160796E-02  6.84053245E-02  2.33185760E-01  4.71267439E-01
  3.56618546E-01 -1.08506975E-01 -1.46451658E-01  1.12868858E+00  1.00000000E+00
  1.00000000E+00  1.81961690E-03  1.39160796E-02  6.84053245E-02  2.33185760E-01
  4.71267439E-01  3.56618546E-01 -1.08506975E-01 -1.46451658E-01  1.12868858E+00
  1.00000000E+00  1.00000000E+00  1.81961690E-03  1.39160796E-02  6.84053245E-02
  2.33185760E-01  4.71267439E-01  3.56618546E-01 -1.08506975E-01 -1.46451658E-01
  1.12868858E+00  1.00000000E+00  1.00000000E+00
P(S=P) Contraction coefficients            R   N=         108
  0.00000000E+00  0.00000000E+00  0.00000000E+00  0.00000000E+00  0.00000000E+00
  0.00000000E+00  6.89990666E-02  3.16423961E-01  7.44308291E-01  1.00000000E+00
  1.00000000E+00  0.00000000E+00  0.00000000E+00  0.00000000E+00  0.00000000E+00
  0.00000000E+00  0.00000000E+00  6.89990666E-02  3.16423961E-01  7.44308291E-01
  1.00000000E+00  1.00000000E+00  0.00000000E+00  0.00000000E+00  0.00000000E+00
  0.00000000E+00  0.00000000E+00  0.00000000E+00  0.00000000E+00  0.00000000E+00
  0.00000000E+00  0.00000000E+00  0.00000000E+00  0.00000000E+00  0.00000000E+00
  0.00000000E+00  0.00000000E+00  0.00000000E+00  0.00000000E+00  0.00000000E+00
  6.89990666E-02  3.16423961E-01  7.44308291E-01  1.00000000E+00  1.00000000E+00
  0.00000000E+00  0.00000000E+00  0.00000000E+00  0.00000000E+00  0.00000000E+00
  0.00000000E+00  7.08742682E-02  3.39752839E-01  7.27158577E-01  1.00000000E+00
  1.00000000E+00  0.00000000E+00  0.00000000E+00  0.00000000E+00  0.00000000E+00
  0.00000000E+00  0.00000000E+00  6.89990666E-02  3.16423961E-01  7.44308291E-01
  1.00000000E+00  1.00000000E+00  0.00000000E+00  0.00000000E+00  0.00000000E+00
  0.00000000E+00  0.00000000E+00  0.00000000E+00  0.00000000E+00  0.00000000E+00
  0.00000000E+00  0.00000000E+00  0.00000000E+00  0.00000000E+00  0.00000000E+00
  0.00000000E+00  7.16287242E-02  3.45912103E-01  7.22469956E-01  1.00000000E+00
  1.00000000E+00  0.00000000E+00  0.00000000E+00  0.00000000E+00  0.00000000E+00
  0.00000000E+00  0.00000000E+00  7.16287242E-02  3.45912103E-01  7.22469956E-01
  1.00000000E+00  1.00000000E+00  0.00000000E+00  0.00000000E+00  0.00000000E+00
  0.00000000E+00  0.00000000E+00  0.00000000E+00  7.16287242E-02  3.45912103E-01
  7.22469956E-01  1.00000000E+00  1.00000000E+00
Coordinates of each shell                  R   N=         126
  3.54309074E+00  2.31106686E+00 -2.61993698E-02  3.54309074E+00  2.31106686E+00
 -2.61993698E-02  3.54309074E+00  2.31106686E+00 -2.61993698E-02  3.54309074E+00
  2.31106686E+00 -2.61993698E-02  2.84591413E+00 -4.27720796E-01 -2.79218581E-01
  2.84591413E+00 -4.27720796E-01 -2.79218581E-01  2.84591413E+00 -4.27720796E-01
 -2.79218581E-01  2.84591413E+00 -4.27720796E-01 -2.79218581E-01  3.07259805E+00
  3.36352337E+00 -1.74299666E+00  3.07259805E+00  3.36352337E+00 -1.74299666E+00
  5.55747076E+00  2.47279722E+00  3.77924233E-01  5.55747076E+00  2.47279722E+00
  3.77924233E-01  2.47854374E+00  3.17670881E+00  1.52611616E+00  2.47854374E+00
  3.17670881E+00  1.52611616E+00  2.82511981E-01 -1.10072035E+00 -1.43449320E+00
  2.82511981E-01 -1.10072035E+00 -1.43449320E+00  2.82511981E-01 -1.10072035E+00
 -1.43449320E+00  2.82511981E-01 -1.10072035E+00 -1.43449320E+00  4.29647361E+00
 -2.15120958E+00  3.18781474E-01  4.29647361E+00 -2.15120958E+00  3.18781474E-01
  4.29647361E+00 -2.15120958E+00  3.18781474E-01  4.29647361E+00 -2.15120958E+00
  3.18781474E-01 -1.95577416E+00 -7.92969608E-02 -1.66222378E-02 -1.95577416E+00
 -7.92969608E-02 -1.66222378E-02 -1.95577416E+00 -7.92969608E-02 -1.66222378E-02
 -1.95577416E+00 -7.92969608E-02 -1.66222378E-02  1.25568374E-01 -3.15767780E+00
 -1.47556829E+00  1.25568374E-01 -3.15767780E+00 -1.47556829E+00  1.74708761E-01
 -3.84960123E-01 -3.37293459E+00  1.74708761E-01 -3.84960123E-01 -3.37293459E+00
 -1.84353575E+00 -6.14764087E-01  2.55237918E+00 -1.84353575E+00 -6.14764087E-01
  2.55237918E+00 -1.84353575E+00 -6.14764087E-01  2.55237918E+00 -1.84353575E+00
 -6.14764087E-01  2.55237918E+00 -4.20433092E+00 -1.09107527E+00 -9.19448346E-01
 -4.20433092E+00 -1.09107527E+00 -9.19448346E-01 -4.20433092E+00 -1.09107527E+00
 -9.19448346E-01 -4.20433092E+00 -1.09107527E+00 -9.19448346E-01 -2.18270386E+00
  2.54131854E+00 -2.24441090E-01 -2.18270386E+00  2.54131854E+00 -2.24441090E-01
 -2.18270386E+00  2.54131854E+00 -2.24441090E-01 -2.18270386E+00  2.54131854E+00
 -2.24441090E-01
Constraint Structure                       R   N=          39
  3.54309074E+00  2.31106686E+00 -2.61993698E-02  2.84591413E+00 -4.27720796E-01
 -2.79218581E-01  3.07259805E+00  3.36352337E+00 -1.74299666E+00  5.55747076E+00
  2.47279722E+00  3.77924233E-01  2.47854374E+00  3.17670881E+00  1.52611616E+00
  2.82511981E-01 -1.10072035E+00 -1.43449320E+00  4.29647361E+00 -2.15120958E+00
  3.18781474E-01 -1.95577416E+00 -7.92969608E-02 -1.66222378E-02  1.25568374E-01
 -3.15767780E+00 -1.47556829E+00  1.74708761E-01 -3.84960123E-01 -3.37293459E+00
 -1.84353575E+00 -6.14764087E-01  2.55237918E+00 -4.20433092E+00 -1.09107527E+00
 -9.19448346E-01 -2.18270386E+00  2.54131854E+00 -2.24441090E-01
Num ILSW                                   I              100
ILSW                                       I   N=         100
           0           1           0           0           2           0
           0           0           0           0        4639          -1
           0           0           0           0           2           0
           0           0           0           0           1           0
           1           0           0           0           0           0
           0           0      100000           0          -1           0
           0           0           0           0           0           0
           0           0           0           1           0           0
           0           0           1           0           0           0
           0           0         121          41           0           0
           0           0          58           0           0           0
           0           0           0          13           0           0
           0           0           0           0           0           0
           0           0           0           0           0           0
           0           0           0           0           0           0
           0           0           0           0           0           0
           0           0           0           0
Num RLSW                                   I               41
RLSW                                       R   N=          41
  1.00000000E+00  1.00000000E+00  1.00000000E+00  1.00000000E+00  1.00000000E+00
  0.00000000E+00  2.00000000E-01  2.22036000E-01  0.00000000E+00  7.77964000E-01
  0.00000000E+00  2.00000000E-01  0.00000000E+00  0.00000000E+00  1.00000000E+00
  0.00000000E+00  0.00000000E+00  1.00000000E+00  0.00000000E+00  0.00000000E+00
  0.00000000E+00  0.00000000E+00  1.00000000E+00  0.00000000E+00  0.00000000E+00
  0.00000000E+00  0.00000000E+00  1.00000000E+00  0.00000000E+00  0.00000000E+00
  0.00000000E+00  0.00000000E+00  1.00000000E+00  0.00000000E+00  0.00000000E+00
  0.00000000E+00  0.00000000E+00  0.00000000E+00  1.00000000E+00  1.00000000E+00
  0.00000000E+00
MxBond                                     I                4
NBond                                      I   N=          13
           4           3           1           1           1           4
           1           4           1           1           1           1
           1
IBond                                      I   N=          52
           2           3           4           5           1           6
           7           0           1           0           0           0
           1           0           0           0           1           0
           0           0           2           8           9          10
           2           0           0           0           6          11
          12          13           6           0           0           0
           6           0           0           0           8           0
           0           0           8           0           0           0
           8           0           0           0
RBond                                      R   N=          52
  1.00000000E+00  1.00000000E+00  1.00000000E+00  1.00000000E+00  1.00000000E+00
  1.00000000E+00  2.00000000E+00  0.00000000E+00  1.00000000E+00  0.00000000E+00
  0.00000000E+00  0.00000000E+00  1.00000000E+00  0.00000000E+00  0.00000000E+00
  0.00000000E+00  1.00000000E+00  0.00000000E+00  0.00000000E+00  0.00000000E+00
  1.00000000E+00  1.00000000E+00  1.00000000E+00  1.00000000E+00  2.00000000E+00
  0.00000000E+00  0.00000000E+00  0.00000000E+00  1.00000000E+00  1.00000000E+00
  1.00000000E+00  1.00000000E+00  1.00000000E+00  0.00000000E+00  0.00000000E+00
  0.00000000E+00  1.00000000E+00  0.00000000E+00  0.00000000E+00  0.00000000E+00
  1.00000000E+00  0.00000000E+00  0.00000000E+00  0.00000000E+00  1.00000000E+00
  0.00000000E+00  0.00000000E+00  0.00000000E+00  1.00000000E+00  0.00000000E+00
  0.00000000E+00  0.00000000E+00
Virial Ratio                               R      2.005190348964179E+00
SCF Energy                                 R     -5.299271698923377E+02
Total Energy                               R     -5.299271698923377E+02
RMS Force                                  R      6.141304349856339E-04
RMS Density                                R      4.257372920165391E-09
External E-field                           R   N=          35
  0.00000000E+00  0.00000000E+00  0.00000000E+00  0.00000000E+00  0.00000000E+00
  0.00000000E+00  0.00000000E+00  0.00000000E+00  0.00000000E+00  0.00000000E+00
  0.00000000E+00  0.00000000E+00  0.00000000E+00  0.00000000E+00  0.00000000E+00
  0.00000000E+00  0.00000000E+00  0.00000000E+00  0.00000000E+00  0.00000000E+00
  0.00000000E+00  0.00000000E+00  0.00000000E+00  0.00000000E+00  0.00000000E+00
  0.00000000E+00  0.00000000E+00  0.00000000E+00  0.00000000E+00  0.00000000E+00
  0.00000000E+00  0.00000000E+00  0.00000000E+00  0.00000000E+00  0.00000000E+00
IOpCl                                      I                0
IROHF                                      I                0
Alpha Orbital Energies                     R   N=         114
 -2.48912814E+01 -2.48912616E+01 -2.48905726E+01 -1.93046134E+01 -1.05957722E+01
 -1.04388748E+01 -1.03630682E+01 -1.03216897E+01 -1.43960941E+00 -1.35494836E+00
 -1.35384021E+00 -1.19564201E+00 -9.52926878E-01 -8.73233629E-01 -8.00355794E-01
 -7.10609456E-01 -7.03036577E-01 -6.91749384E-01 -6.42487449E-01 -5.96164410E-01
 -5.84893963E-01 -5.75792458E-01 -5.68625181E-01 -5.54883795E-01 -5.42654348E-01
 -5.37120933E-01 -5.26307251E-01 -5.16600442E-01 -5.06613169E-01 -4.97032822E-01
 -4.64123088E-01 -3.70103234E-01  1.03605097E-02  5.96968037E-02  7.92767908E-02
  9.19143082E-02  1.01788173E-01  1.06745145E-01  1.11852224E-01  1.22457218E-01
  1.25979684E-01  1.32300085E-01  1.41041047E-01  1.58444800E-01  1.65961461E-01
  1.68465118E-01  1.74958684E-01  1.80999000E-01  1.82463743E-01  1.92571904E-01
  2.19677034E-01  2.22346500E-01  2.63782387E-01  2.66326637E-01  2.79431041E-01
  2.85857522E-01  3.09046315E-01  3.33399214E-01  3.39858536E-01  3.53727155E-01
  3.56952209E-01  3.76844432E-01  3.85886694E-01  3.95372028E-01  4.01002031E-01
  4.07866057E-01  4.09723126E-01  4.27970780E-01  4.37284530E-01  4.40700621E-01
  4.45409281E-01  4.48279896E-01  4.63493014E-01  4.93576803E-01  5.19571598E-01
  5.27754723E-01  5.42174040E-01  6.93152440E-01  7.33736817E-01  7.62460774E-01
  7.76995534E-01  8.04883866E-01  8.32057812E-01  8.57531205E-01  8.77576002E-01
  9.02818930E-01  9.24815455E-01  9.60708995E-01  1.01528516E+00  1.10323771E+00
  1.16272416E+00  1.18127831E+00  1.21946880E+00  1.22264968E+00  1.26142955E+00
  1.35249117E+00  1.38823535E+00  1.42773404E+00  1.46743130E+00  1.49048507E+00
  1.55562355E+00  1.59339370E+00  1.66601753E+00  1.68330731E+00  1.71050774E+00
  1.72957934E+00  1.81068162E+00  1.81774437E+00  1.84310377E+00  1.85000732E+00
  1.97958574E+00  2.30063462E+00  2.33264367E+00  2.65506263E+00
Alpha MO coefficients                      R   N=       12996
 -2.49878710E-06  3.34598075E-05 -1.24924109E-04 -2.88176064E-05  1.10380269E-05
  1.00049112E-03  3.02351471E-04 -3.04441210E-04  1.58164722E-04  1.06488126E-02
 -1.56624102E-03 -2.29669969E-03  3.03707549E-04  2.28706819E-05  3.59155789E-04
 -1.94791500E-04  8.99452494E-05  4.26486949E-05  2.95896801E-04 -7.80631721E-05
 -8.64814458E-04 -4.36662547E-04 -1.85168283E-03 -1.39470033E-03 -4.14533981E-03
 -1.37317890E-03  4.98201134E-05 -1.08286780E-04 -1.57495039E-05 -6.37996688E-04
  1.39899271E-04 -5.95257207E-04  9.76549474E-05  4.69023262E-04  2.74406362E-04
 -1.49472303E-04 -1.46143877E-04 -3.22169620E-03  4.50873727E-04 -4.40951476E-04
 -1.16455881E-03  9.86887558E-03 -6.20107621E-03  1.75391825E-03  7.97009119E-04
 -6.63877862E-07 -2.99528609E-05  1.37969984E-05  1.33263909E-05 -2.63994344E-05
 -7.41009916E-05  2.13309296E-05 -4.93437286E-05  1.79171189E-04 -4.30492305E-04
 -2.06660839E-04  1.28707031E-04  1.84518418E-04 -2.51743509E-04 -1.13211633E-03
 -1.86843355E-04  4.72708423E-04  4.83585761E-04  9.40187706E-03 -5.21822239E-04
  7.61891345E-04  1.49330630E-03 -2.37205165E-02 -5.86478048E-03  7.77522547E-04
  2.78231562E-03  1.15679275E-04  8.18873356E-04  5.54918683E-05  4.96232323E-04
  6.80225263E-01  1.93935124E-02 -5.91707551E-06  2.22608489E-04 -9.95904704E-04
 -1.25295446E-02  2.97826570E-05 -8.08429459E-04  2.50923201E-03  6.58944648E-03
  7.87164327E-04 -3.74097147E-04 -1.22825366E-03  1.52612101E-02  8.48266603E-04
  5.35645159E-05  3.23563893E-05  4.15761308E-05 -2.03163734E-03 -9.33112965E-04
 -6.62627079E-04 -6.91192201E-04 -1.25325320E-03 -3.35089966E-04 -7.05098774E-04
 -8.08822704E-04  7.26097796E-01  2.06218174E-02  1.19528311E-04 -1.05035143E-03
  9.21820271E-05 -1.30014138E-02 -2.57602859E-04  2.56037711E-03 -4.97118288E-04
  7.48189664E-03  4.87117644E-04 -1.44492754E-03 -5.26756167E-04 -5.61528404E-05
 -4.54737609E-04  5.61093611E-05 -7.24591602E-05  2.70497875E-05  2.91829894E-03
 -1.25154439E-03 -1.04914697E-03 -3.80909951E-04  9.45252846E-03 -1.35972961E-03
 -2.19918201E-03 -1.42232934E-04  3.29254059E-05  3.31538834E-04 -7.01654859E-05
  1.04743242E-04  4.36829524E-05 -1.05165222E-03  4.92269878E-04 -2.71749688E-03
  8.01712874E-06 -1.53026028E-02  1.95137866E-03 -2.81072552E-03  6.76538560E-05
 -1.82080801E-04 -2.65476319E-04  6.01671928E-06  3.13517672E-04 -1.35708309E-04
  2.75198924E-05  2.29586126E-06  3.67024040E-05  7.02987301E-05 -1.16794469E-04
  6.78268476E-05  2.83469577E-05 -3.27738594E-04  2.51852161E-03 -1.39918900E-03
  4.39780511E-03  1.27907811E-03  5.96702095E-04  3.40664471E-04  6.72390483E-06
  6.58970599E-05 -1.96795098E-06 -3.30519808E-06  6.44542173E-06 -9.10963789E-04
  2.62406503E-04 -5.53354598E-05  1.24045795E-04  3.78436144E-04 -2.55434791E-04
  3.08965303E-05  1.52160624E-04 -1.65749522E-05 -1.56502830E-04  2.21102906E-06
 -6.17177250E-04  5.60091744E-04  4.49205383E-04  4.12189221E-04 -9.48565795E-04
  1.42842859E-03  3.79635952E-05 -2.61138123E-04  2.52738347E-04 -5.28860500E-04
  3.25464828E-04  1.03237580E-03 -3.44992284E-04 -2.39376760E-04  7.26165429E-01
  2.02118633E-02 -1.67668176E-05  2.16579541E-04 -1.01882234E-03 -1.13953921E-02
 -6.38612357E-05 -1.43197457E-04  1.53897804E-03  8.52924255E-03  4.21120021E-04
  1.25815135E-03 -2.50093891E-03 -1.29862642E-03 -4.71069988E-05 -5.49205872E-06
 -2.20886538E-05  1.65750878E-05  7.90818103E-05 -2.24220491E-06  3.44437553E-04
 -3.09633314E-04  2.27496401E-04  7.03521119E-05  6.44851235E-04 -6.01364895E-04
 -6.80251640E-01 -1.88589714E-02 -1.13993335E-04  9.38639826E-04 -6.18171696E-05
  1.03268945E-02  1.98293903E-04 -1.24541352E-03 -1.72476027E-04 -7.82324474E-03
 -7.27275290E-04  2.61306980E-03 -9.05658796E-04  7.39721168E-07 -2.22205698E-05
  3.08905972E-05  2.79269285E-05  2.41167011E-05 -3.83728796E-04  2.18151164E-04
  1.20713468E-04 -2.35722883E-04  4.38099377E-03  1.27292332E-04 -1.13458982E-03
 -1.93438156E-05 -4.17975697E-06 -8.77673104E-05  9.58126819E-05 -3.89890656E-05
 -4.65699662E-05 -9.70226762E-04 -5.84345059E-04  1.00373614E-03  5.05001077E-04
 -5.19742792E-03 -7.46376406E-04 -2.29190462E-03 -6.11353955E-04 -1.00738566E-06
 -1.68880682E-04  1.76578144E-06 -8.86765567E-05  1.01483878E-05  2.73769996E-04
  6.56283239E-05  2.60792128E-04  9.57967604E-05 -4.40804474E-05 -9.71808092E-05
 -2.19600682E-03  2.30633453E-03 -2.95620924E-04 -2.77483031E-05  1.33523752E-02
 -2.77377014E-03  1.81963966E-03  1.96440566E-03 -5.37799776E-06 -7.17144483E-05
  3.95724027E-06 -8.84997711E-06  2.65960570E-05  6.01380579E-04 -1.24758342E-04
  1.69698371E-04 -2.48713297E-04  5.08049049E-04  9.95924666E-05  4.29709133E-04
  4.89674962E-05 -1.96077357E-04 -9.73831369E-04 -6.39427451E-04 -2.70774480E-04
 -2.06876964E-04  8.39894235E-03 -1.84266394E-03 -3.92699188E-04 -5.86455382E-04
 -1.47156565E-02 -1.95755886E-03  2.09962875E-03  2.53824691E-03  2.18353554E-04
 -4.29262478E-04  2.79605158E-04 -2.37816107E-04 -9.44184030E-03  8.74527005E-06
 -3.01310093E-05 -1.44629915E-05 -1.78899741E-05 -9.91972644E-04  4.70760205E-04
  2.73719913E-05  8.54285148E-04 -1.80878013E-03  5.46643558E-04  3.32091220E-05
  1.14466304E-03  9.94920716E-01  2.78970880E-02  1.26139145E-03  5.66639206E-04
  4.95177742E-04 -1.64242285E-02 -2.52504759E-03 -1.19709640E-03 -1.03932690E-03
  8.84248041E-03  1.88920189E-03  7.83944904E-04  7.59195765E-04 -1.19767428E-02
 -1.71623067E-05 -2.80178182E-05 -1.41058261E-05 -1.73275052E-05 -1.18932034E-03
  3.53444742E-04  9.36249528E-04  1.21046609E-04 -1.71261361E-03  5.62600892E-04
  1.10494544E-03  1.37243631E-04 -2.63145978E-05 -4.12644287E-04 -1.79348786E-05
  1.25328530E-04 -9.61661585E-06  3.14775537E-03 -2.19415150E-03 -6.88397461E-04
 -9.10454751E-04  1.20906206E-02 -3.25349710E-04 -3.22351718E-03 -2.33871470E-04
  2.20863994E-04  2.87326277E-04 -1.34027996E-05  1.39684627E-04  1.19134980E-05
  7.67029440E-03  4.97057975E-03 -8.67654118E-03  2.09226829E-03 -2.60427364E-02
  1.17389227E-04 -1.14002757E-03  3.09396675E-04 -1.77901187E-04 -4.94011579E-04
  1.19938695E-04  2.99439979E-04 -8.67446664E-05 -2.51921583E-04 -3.80377981E-06
 -2.56678755E-04 -1.09615611E-04 -1.43866310E-04 -3.41323882E-05  5.68427456E-04
 -1.20751171E-03  3.56807832E-03 -8.76795180E-04 -7.17198613E-03  5.99411831E-03
 -7.51263992E-04 -2.46091867E-03  9.95245584E-01  2.98644653E-02 -1.43364664E-03
  1.62707741E-03 -5.73124602E-04 -2.40092530E-02  3.94075508E-03 -4.11651711E-03
  1.50255796E-03  8.93423091E-03 -9.41189892E-04  4.96109861E-04  4.78666361E-05
 -2.20475359E-05 -2.04048783E-04 -8.94202925E-05  2.71815850E-05 -1.00297459E-04
  1.62711003E-04  5.81743910E-04 -7.04210540E-04  2.70083018E-03  1.68413014E-02
  3.74362760E-03 -2.18786612E-03 -1.39337845E-03  1.77601539E-04  1.74099058E-03
 -2.44530969E-04 -5.04997209E-04  1.25570629E-06 -1.89019977E-06 -1.23012172E-06
  1.31933680E-05 -5.35731578E-05 -1.65227256E-04  5.16224863E-05 -1.33554549E-04
  4.53852014E-04 -3.23798025E-03  2.09891292E-04 -1.95682524E-04  1.18946261E-03
 -2.65914727E-06 -6.36574832E-05 -2.68990927E-05 -3.40014194E-05  2.63315996E-05
  2.93041094E-04  1.95588301E-04  2.30577062E-04 -1.71594864E-04  4.90589899E-04
  3.60832249E-04  1.01943304E-04  1.07430961E-04 -2.59551352E-06 -5.42260628E-05
 -7.04250623E-07  1.33272141E-06  3.60235632E-05  2.90002524E-04 -2.87005480E-05
 -6.89652418E-05 -2.73655591E-04  9.88657738E-05 -2.44765204E-04 -4.23487218E-04