 Entering Gaussian System, Link 0=/opt/cluster/programs/g09_d.01/g09//g09
 Input=/home/unibas/boittier/RDKit_G2/O.pdb/SCAN_1_2_6_8_S_17_20.0/9_SCAN_1_2_6_8_F/9_SCAN_O.pdb.com
 Output=/scratch/boittier/9_SCAN_O.pdb/9_SCAN_O.pdb.out
 Initial command:
 /opt/cluster/programs/g09_d.01/g09/l1.exe "/scratch/boittier/9_SCAN_O.pdb/Gau-144819.inp" -scrdir="/scratch/boittier/9_SCAN_O.pdb/"
 Entering Link 1 = /opt/cluster/programs/g09_d.01/g09/l1.exe PID=    144820.
  
 Copyright (c) 1988,1990,1992,1993,1995,1998,2003,2009,2013,
            Gaussian, Inc.  All Rights Reserved.
  
 This is part of the Gaussian(R) 09 program.  It is based on
 the Gaussian(R) 03 system (copyright 2003, Gaussian, Inc.),
 the Gaussian(R) 98 system (copyright 1998, Gaussian, Inc.),
 the Gaussian(R) 94 system (copyright 1995, Gaussian, Inc.),
 the Gaussian 92(TM) system (copyright 1992, Gaussian, Inc.),
 the Gaussian 90(TM) system (copyright 1990, Gaussian, Inc.),
 the Gaussian 88(TM) system (copyright 1988, Gaussian, Inc.),
 the Gaussian 86(TM) system (copyright 1986, Carnegie Mellon
 University), and the Gaussian 82(TM) system (copyright 1983,
 Carnegie Mellon University). Gaussian is a federally registered
 trademark of Gaussian, Inc.
  
 This software contains proprietary and confidential information,
 including trade secrets, belonging to Gaussian, Inc.
  
 This software is provided under written license and may be
 used, copied, transmitted, or stored only in accord with that
 written license.
  
 The following legend is applicable only to US Government
 contracts under FAR:
  
                    RESTRICTED RIGHTS LEGEND
  
 Use, reproduction and disclosure by the US Government is
 subject to restrictions as set forth in subparagraphs (a)
 and (c) of the Commercial Computer Software - Restricted
 Rights clause in FAR 52.227-19.
  
 Gaussian, Inc.
 340 Quinnipiac St., Bldg. 40, Wallingford CT 06492
  
  
 ---------------------------------------------------------------
 Warning -- This program may not be used in any manner that
 competes with the business of Gaussian, Inc. or will provide
 assistance to any competitor of Gaussian, Inc.  The licensee
 of this program is prohibited from giving any competitor of
 Gaussian, Inc. access to this program.  By using this program,
 the user acknowledges that Gaussian, Inc. is engaged in the
 business of creating and licensing software in the field of
 computational chemistry and represents and warrants to the
 licensee that it is not a competitor of Gaussian, Inc. and that
 it will not use this program in any manner prohibited above.
 ---------------------------------------------------------------
  

 Cite this work as:
 Gaussian 09, Revision D.01,
 M. J. Frisch, G. W. Trucks, H. B. Schlegel, G. E. Scuseria, 
 M. A. Robb, J. R. Cheeseman, G. Scalmani, V. Barone, B. Mennucci, 
 G. A. Petersson, H. Nakatsuji, M. Caricato, X. Li, H. P. Hratchian, 
 A. F. Izmaylov, J. Bloino, G. Zheng, J. L. Sonnenberg, M. Hada, 
 M. Ehara, K. Toyota, R. Fukuda, J. Hasegawa, M. Ishida, T. Nakajima, 
 Y. Honda, O. Kitao, H. Nakai, T. Vreven, J. A. Montgomery, Jr., 
 J. E. Peralta, F. Ogliaro, M. Bearpark, J. J. Heyd, E. Brothers, 
 K. N. Kudin, V. N. Staroverov, T. Keith, R. Kobayashi, J. Normand, 
 K. Raghavachari, A. Rendell, J. C. Burant, S. S. Iyengar, J. Tomasi, 
 M. Cossi, N. Rega, J. M. Millam, M. Klene, J. E. Knox, J. B. Cross, 
 V. Bakken, C. Adamo, J. Jaramillo, R. Gomperts, R. E. Stratmann, 
 O. Yazyev, A. J. Austin, R. Cammi, C. Pomelli, J. W. Ochterski, 
 R. L. Martin, K. Morokuma, V. G. Zakrzewski, G. A. Voth, 
 P. Salvador, J. J. Dannenberg, S. Dapprich, A. D. Daniels, 
 O. Farkas, J. B. Foresman, J. V. Ortiz, J. Cioslowski, 
 and D. J. Fox, Gaussian, Inc., Wallingford CT, 2013.
 
 ******************************************
 Gaussian 09:  ES64L-G09RevD.01 24-Apr-2013
                26-May-2021 
 ******************************************
 %chk=/home/unibas/boittier/RDKit_G2/O.pdb/SCAN_1_2_6_8_S_17_20.0/9_SCAN_1_2_6_8_
 F/O.pdb.chk
 %nproc=8
 Will use up to    8 processors via shared memory.
 %mem=16GB
 -----------------------------
 #p wB97XD/6-31+G Opt=ModRedun
 -----------------------------
 1/14=-1,18=120,19=15,26=3,38=1/1,3;
 2/9=110,12=2,17=6,18=5,40=1/2;
 3/5=1,6=6,7=10,11=2,16=1,25=1,30=1,71=1,74=-58/1,2,3;
 4//1;
 5/5=2,38=5/2;
 6/7=2,8=2,9=2,10=2,28=1/1;
 7//1,2,3,16;
 1/14=-1,18=20,19=15,26=3/3(2);
 2/9=110/2;
 99//99;
 2/9=110/2;
 3/5=1,6=6,7=10,11=2,16=1,25=1,30=1,71=1,74=-58/1,2,3;
 4/5=5,16=3,69=1/1;
 5/5=2,38=5/2;
 7//1,2,3,16;
 1/14=-1,18=20,19=15,26=3/3(-5);
 2/9=110/2;
 6/7=2,8=2,9=2,10=2,19=2,28=1/1;
 99/9=1/99;
 Leave Link    1 at Wed May 26 09:01:13 2021, MaxMem=  2147483648 cpu:         0.2
 (Enter /opt/cluster/programs/g09_d.01/g09/l101.exe)
 -----
 O.pdb
 -----
 Symbolic Z-matrix:
 Charge =  0 Multiplicity = 1
 C                     0.67074  -1.34911   0.00076 
 C                     0.61343   0.15734  -0.00002 
 H                     0.18864  -1.76504   0.89137 
 H                     1.71747  -1.65029  -0.00807 
 H                     0.17252  -1.76813  -0.87936 
 O                    -0.62491   0.75401   0.00488 
 O                     1.60452   0.87659  -0.0024 
 C                    -1.85328  -0.02377  -0.00256 
 H                    -1.92902  -0.62926  -0.90978 
 H                    -2.64808   0.71843   0.01128 
 H                    -1.92374  -0.65727   0.88574 
 
 The following ModRedundant input section has been read:
 D       1       2       6       8 F                                           
 
 NAtoms=     11 NQM=       11 NQMF=       0 NMMI=      0 NMMIF=      0
                NMic=       0 NMicF=      0.
                    Isotopes and Nuclear Properties:
 (Nuclear quadrupole moments (NQMom) in fm**2, nuclear magnetic moments (NMagM)
  in nuclear magnetons)

  Atom         1           2           3           4           5           6           7           8           9          10
 IAtWgt=          12          12           1           1           1          16          16          12           1           1
 AtmWgt=  12.0000000  12.0000000   1.0078250   1.0078250   1.0078250  15.9949146  15.9949146  12.0000000   1.0078250   1.0078250
 NucSpn=           0           0           1           1           1           0           0           0           1           1
 AtZEff=   0.0000000   0.0000000   0.0000000   0.0000000   0.0000000   0.0000000   0.0000000   0.0000000   0.0000000   0.0000000
 NQMom=    0.0000000   0.0000000   0.0000000   0.0000000   0.0000000   0.0000000   0.0000000   0.0000000   0.0000000   0.0000000
 NMagM=    0.0000000   0.0000000   2.7928460   2.7928460   2.7928460   0.0000000   0.0000000   0.0000000   2.7928460   2.7928460
 AtZNuc=   6.0000000   6.0000000   1.0000000   1.0000000   1.0000000   8.0000000   8.0000000   6.0000000   1.0000000   1.0000000

  Atom        11
 IAtWgt=           1
 AtmWgt=   1.0078250
 NucSpn=           1
 AtZEff=   0.0000000
 NQMom=    0.0000000
 NMagM=    2.7928460
 AtZNuc=   1.0000000
 Leave Link  101 at Wed May 26 09:01:14 2021, MaxMem=  2147483648 cpu:         4.2
 (Enter /opt/cluster/programs/g09_d.01/g09/l103.exe)

 GradGradGradGradGradGradGradGradGradGradGradGradGradGradGradGradGradGrad
 Berny optimization.
 Initialization pass.
                           ----------------------------
                           !    Initial Parameters    !
                           ! (Angstroms and Degrees)  !
 --------------------------                            --------------------------
 ! Name  Definition              Value          Derivative Info.                !
 --------------------------------------------------------------------------------
 ! R1    R(1,2)                  1.5075         estimate D2E/DX2                !
 ! R2    R(1,3)                  1.0948         estimate D2E/DX2                !
 ! R3    R(1,4)                  1.0892         estimate D2E/DX2                !
 ! R4    R(1,5)                  1.0947         estimate D2E/DX2                !
 ! R5    R(2,6)                  1.3746         estimate D2E/DX2                !
 ! R6    R(2,7)                  1.2246         estimate D2E/DX2                !
 ! R7    R(6,8)                  1.4539         estimate D2E/DX2                !
 ! R8    R(8,9)                  1.0933         estimate D2E/DX2                !
 ! R9    R(8,10)                 1.0875         estimate D2E/DX2                !
 ! R10   R(8,11)                 1.0933         estimate D2E/DX2                !
 ! A1    A(2,1,3)              111.3042         estimate D2E/DX2                !
 ! A2    A(2,1,4)              108.2303         estimate D2E/DX2                !
 ! A3    A(2,1,5)              111.3932         estimate D2E/DX2                !
 ! A4    A(3,1,4)              108.9486         estimate D2E/DX2                !
 ! A5    A(3,1,5)              107.9498         estimate D2E/DX2                !
 ! A6    A(4,1,5)              108.9655         estimate D2E/DX2                !
 ! A7    A(1,2,6)              117.905          estimate D2E/DX2                !
 ! A8    A(1,2,7)              123.79           estimate D2E/DX2                !
 ! A9    A(6,2,7)              118.3048         estimate D2E/DX2                !
 ! A10   A(2,6,8)              121.9303         estimate D2E/DX2                !
 ! A11   A(6,8,9)              111.0406         estimate D2E/DX2                !
 ! A12   A(6,8,10)             104.6134         estimate D2E/DX2                !
 ! A13   A(6,8,11)             111.1156         estimate D2E/DX2                !
 ! A14   A(9,8,10)             109.7478         estimate D2E/DX2                !
 ! A15   A(9,8,11)             110.4147         estimate D2E/DX2                !
 ! A16   A(10,8,11)            109.7548         estimate D2E/DX2                !
 ! D1    D(3,1,2,6)            -60.5559         estimate D2E/DX2                !
 ! D2    D(3,1,2,7)            119.3112         estimate D2E/DX2                !
 ! D3    D(4,1,2,6)            179.748          estimate D2E/DX2                !
 ! D4    D(4,1,2,7)             -0.3849         estimate D2E/DX2                !
 ! D5    D(5,1,2,6)             59.9775         estimate D2E/DX2                !
 ! D6    D(5,1,2,7)           -120.1554         estimate D2E/DX2                !
 ! D7    D(1,2,6,8)             -0.6146         Frozen                          !
 ! D8    D(7,2,6,8)            179.5108         estimate D2E/DX2                !
 ! D9    D(2,6,8,9)            -62.0856         estimate D2E/DX2                !
 ! D10   D(2,6,8,10)           179.5931         estimate D2E/DX2                !
 ! D11   D(2,6,8,11)            61.2256         estimate D2E/DX2                !
 --------------------------------------------------------------------------------
 Trust Radius=3.00D-01 FncErr=1.00D-07 GrdErr=1.00D-06
 Number of steps in this run=     47 maximum allowed number of steps=    100.
 GradGradGradGradGradGradGradGradGradGradGradGradGradGradGradGradGradGrad

 Leave Link  103 at Wed May 26 09:01:14 2021, MaxMem=  2147483648 cpu:         0.1
 (Enter /opt/cluster/programs/g09_d.01/g09/l202.exe)
                          Input orientation:                          
 ---------------------------------------------------------------------
 Center     Atomic      Atomic             Coordinates (Angstroms)
 Number     Number       Type             X           Y           Z
 ---------------------------------------------------------------------
      1          6           0        0.670740   -1.349107    0.000761
      2          6           0        0.613427    0.157336   -0.000024
      3          1           0        0.188635   -1.765037    0.891366
      4          1           0        1.717474   -1.650289   -0.008070
      5          1           0        0.172519   -1.768127   -0.879358
      6          8           0       -0.624908    0.754014    0.004876
      7          8           0        1.604523    0.876586   -0.002404
      8          6           0       -1.853284   -0.023770   -0.002563
      9          1           0       -1.929024   -0.629260   -0.909776
     10          1           0       -2.648078    0.718430    0.011282
     11          1           0       -1.923737   -0.657269    0.885735
 ---------------------------------------------------------------------
                    Distance matrix (angstroms):
                    1          2          3          4          5
     1  C    0.000000
     2  C    1.507533   0.000000
     3  H    1.094806   2.161144   0.000000
     4  H    1.089239   2.118134   1.777498   0.000000
     5  H    1.094720   2.162183   1.770800   1.777615   0.000000
     6  O    2.470190   1.374599   2.791654   3.356724   2.789078
     7  O    2.413642   1.224581   3.127577   2.529405   3.132761
     8  C    2.850829   2.473352   2.828525   3.923762   2.813437
     9  H    2.847109   2.812550   3.003095   3.892624   2.390487
    10  H    3.910163   3.309436   3.871575   4.966815   3.864191
    11  H    2.827212   2.808087   2.385225   3.878581   2.957000
                    6          7          8          9         10
     6  O    0.000000
     7  O    2.232810   0.000000
     8  C    1.453929   3.573104   0.000000
     9  H    2.109681   3.946752   1.093339   0.000000
    10  H    2.023493   4.255563   1.087543   1.783719   0.000000
    11  H    2.110590   3.948433   1.093324   1.795737   1.783784
                   11
    11  H    0.000000
 Stoichiometry    C3H6O2
 Framework group  C1[X(C3H6O2)]
 Deg. of freedom    27
 Full point group                 C1      NOp   1
 Largest Abelian subgroup         C1      NOp   1
 Largest concise Abelian subgroup C1      NOp   1
                         Standard orientation:                         
 ---------------------------------------------------------------------
 Center     Atomic      Atomic             Coordinates (Angstroms)
 Number     Number       Type             X           Y           Z
 ---------------------------------------------------------------------
      1          6           0        0.670740    1.349107   -0.000761
      2          6           0        0.613427   -0.157336    0.000024
      3          1           0        0.188635    1.765037   -0.891366
      4          1           0        1.717474    1.650289    0.008070
      5          1           0        0.172519    1.768127    0.879358
      6          8           0       -0.624908   -0.754014   -0.004876
      7          8           0        1.604523   -0.876586    0.002404
      8          6           0       -1.853284    0.023770    0.002563
      9          1           0       -1.929024    0.629260    0.909776
     10          1           0       -2.648078   -0.718430   -0.011282
     11          1           0       -1.923737    0.657269   -0.885735
 ---------------------------------------------------------------------
 Rotational constants (GHZ):      8.9315531      4.2401217      2.9840167
 Leave Link  202 at Wed May 26 09:01:14 2021, MaxMem=  2147483648 cpu:         0.0
 (Enter /opt/cluster/programs/g09_d.01/g09/l301.exe)
 Standard basis: 6-31+G (6D, 7F)
 Ernie: Thresh=  0.10000D-02 Tol=  0.10000D-05 Strict=F.
 There are    77 symmetry adapted cartesian basis functions of A   symmetry.
 There are    77 symmetry adapted basis functions of A   symmetry.
    77 basis functions,   154 primitive gaussians,    77 cartesian basis functions
    20 alpha electrons       20 beta electrons
       nuclear repulsion energy       179.1562137821 Hartrees.
 IExCor= 4639 DFT=T Ex+Corr=wB97XD ExCW=0 ScaHFX=  1.000000
 ScaDFX=  1.000000  1.000000  1.000000  1.000000 ScalE2=  1.000000  1.000000
 IRadAn=      0 IRanWt=     -1 IRanGd=            0 ICorTp=0 IEmpDi=121
  HFx wShort=  0.000000 wLong=  0.200000 cFull=  0.222036 cShort=  0.000000 cLong=  0.777964
  DFx wShort=  0.000000 wLong=  0.200000 cFull=  0.000000 cShort=  0.000000 cLong=  1.000000
 NAtoms=   11 NActive=   11 NUniq=   11 SFac= 1.00D+00 NAtFMM=   60 NAOKFM=F Big=F
 Integral buffers will be    131072 words long.
 Raffenetti 2 integral format.
 Two-electron integral symmetry is turned on.
 R6Disp:  Grimme-D2 Dispersion energy=       -0.0039331216 Hartrees.
 Nuclear repulsion after empirical dispersion term =      179.1522806605 Hartrees.
 Leave Link  301 at Wed May 26 09:01:14 2021, MaxMem=  2147483648 cpu:         0.3
 (Enter /opt/cluster/programs/g09_d.01/g09/l302.exe)
 NPDir=0 NMtPBC=     1 NCelOv=     1 NCel=       1 NClECP=     1 NCelD=      1
         NCelK=      1 NCelE2=     1 NClLst=     1 CellRange=     0.0.
 One-electron integrals computed using PRISM.
 NBasis=    77 RedAO= T EigKep=  1.67D-04  NBF=    77
 NBsUse=    77 1.00D-06 EigRej= -1.00D+00 NBFU=    77
 Precomputing XC quadrature grid using
 IXCGrd= 4 IRadAn=           0 IRanWt=          -1 IRanGd=           0 AccXCQ= 0.00D+00.
 Generated NRdTot=       0 NPtTot=           0 NUsed=           0 NTot=          32
 NSgBfM=    77    77    77    77    77 MxSgAt=    11 MxSgA2=    11.
 Leave Link  302 at Wed May 26 09:01:14 2021, MaxMem=  2147483648 cpu:         0.9
 (Enter /opt/cluster/programs/g09_d.01/g09/l303.exe)
 DipDrv:  MaxL=1.
 Leave Link  303 at Wed May 26 09:01:14 2021, MaxMem=  2147483648 cpu:         0.3
 (Enter /opt/cluster/programs/g09_d.01/g09/l401.exe)
 ExpMin= 4.38D-02 ExpMax= 5.48D+03 ExpMxC= 8.25D+02 IAcc=2 IRadAn=         4 AccDes= 0.00D+00
 Harris functional with IExCor= 4639 and IRadAn=       4 diagonalized for initial guess.
 HarFok:  IExCor= 4639 AccDes= 0.00D+00 IRadAn=         4 IDoV= 1 UseB2=F ITyADJ=14
 ICtDFT=  3500011 ScaDFX=  1.000000  1.000000  1.000000  1.000000
 FoFCou: FMM=F IPFlag=           0 FMFlag=      100000 FMFlg1=           0
         NFxFlg=           0 DoJE=T BraDBF=F KetDBF=T FulRan=T
         wScrn=  0.000000 ICntrl=     500 IOpCl=  0 I1Cent=   200000004 NGrid=           0
         NMat0=    1 NMatS0=      1 NMatT0=    0 NMatD0=    1 NMtDS0=    0 NMtDT0=    0
 Petite list used in FoFCou.
 Harris En= -257.364567176800    
 JPrj=0 DoOrth=F DoCkMO=F.
 Leave Link  401 at Wed May 26 09:01:14 2021, MaxMem=  2147483648 cpu:         1.4
 (Enter /opt/cluster/programs/g09_d.01/g09/l502.exe)
 Closed shell SCF:
 Using DIIS extrapolation, IDIIS=  1040.
 Integral symmetry usage will be decided dynamically.
 Keep R1 ints in memory in canonical form, NReq=9956864.
 IVT=       37546 IEndB=       37546 NGot=  2147483648 MDV=  2138425091
 LenX=  2138425091 LenY=  2138418721
 Requested convergence on RMS density matrix=1.00D-08 within 128 cycles.
 Requested convergence on MAX density matrix=1.00D-06.
 Requested convergence on             energy=1.00D-06.
 No special actions if energy rises.
 FoFCou: FMM=F IPFlag=           0 FMFlag=           0 FMFlg1=           0
         NFxFlg=           0 DoJE=F BraDBF=F KetDBF=F FulRan=T
         wScrn=  0.000000 ICntrl=     600 IOpCl=  0 I1Cent=           0 NGrid=           0
         NMat0=    1 NMatS0=   3003 NMatT0=    0 NMatD0=    1 NMtDS0=    0 NMtDT0=    0
 Symmetry not used in FoFCou.

 Cycle   1  Pass 1  IDiag  1:
 E= -268.112490350462    
 DIIS: error= 3.18D-02 at cycle   1 NSaved=   1.
 NSaved= 1 IEnMin= 1 EnMin= -268.112490350462     IErMin= 1 ErrMin= 3.18D-02
 ErrMax= 3.18D-02  0.00D+00 EMaxC= 1.00D-01 BMatC= 1.47D-01 BMatP= 1.47D-01
 IDIUse=3 WtCom= 6.82D-01 WtEn= 3.18D-01
 Coeff-Com:  0.100D+01
 Coeff-En:   0.100D+01
 Coeff:      0.100D+01
 Gap=     0.559 Goal=   None    Shift=    0.000
 GapD=    0.559 DampG=2.000 DampE=0.500 DampFc=1.0000 IDamp=-1.
 RMSDP=1.09D-02 MaxDP=2.12D-01              OVMax= 1.12D-01

 Cycle   2  Pass 1  IDiag  1:
 E= -268.118589394208     Delta-E=       -0.006099043746 Rises=F Damp=F
 DIIS: error= 3.85D-02 at cycle   2 NSaved=   2.
 NSaved= 2 IEnMin= 2 EnMin= -268.118589394208     IErMin= 1 ErrMin= 3.18D-02
 ErrMax= 3.85D-02  0.00D+00 EMaxC= 1.00D-01 BMatC= 1.19D-01 BMatP= 1.47D-01
 IDIUse=3 WtCom= 6.15D-01 WtEn= 3.85D-01
 Coeff-Com:  0.469D+00 0.531D+00
 Coeff-En:   0.482D+00 0.518D+00
 Coeff:      0.474D+00 0.526D+00
 Gap=     0.436 Goal=   None    Shift=    0.000
 RMSDP=4.73D-03 MaxDP=8.56D-02 DE=-6.10D-03 OVMax= 9.55D-02

 Cycle   3  Pass 1  IDiag  1:
 E= -268.200957009174     Delta-E=       -0.082367614966 Rises=F Damp=F
 DIIS: error= 1.81D-02 at cycle   3 NSaved=   3.
 NSaved= 3 IEnMin= 3 EnMin= -268.200957009174     IErMin= 3 ErrMin= 1.81D-02
 ErrMax= 1.81D-02  0.00D+00 EMaxC= 1.00D-01 BMatC= 1.03D-02 BMatP= 1.19D-01
 IDIUse=3 WtCom= 8.19D-01 WtEn= 1.81D-01
 Coeff-Com:  0.106D+00 0.243D+00 0.650D+00
 Coeff-En:   0.000D+00 0.000D+00 0.100D+01
 Coeff:      0.870D-01 0.199D+00 0.714D+00
 Gap=     0.423 Goal=   None    Shift=    0.000
 RMSDP=2.00D-03 MaxDP=3.04D-02 DE=-8.24D-02 OVMax= 4.91D-02

 Cycle   4  Pass 1  IDiag  1:
 E= -268.206289459027     Delta-E=       -0.005332449853 Rises=F Damp=F
 DIIS: error= 7.84D-03 at cycle   4 NSaved=   4.
 NSaved= 4 IEnMin= 4 EnMin= -268.206289459027     IErMin= 4 ErrMin= 7.84D-03
 ErrMax= 7.84D-03  0.00D+00 EMaxC= 1.00D-01 BMatC= 3.20D-03 BMatP= 1.03D-02
 IDIUse=3 WtCom= 9.22D-01 WtEn= 7.84D-02
 Coeff-Com: -0.158D-02 0.393D-01 0.400D+00 0.563D+00
 Coeff-En:   0.000D+00 0.000D+00 0.250D+00 0.750D+00
 Coeff:     -0.146D-02 0.362D-01 0.388D+00 0.577D+00
 Gap=     0.423 Goal=   None    Shift=    0.000
 RMSDP=1.01D-03 MaxDP=1.28D-02 DE=-5.33D-03 OVMax= 1.52D-02

 Cycle   5  Pass 1  IDiag  1:
 E= -268.208581699974     Delta-E=       -0.002292240947 Rises=F Damp=F
 DIIS: error= 1.55D-03 at cycle   5 NSaved=   5.
 NSaved= 5 IEnMin= 5 EnMin= -268.208581699974     IErMin= 5 ErrMin= 1.55D-03
 ErrMax= 1.55D-03  0.00D+00 EMaxC= 1.00D-01 BMatC= 1.26D-04 BMatP= 3.20D-03
 IDIUse=3 WtCom= 9.85D-01 WtEn= 1.55D-02
 Coeff-Com: -0.573D-02 0.258D-02 0.160D+00 0.304D+00 0.539D+00
 Coeff-En:   0.000D+00 0.000D+00 0.000D+00 0.000D+00 0.100D+01
 Coeff:     -0.564D-02 0.254D-02 0.158D+00 0.299D+00 0.546D+00
 Gap=     0.421 Goal=   None    Shift=    0.000
 RMSDP=1.82D-04 MaxDP=2.40D-03 DE=-2.29D-03 OVMax= 2.74D-03

 Cycle   6  Pass 1  IDiag  1:
 E= -268.208682507743     Delta-E=       -0.000100807769 Rises=F Damp=F
 DIIS: error= 1.85D-04 at cycle   6 NSaved=   6.
 NSaved= 6 IEnMin= 6 EnMin= -268.208682507743     IErMin= 6 ErrMin= 1.85D-04
 ErrMax= 1.85D-04  0.00D+00 EMaxC= 1.00D-01 BMatC= 2.88D-06 BMatP= 1.26D-04
 IDIUse=3 WtCom= 9.98D-01 WtEn= 1.85D-03
 Coeff-Com: -0.311D-03-0.644D-02-0.293D-01-0.348D-01 0.565D-01 0.101D+01
 Coeff-En:   0.000D+00 0.000D+00 0.000D+00 0.000D+00 0.000D+00 0.100D+01
 Coeff:     -0.311D-03-0.643D-02-0.293D-01-0.348D-01 0.564D-01 0.101D+01
 Gap=     0.421 Goal=   None    Shift=    0.000
 RMSDP=1.64D-04 MaxDP=3.02D-03 DE=-1.01D-04 OVMax= 1.20D-03

 Cycle   7  Pass 1  IDiag  1:
 E= -268.208687845143     Delta-E=       -0.000005337399 Rises=F Damp=F
 DIIS: error= 5.10D-05 at cycle   7 NSaved=   7.
 NSaved= 7 IEnMin= 7 EnMin= -268.208687845143     IErMin= 7 ErrMin= 5.10D-05
 ErrMax= 5.10D-05  0.00D+00 EMaxC= 1.00D-01 BMatC= 3.40D-07 BMatP= 2.88D-06
 IDIUse=1 WtCom= 1.00D+00 WtEn= 0.00D+00
 Coeff-Com:  0.443D-03-0.228D-02-0.206D-01-0.356D-01-0.200D-01 0.302D+00
 Coeff-Com:  0.776D+00
 Coeff:      0.443D-03-0.228D-02-0.206D-01-0.356D-01-0.200D-01 0.302D+00
 Coeff:      0.776D+00
 Gap=     0.421 Goal=   None    Shift=    0.000
 RMSDP=3.21D-05 MaxDP=5.37D-04 DE=-5.34D-06 OVMax= 3.15D-04

 Cycle   8  Pass 1  IDiag  1:
 E= -268.208688395185     Delta-E=       -0.000000550042 Rises=F Damp=F
 DIIS: error= 2.03D-05 at cycle   8 NSaved=   8.
 NSaved= 8 IEnMin= 8 EnMin= -268.208688395185     IErMin= 8 ErrMin= 2.03D-05
 ErrMax= 2.03D-05  0.00D+00 EMaxC= 1.00D-01 BMatC= 2.63D-08 BMatP= 3.40D-07
 IDIUse=1 WtCom= 1.00D+00 WtEn= 0.00D+00
 Coeff-Com:  0.318D-04 0.567D-03 0.231D-02 0.526D-03-0.613D-02-0.106D+00
 Coeff-Com:  0.266D-01 0.108D+01
 Coeff:      0.318D-04 0.567D-03 0.231D-02 0.526D-03-0.613D-02-0.106D+00
 Coeff:      0.266D-01 0.108D+01
 Gap=     0.421 Goal=   None    Shift=    0.000
 RMSDP=1.02D-05 MaxDP=8.48D-05 DE=-5.50D-07 OVMax= 1.74D-04

 Cycle   9  Pass 1  IDiag  1:
 E= -268.208688456190     Delta-E=       -0.000000061006 Rises=F Damp=F
 DIIS: error= 3.07D-06 at cycle   9 NSaved=   9.
 NSaved= 9 IEnMin= 9 EnMin= -268.208688456190     IErMin= 9 ErrMin= 3.07D-06
 ErrMax= 3.07D-06  0.00D+00 EMaxC= 1.00D-01 BMatC= 6.51D-10 BMatP= 2.63D-08
 IDIUse=1 WtCom= 1.00D+00 WtEn= 0.00D+00
 Coeff-Com: -0.217D-04 0.119D-03 0.120D-02 0.196D-02 0.207D-02-0.143D-01
 Coeff-Com: -0.435D-01-0.257D-01 0.108D+01
 Coeff:     -0.217D-04 0.119D-03 0.120D-02 0.196D-02 0.207D-02-0.143D-01
 Coeff:     -0.435D-01-0.257D-01 0.108D+01
 Gap=     0.421 Goal=   None    Shift=    0.000
 RMSDP=3.64D-06 MaxDP=6.75D-05 DE=-6.10D-08 OVMax= 3.06D-05

 Cycle  10  Pass 1  IDiag  1:
 E= -268.208688458008     Delta-E=       -0.000000001818 Rises=F Damp=F
 DIIS: error= 7.05D-07 at cycle  10 NSaved=  10.
 NSaved=10 IEnMin=10 EnMin= -268.208688458008     IErMin=10 ErrMin= 7.05D-07
 ErrMax= 7.05D-07  0.00D+00 EMaxC= 1.00D-01 BMatC= 4.51D-11 BMatP= 6.51D-10
 IDIUse=1 WtCom= 1.00D+00 WtEn= 0.00D+00
 Coeff-Com: -0.385D-05-0.389D-05 0.966D-04 0.261D-03 0.724D-03 0.205D-02
 Coeff-Com: -0.816D-02-0.455D-01 0.178D+00 0.873D+00
 Coeff:     -0.385D-05-0.389D-05 0.966D-04 0.261D-03 0.724D-03 0.205D-02
 Coeff:     -0.816D-02-0.455D-01 0.178D+00 0.873D+00
 Gap=     0.421 Goal=   None    Shift=    0.000
 RMSDP=7.65D-07 MaxDP=1.42D-05 DE=-1.82D-09 OVMax= 2.94D-06

 Cycle  11  Pass 1  IDiag  1:
 E= -268.208688458074     Delta-E=       -0.000000000065 Rises=F Damp=F
 DIIS: error= 2.32D-07 at cycle  11 NSaved=  11.
 NSaved=11 IEnMin=11 EnMin= -268.208688458074     IErMin=11 ErrMin= 2.32D-07
 ErrMax= 2.32D-07  0.00D+00 EMaxC= 1.00D-01 BMatC= 6.67D-12 BMatP= 4.51D-11
 IDIUse=1 WtCom= 1.00D+00 WtEn= 0.00D+00
 Coeff-Com:  0.912D-06-0.140D-04-0.981D-04-0.138D-03 0.217D-04 0.211D-02
 Coeff-Com:  0.208D-02-0.101D-01-0.643D-01 0.273D+00 0.798D+00
 Coeff:      0.912D-06-0.140D-04-0.981D-04-0.138D-03 0.217D-04 0.211D-02
 Coeff:      0.208D-02-0.101D-01-0.643D-01 0.273D+00 0.798D+00
 Gap=     0.421 Goal=   None    Shift=    0.000
 RMSDP=2.13D-07 MaxDP=3.80D-06 DE=-6.51D-11 OVMax= 9.87D-07

 Cycle  12  Pass 1  IDiag  1:
 E= -268.208688458084     Delta-E=       -0.000000000011 Rises=F Damp=F
 DIIS: error= 4.25D-08 at cycle  12 NSaved=  12.
 NSaved=12 IEnMin=12 EnMin= -268.208688458084     IErMin=12 ErrMin= 4.25D-08
 ErrMax= 4.25D-08  0.00D+00 EMaxC= 1.00D-01 BMatC= 6.60D-14 BMatP= 6.67D-12
 IDIUse=1 WtCom= 1.00D+00 WtEn= 0.00D+00
 Coeff-Com:  0.533D-07 0.132D-05 0.289D-05-0.303D-05-0.347D-04-0.271D-03
 Coeff-Com:  0.969D-04 0.263D-02-0.191D-02-0.573D-01-0.718D-01 0.113D+01
 Coeff:      0.533D-07 0.132D-05 0.289D-05-0.303D-05-0.347D-04-0.271D-03
 Coeff:      0.969D-04 0.263D-02-0.191D-02-0.573D-01-0.718D-01 0.113D+01
 Gap=     0.421 Goal=   None    Shift=    0.000
 RMSDP=2.40D-08 MaxDP=3.98D-07 DE=-1.05D-11 OVMax= 2.35D-07

 Cycle  13  Pass 1  IDiag  1:
 E= -268.208688458085     Delta-E=       -0.000000000001 Rises=F Damp=F
 DIIS: error= 5.17D-09 at cycle  13 NSaved=  13.
 NSaved=13 IEnMin=13 EnMin= -268.208688458085     IErMin=13 ErrMin= 5.17D-09
 ErrMax= 5.17D-09  0.00D+00 EMaxC= 1.00D-01 BMatC= 1.27D-15 BMatP= 6.60D-14
 IDIUse=1 WtCom= 1.00D+00 WtEn= 0.00D+00
 Coeff-Com: -0.252D-07-0.194D-07 0.131D-05 0.313D-05 0.455D-05 0.129D-04
 Coeff-Com: -0.527D-04-0.239D-03 0.136D-02 0.468D-02-0.237D-02-0.199D+00
 Coeff-Com:  0.120D+01
 Coeff:     -0.252D-07-0.194D-07 0.131D-05 0.313D-05 0.455D-05 0.129D-04
 Coeff:     -0.527D-04-0.239D-03 0.136D-02 0.468D-02-0.237D-02-0.199D+00
 Coeff:      0.120D+01
 Gap=     0.421 Goal=   None    Shift=    0.000
 RMSDP=3.11D-09 MaxDP=4.95D-08 DE=-1.08D-12 OVMax= 3.95D-08

 SCF Done:  E(RwB97XD) =  -268.208688458     A.U. after   13 cycles
            NFock= 13  Conv=0.31D-08     -V/T= 2.0057
 KE= 2.666812347743D+02 PE=-9.857399522053D+02 EE= 2.716977483125D+02
 Leave Link  502 at Wed May 26 09:01:16 2021, MaxMem=  2147483648 cpu:        14.5
 (Enter /opt/cluster/programs/g09_d.01/g09/l601.exe)
 Copying SCF densities to generalized density rwf, IOpCl= 0 IROHF=0.

 **********************************************************************

            Population analysis using the SCF density.

 **********************************************************************

 Orbital symmetries:
       Occupied  (A) (A) (A) (A) (A) (A) (A) (A) (A) (A) (A) (A)
                 (A) (A) (A) (A) (A) (A) (A) (A)
       Virtual   (A) (A) (A) (A) (A) (A) (A) (A) (A) (A) (A) (A)
                 (A) (A) (A) (A) (A) (A) (A) (A) (A) (A) (A) (A)
                 (A) (A) (A) (A) (A) (A) (A) (A) (A) (A) (A) (A)
                 (A) (A) (A) (A) (A) (A) (A) (A) (A) (A) (A) (A)
                 (A) (A) (A) (A) (A) (A) (A) (A) (A)
 The electronic state is 1-A.
 Alpha  occ. eigenvalues --  -19.32472 -19.26960 -10.45159 -10.37115 -10.32305
 Alpha  occ. eigenvalues --   -1.21838  -1.13913  -0.87252  -0.84190  -0.67341
 Alpha  occ. eigenvalues --   -0.60787  -0.59429  -0.57542  -0.53664  -0.51659
 Alpha  occ. eigenvalues --   -0.50551  -0.47976  -0.43425  -0.38443  -0.36207
 Alpha virt. eigenvalues --    0.05902   0.06392   0.07649   0.08805   0.09498
 Alpha virt. eigenvalues --    0.12020   0.12645   0.13020   0.14078   0.14956
 Alpha virt. eigenvalues --    0.16840   0.17021   0.19455   0.20693   0.22282
 Alpha virt. eigenvalues --    0.25816   0.28396   0.28790   0.30062   0.31028
 Alpha virt. eigenvalues --    0.34988   0.35358   0.35722   0.36905   0.38876
 Alpha virt. eigenvalues --    0.39775   0.42108   0.44395   0.44597   0.48550
 Alpha virt. eigenvalues --    0.55915   0.67430   0.72036   0.72134   0.74542
 Alpha virt. eigenvalues --    0.76020   0.82513   0.86619   0.94319   0.97838
 Alpha virt. eigenvalues --    1.03884   1.10133   1.12073   1.16056   1.17098
 Alpha virt. eigenvalues --    1.21548   1.24800   1.28578   1.29167   1.36847
 Alpha virt. eigenvalues --    1.41175   1.44675   1.49067   1.58111   1.74796
 Alpha virt. eigenvalues --    1.93746   2.03967
          Condensed to atoms (all electrons):
               1          2          3          4          5          6
     1  C    6.692788  -0.400588   0.369176   0.348311   0.367149  -0.388117
     2  C   -0.400588   5.729726  -0.044252  -0.007261  -0.043406  -0.000374
     3  H    0.369176  -0.044252   0.479635  -0.019775  -0.028455   0.007713
     4  H    0.348311  -0.007261  -0.019775   0.434655  -0.019962   0.008472
     5  H    0.367149  -0.043406  -0.028455  -0.019962   0.481286   0.007371
     6  O   -0.388117  -0.000374   0.007713   0.008472   0.007371   8.985321
     7  O   -0.200209   0.377200   0.002131  -0.003892   0.002374  -0.181251
     8  C   -0.098220  -0.024410  -0.000728   0.000900   0.000463   0.006506
     9  H    0.012253  -0.014706  -0.000661  -0.000006   0.001044  -0.033950
    10  H   -0.008919   0.007985   0.000080  -0.000002   0.000091  -0.066329
    11  H    0.012798  -0.015055   0.001121  -0.000003  -0.000820  -0.033268
               7          8          9         10         11
     1  C   -0.200209  -0.098220   0.012253  -0.008919   0.012798
     2  C    0.377200  -0.024410  -0.014706   0.007985  -0.015055
     3  H    0.002131  -0.000728  -0.000661   0.000080   0.001121
     4  H   -0.003892   0.000900  -0.000006  -0.000002  -0.000003
     5  H    0.002374   0.000463   0.001044   0.000091  -0.000820
     6  O   -0.181251   0.006506  -0.033950  -0.066329  -0.033268
     7  O    8.398018   0.018039   0.000005   0.000018  -0.000079
     8  C    0.018039   5.301533   0.375190   0.416600   0.374290
     9  H    0.000005   0.375190   0.525333  -0.026640  -0.041381
    10  H    0.000018   0.416600  -0.026640   0.469426  -0.026611
    11  H   -0.000079   0.374290  -0.041381  -0.026611   0.526379
 Mulliken charges:
               1
     1  C   -0.706423
     2  C    0.435141
     3  H    0.234015
     4  H    0.258563
     5  H    0.232865
     6  O   -0.312094
     7  O   -0.412355
     8  C   -0.370162
     9  H    0.203521
    10  H    0.234301
    11  H    0.202628
 Sum of Mulliken charges =   0.00000
 Mulliken charges with hydrogens summed into heavy atoms:
               1
     1  C    0.019020
     2  C    0.435141
     6  O   -0.312094
     7  O   -0.412355
     8  C    0.270288
 Electronic spatial extent (au):  <R**2>=            433.7324
 Charge=              0.0000 electrons
 Dipole moment (field-independent basis, Debye):
    X=             -3.5075    Y=              4.2036    Z=              0.0064  Tot=              5.4748
 Quadrupole moment (field-independent basis, Debye-Ang):
   XX=            -30.9015   YY=            -33.0079   ZZ=            -29.5868
   XY=              3.2498   XZ=             -0.0234   YZ=             -0.0105
 Traceless Quadrupole moment (field-independent basis, Debye-Ang):
   XX=              0.2639   YY=             -1.8425   ZZ=              1.5786
   XY=              3.2498   XZ=             -0.0234   YZ=             -0.0105
 Octapole moment (field-independent basis, Debye-Ang**2):
  XXX=            -18.8475  YYY=              2.2414  ZZZ=              0.0088  XYY=             -1.5630
  XXY=              4.7071  XXZ=             -0.0073  XZZ=             -0.3940  YZZ=              0.4187
  YYZ=             -0.0262  XYZ=              0.0062
 Hexadecapole moment (field-independent basis, Debye-Ang**3):
 XXXX=           -325.2144 YYYY=           -183.9075 ZZZZ=            -41.2239 XXXY=             18.0817
 XXXZ=              0.0814 YYYX=              3.2351 YYYZ=             -0.0218 ZZZX=             -0.0763
 ZZZY=             -0.0354 XXYY=            -85.6233 XXZZ=            -62.5165 YYZZ=            -34.9645
 XXYZ=              0.0933 YYXZ=              0.0366 ZZXY=             -2.5617
 N-N= 1.791522806605D+02 E-N=-9.857399520630D+02  KE= 2.666812347743D+02
 No NMR shielding tensors so no spin-rotation constants.
 Leave Link  601 at Wed May 26 09:01:16 2021, MaxMem=  2147483648 cpu:         0.6
 (Enter /opt/cluster/programs/g09_d.01/g09/l701.exe)
 Compute integral first derivatives.
 ... and contract with generalized density number  0.
 R6Disp: Adding Grimme-D2 dispersion energy 1st derivatives to the gradient.
 Leave Link  701 at Wed May 26 09:01:16 2021, MaxMem=  2147483648 cpu:         0.6
 (Enter /opt/cluster/programs/g09_d.01/g09/l702.exe)
 L702 exits ... SP integral derivatives will be done elsewhere.
 Leave Link  702 at Wed May 26 09:01:16 2021, MaxMem=  2147483648 cpu:         0.2
 (Enter /opt/cluster/programs/g09_d.01/g09/l703.exe)
 Compute integral first derivatives, UseDBF=F ICtDFT=           0.
 Integral derivatives from FoFJK, PRISM(SPDF).
 Calling FoFJK, ICntrl=      2127 FMM=F ISym2X=0 I1Cent= 0 IOpClX= 0 NMat=1 NMatS=1 NMatT=0.
 FoFJK:  IHMeth= 1 ICntrl=    2127 DoSepK=T KAlg= 0 I1Cent=   0 FoldK=F
 IRaf=         1 NMat=   1 IRICut=       1 DoRegI=T DoRafI=F ISym2E= 0.
 FoFCou: FMM=F IPFlag=           0 FMFlag=      100000 FMFlg1=         800
         NFxFlg=           0 DoJE=F BraDBF=F KetDBF=F FulRan=T
         wScrn=  0.000000 ICntrl=    2527 IOpCl=  0 I1Cent=           0 NGrid=           0
         NMat0=    1 NMatS0=      1 NMatT0=    0 NMatD0=    1 NMtDS0=    0 NMtDT0=    0
 Symmetry not used in FoFCou.
 Leave Link  703 at Wed May 26 09:01:17 2021, MaxMem=  2147483648 cpu:         3.7
 (Enter /opt/cluster/programs/g09_d.01/g09/l716.exe)
 Dipole        =-1.37996106D+00 1.65382369D+00 2.51503822D-03
 ***** Axes restored to original set *****
 -------------------------------------------------------------------
 Center     Atomic                   Forces (Hartrees/Bohr)
 Number     Number              X              Y              Z
 -------------------------------------------------------------------
      1        6           0.000004539   -0.000003922   -0.000038471
      2        6           0.000000880    0.000000864    0.000078164
      3        1          -0.000005334   -0.000002505   -0.000002008
      4        1          -0.000002683   -0.000001987    0.000000009
      5        1          -0.000002865    0.000002297   -0.000002806
      6        8          -0.000000566   -0.000005573   -0.000073139
      7        8           0.000004297   -0.000001627    0.000002949
      8        6          -0.000000670    0.000008373    0.000033991
      9        1           0.000000894    0.000003259   -0.000001445
     10        1           0.000000883    0.000001741    0.000001841
     11        1           0.000000624   -0.000000920    0.000000914
 -------------------------------------------------------------------
 Cartesian Forces:  Max     0.000078164 RMS     0.000020859
 Leave Link  716 at Wed May 26 09:01:17 2021, MaxMem=  2147483648 cpu:         0.2
 (Enter /opt/cluster/programs/g09_d.01/g09/l103.exe)

 GradGradGradGradGradGradGradGradGradGradGradGradGradGradGradGradGradGrad
 Berny optimization.
 FormGI is forming the generalized inverse of G from B-inverse, IUseBI=4.
 Internal  Forces:  Max     0.000054799 RMS     0.000011605
 Search for a local minimum.
 Step number   1 out of a maximum of   47
 All quantities printed in internal units (Hartrees-Bohrs-Radians)
 RMS Force = .16374D-05 SwitMx=.10000D-02 MixMth= 2
 Mixed Optimization -- En-DIIS/RFO-DIIS
 Second derivative matrix not updated -- first step.
 ITU=  0
     Eigenvalues ---    0.00666   0.00978   0.01174   0.07149   0.07473
     Eigenvalues ---    0.09914   0.10655   0.16000   0.16000   0.16000
     Eigenvalues ---    0.16000   0.16000   0.16000   0.25000   0.25000
     Eigenvalues ---    0.25000   0.31600   0.34263   0.34273   0.34430
     Eigenvalues ---    0.34431   0.34901   0.35098   0.37735   0.50103
     Eigenvalues ---    0.933821000.000001000.000001000.000001000.00000
     Eigenvalues --- 1000.000001000.000001000.000001000.000001000.00000
     Eigenvalues --- 1000.000001000.00000
 RFO step:  Lambda= 0.00000000D+00 EMin= 6.66299577D-03
 Linear search not attempted -- first point.
 Iteration  1 RMS(Cart)=  0.00005560 RMS(Int)=  0.00000000
 Iteration  2 RMS(Cart)=  0.00000000 RMS(Int)=  0.00000000
 Iteration  1 RMS(Cart)=  0.00000000 RMS(Int)=  0.00000000
 ITry= 1 IFail=0 DXMaxC= 1.86D-04 DCOld= 1.00D+10 DXMaxT= 3.00D-01 DXLimC= 3.00D+00 Rises=F
 Variable       Old X    -DE/DX   Delta X   Delta X   Delta X     New X
                                 (Linear)    (Quad)   (Total)
    R1        2.84882   0.00000   0.00000   0.00000   0.00000   2.84883
    R2        2.06888   0.00000   0.00000   0.00000   0.00000   2.06889
    R3        2.05836   0.00000   0.00000   0.00000   0.00000   2.05836
    R4        2.06872   0.00000   0.00000   0.00000   0.00000   2.06872
    R5        2.59762   0.00000   0.00000   0.00000   0.00000   2.59762
    R6        2.31412   0.00000   0.00000   0.00000   0.00000   2.31412
    R7        2.74753   0.00000   0.00000  -0.00001  -0.00001   2.74752
    R8        2.06611   0.00000   0.00000   0.00000   0.00000   2.06611
    R9        2.05516   0.00000   0.00000   0.00000   0.00000   2.05516
   R10        2.06608   0.00000   0.00000   0.00001   0.00001   2.06609
    A1        1.94262   0.00000   0.00000  -0.00001  -0.00001   1.94261
    A2        1.88897   0.00000   0.00000   0.00001   0.00001   1.88899
    A3        1.94418   0.00000   0.00000  -0.00001  -0.00001   1.94416
    A4        1.90151   0.00000   0.00000   0.00001   0.00001   1.90152
    A5        1.88408   0.00000   0.00000  -0.00001  -0.00001   1.88407
    A6        1.90181   0.00000   0.00000   0.00002   0.00002   1.90182
    A7        2.05783   0.00000   0.00000  -0.00001  -0.00001   2.05782
    A8        2.16054   0.00000   0.00000   0.00000   0.00000   2.16055
    A9        2.06481   0.00000   0.00000   0.00001   0.00001   2.06482
   A10        2.12809   0.00000   0.00000   0.00001   0.00001   2.12810
   A11        1.93802   0.00000   0.00000   0.00000   0.00000   1.93802
   A12        1.82585   0.00000   0.00000   0.00002   0.00002   1.82587
   A13        1.93933   0.00000   0.00000  -0.00002  -0.00002   1.93931
   A14        1.91546   0.00000   0.00000   0.00001   0.00001   1.91547
   A15        1.92710   0.00000   0.00000   0.00000   0.00000   1.92710
   A16        1.91558   0.00000   0.00000   0.00000   0.00000   1.91558
    D1       -1.05690  -0.00001   0.00000   0.00011   0.00011  -1.05679
    D2        2.08237   0.00001   0.00000   0.00014   0.00014   2.08251
    D3        3.13719  -0.00001   0.00000   0.00010   0.00010   3.13729
    D4       -0.00672   0.00001   0.00000   0.00012   0.00012  -0.00659
    D5        1.04681  -0.00001   0.00000   0.00008   0.00008   1.04688
    D6       -2.09711   0.00001   0.00000   0.00010   0.00010  -2.09700
    D7       -0.01073   0.00005   0.00000   0.00000   0.00000  -0.01073
    D8        3.13305   0.00003   0.00000  -0.00002  -0.00002   3.13303
    D9       -1.08360   0.00000   0.00000   0.00001   0.00001  -1.08359
   D10        3.13449   0.00000   0.00000  -0.00001  -0.00001   3.13448
   D11        1.06859   0.00000   0.00000  -0.00001  -0.00001   1.06858
         Item               Value     Threshold  Converged?
 Maximum Force            0.000003     0.000450     YES
 RMS     Force            0.000002     0.000300     YES
 Maximum Displacement     0.000186     0.001800     YES
 RMS     Displacement     0.000056     0.001200     YES
 Predicted change in Energy=-5.165994D-10
 Optimization completed.
    -- Stationary point found.
                           ----------------------------
                           !   Optimized Parameters   !
                           ! (Angstroms and Degrees)  !
 --------------------------                            --------------------------
 ! Name  Definition              Value          Derivative Info.                !
 --------------------------------------------------------------------------------
 ! R1    R(1,2)                  1.5075         -DE/DX =    0.0                 !
 ! R2    R(1,3)                  1.0948         -DE/DX =    0.0                 !
 ! R3    R(1,4)                  1.0892         -DE/DX =    0.0                 !
 ! R4    R(1,5)                  1.0947         -DE/DX =    0.0                 !
 ! R5    R(2,6)                  1.3746         -DE/DX =    0.0                 !
 ! R6    R(2,7)                  1.2246         -DE/DX =    0.0                 !
 ! R7    R(6,8)                  1.4539         -DE/DX =    0.0                 !
 ! R8    R(8,9)                  1.0933         -DE/DX =    0.0                 !
 ! R9    R(8,10)                 1.0875         -DE/DX =    0.0                 !
 ! R10   R(8,11)                 1.0933         -DE/DX =    0.0                 !
 ! A1    A(2,1,3)              111.3042         -DE/DX =    0.0                 !
 ! A2    A(2,1,4)              108.2303         -DE/DX =    0.0                 !
 ! A3    A(2,1,5)              111.3932         -DE/DX =    0.0                 !
 ! A4    A(3,1,4)              108.9486         -DE/DX =    0.0                 !
 ! A5    A(3,1,5)              107.9498         -DE/DX =    0.0                 !
 ! A6    A(4,1,5)              108.9655         -DE/DX =    0.0                 !
 ! A7    A(1,2,6)              117.905          -DE/DX =    0.0                 !
 ! A8    A(1,2,7)              123.79           -DE/DX =    0.0                 !
 ! A9    A(6,2,7)              118.3048         -DE/DX =    0.0                 !
 ! A10   A(2,6,8)              121.9303         -DE/DX =    0.0                 !
 ! A11   A(6,8,9)              111.0406         -DE/DX =    0.0                 !
 ! A12   A(6,8,10)             104.6134         -DE/DX =    0.0                 !
 ! A13   A(6,8,11)             111.1156         -DE/DX =    0.0                 !
 ! A14   A(9,8,10)             109.7478         -DE/DX =    0.0                 !
 ! A15   A(9,8,11)             110.4147         -DE/DX =    0.0                 !
 ! A16   A(10,8,11)            109.7548         -DE/DX =    0.0                 !
 ! D1    D(3,1,2,6)            -60.5559         -DE/DX =    0.0                 !
 ! D2    D(3,1,2,7)            119.3112         -DE/DX =    0.0                 !
 ! D3    D(4,1,2,6)            179.748          -DE/DX =    0.0                 !
 ! D4    D(4,1,2,7)             -0.3849         -DE/DX =    0.0                 !
 ! D5    D(5,1,2,6)             59.9775         -DE/DX =    0.0                 !
 ! D6    D(5,1,2,7)           -120.1554         -DE/DX =    0.0                 !
 ! D7    D(1,2,6,8)             -0.6146         -DE/DX =    0.0001              !
 ! D8    D(7,2,6,8)            179.5108         -DE/DX =    0.0                 !
 ! D9    D(2,6,8,9)            -62.0856         -DE/DX =    0.0                 !
 ! D10   D(2,6,8,10)           179.5931         -DE/DX =    0.0                 !
 ! D11   D(2,6,8,11)            61.2256         -DE/DX =    0.0                 !
 --------------------------------------------------------------------------------
 Lowest energy point so far.  Saving SCF results.
 GradGradGradGradGradGradGradGradGradGradGradGradGradGradGradGradGradGrad

 Largest change from initial coordinates is atom    1       0.000 Angstoms.
 Leave Link  103 at Wed May 26 09:01:17 2021, MaxMem=  2147483648 cpu:         0.1
 (Enter /opt/cluster/programs/g09_d.01/g09/l202.exe)
                          Input orientation:                          
 ---------------------------------------------------------------------
 Center     Atomic      Atomic             Coordinates (Angstroms)
 Number     Number       Type             X           Y           Z
 ---------------------------------------------------------------------
      1          6           0        0.670740   -1.349107    0.000761
      2          6           0        0.613427    0.157336   -0.000024
      3          1           0        0.188635   -1.765037    0.891366
      4          1           0        1.717474   -1.650289   -0.008070
      5          1           0        0.172519   -1.768127   -0.879358
      6          8           0       -0.624908    0.754014    0.004876
      7          8           0        1.604523    0.876586   -0.002404
      8          6           0       -1.853284   -0.023770   -0.002563
      9          1           0       -1.929024   -0.629260   -0.909776
     10          1           0       -2.648078    0.718430    0.011282
     11          1           0       -1.923737   -0.657269    0.885735
 ---------------------------------------------------------------------
                    Distance matrix (angstroms):
                    1          2          3          4          5
     1  C    0.000000
     2  C    1.507533   0.000000
     3  H    1.094806   2.161144   0.000000
     4  H    1.089239   2.118134   1.777498   0.000000
     5  H    1.094720   2.162183   1.770800   1.777615   0.000000
     6  O    2.470190   1.374599   2.791654   3.356724   2.789078
     7  O    2.413642   1.224581   3.127577   2.529405   3.132761
     8  C    2.850829   2.473352   2.828525   3.923762   2.813437
     9  H    2.847109   2.812550   3.003095   3.892624   2.390487
    10  H    3.910163   3.309436   3.871575   4.966815   3.864191
    11  H    2.827212   2.808087   2.385225   3.878581   2.957000
                    6          7          8          9         10
     6  O    0.000000
     7  O    2.232810   0.000000
     8  C    1.453929   3.573104   0.000000
     9  H    2.109681   3.946752   1.093339   0.000000
    10  H    2.023493   4.255563   1.087543   1.783719   0.000000
    11  H    2.110590   3.948433   1.093324   1.795737   1.783784
                   11
    11  H    0.000000
 Stoichiometry    C3H6O2
 Framework group  C1[X(C3H6O2)]
 Deg. of freedom    27
 Full point group                 C1      NOp   1
 RotChk:  IX=0 Diff= 3.49D-16
 Largest Abelian subgroup         C1      NOp   1
 Largest concise Abelian subgroup C1      NOp   1
                         Standard orientation:                         
 ---------------------------------------------------------------------
 Center     Atomic      Atomic             Coordinates (Angstroms)
 Number     Number       Type             X           Y           Z
 ---------------------------------------------------------------------
      1          6           0        0.670740    1.349107   -0.000761
      2          6           0        0.613427   -0.157336    0.000024
      3          1           0        0.188635    1.765037   -0.891366
      4          1           0        1.717474    1.650289    0.008070
      5          1           0        0.172519    1.768127    0.879358
      6          8           0       -0.624908   -0.754014   -0.004876
      7          8           0        1.604523   -0.876586    0.002404
      8          6           0       -1.853284    0.023770    0.002563
      9          1           0       -1.929024    0.629260    0.909776
     10          1           0       -2.648078   -0.718430   -0.011282
     11          1           0       -1.923737    0.657269   -0.885735
 ---------------------------------------------------------------------
 Rotational constants (GHZ):      8.9315531      4.2401217      2.9840167
 Leave Link  202 at Wed May 26 09:01:17 2021, MaxMem=  2147483648 cpu:         0.0
 (Enter /opt/cluster/programs/g09_d.01/g09/l9999.exe)
 1\1\GINC-NODE09\FOpt\RwB97XD\6-31+G\C3H6O2\BOITTIER\26-May-2021\0\\#p 
 wB97XD/6-31+G Opt=ModRedun\\O.pdb\\0,1\C,0.67074,-1.349107,0.000761\C,
 0.613427,0.157336,-0.000024\H,0.188635,-1.765037,0.891366\H,1.717474,-
 1.650289,-0.00807\H,0.172519,-1.768127,-0.879358\O,-0.624908,0.754014,
 0.004876\O,1.604523,0.876586,-0.002404\C,-1.853284,-0.02377,-0.002563\
 H,-1.929024,-0.62926,-0.909776\H,-2.648078,0.71843,0.011282\H,-1.92373
 7,-0.657269,0.885735\\Version=ES64L-G09RevD.01\State=1-A\HF=-268.20868
 85\RMSD=3.113e-09\RMSF=2.086e-05\Dipole=-1.3799609,-1.6538239,-0.00251
 5\Quadrupole=0.1962026,-1.3698338,1.1736311,-2.4161758,0.0173715,-0.00
 7836\PG=C01 [X(C3H6O2)]\\@


 TELEVISION IS CALLED A MEDIUM BECAUSE IT ISN'T
 RARE, AND IT ISN'T WELL DONE.
 Job cpu time:       0 days  0 hours  0 minutes 27.7 seconds.
 File lengths (MBytes):  RWF=      5 Int=      0 D2E=      0 Chk=      2 Scr=      1
 Normal termination of Gaussian 09 at Wed May 26 09:01:17 2021.
