O.pdb                                                                   
FOpt      RwB97XD                                                     6-31+G              
Number of atoms                            I               11
Info1-9                                    I   N=           9
          22          22           0           0           0         100
           2          18        -802
Charge                                     I                0
Multiplicity                               I                1
Number of electrons                        I               40
Number of alpha electrons                  I               20
Number of beta electrons                   I               20
Number of basis functions                  I               77
Number of independent functions            I               77
Number of point charges in /Mol/           I                0
Number of translation vectors              I                0
Atomic numbers                             I   N=          11
           6           6           1           1           1           8
           8           6           1           1           1
Nuclear charges                            R   N=          11
  6.00000000E+00  6.00000000E+00  1.00000000E+00  1.00000000E+00  1.00000000E+00
  8.00000000E+00  8.00000000E+00  6.00000000E+00  1.00000000E+00  1.00000000E+00
  1.00000000E+00
Current cartesian coordinates              R   N=          33
  1.26751427E+00  2.54944300E+00 -1.43812883E-03  1.15920874E+00 -2.97321716E-01
  4.53061840E-05  3.56467755E-01  3.33543668E+00 -1.68443767E+00  3.24555479E+00
  3.11859474E+00  1.52500426E-02  3.26012928E-01  3.34127593E+00  1.66174575E+00
 -1.18090514E+00 -1.42488001E+00 -9.21435187E-03  3.03210891E+00 -1.65650701E+00
  4.54285438E-03 -3.50219954E+00  4.49184616E-02  4.84332084E-03 -3.64532754E+00
  1.18912872E+00  1.71922744E+00 -5.00414237E+00 -1.35763646E+00 -2.13199375E-02
 -3.63533656E+00  1.24205806E+00 -1.67379662E+00
Force Field                                I                0
Int Atom Types                             I   N=          11
           0           0           0           0           0           0
           0           0           0           0           0
MM charges                                 R   N=          11
  0.00000000E+00  0.00000000E+00  0.00000000E+00  0.00000000E+00  0.00000000E+00
  0.00000000E+00  0.00000000E+00  0.00000000E+00  0.00000000E+00  0.00000000E+00
  0.00000000E+00
Integer atomic weights                     I   N=          11
          12          12           1           1           1          16
          16          12           1           1           1
Real atomic weights                        R   N=          11
  1.20000000E+01  1.20000000E+01  1.00782504E+00  1.00782504E+00  1.00782504E+00
  1.59949146E+01  1.59949146E+01  1.20000000E+01  1.00782504E+00  1.00782504E+00
  1.00782504E+00
Atom fragment info                         I   N=          11
           0           0           0           0           0           0
           0           0           0           0           0
Atom residue num                           I   N=          11
           0           0           0           0           0           0
           0           0           0           0           0
Nuclear spins                              I   N=          11
           0           0           1           1           1           0
           0           0           1           1           1
Nuclear ZEff                               R   N=          11
 -3.60000000E+00 -3.60000000E+00 -1.00000000E+00 -1.00000000E+00 -1.00000000E+00
 -5.60000000E+00 -5.60000000E+00 -3.60000000E+00 -1.00000000E+00 -1.00000000E+00
 -1.00000000E+00
Nuclear ZNuc                               R   N=          11
  6.00000000E+00  6.00000000E+00  1.00000000E+00  1.00000000E+00  1.00000000E+00
  8.00000000E+00  8.00000000E+00  6.00000000E+00  1.00000000E+00  1.00000000E+00
  1.00000000E+00
Nuclear QMom                               R   N=          11
  0.00000000E+00  0.00000000E+00  0.00000000E+00  0.00000000E+00  0.00000000E+00
  0.00000000E+00  0.00000000E+00  0.00000000E+00  0.00000000E+00  0.00000000E+00
  0.00000000E+00
Nuclear GFac                               R   N=          11
  0.00000000E+00  0.00000000E+00  2.79284600E+00  2.79284600E+00  2.79284600E+00
  0.00000000E+00  0.00000000E+00  0.00000000E+00  2.79284600E+00  2.79284600E+00
  2.79284600E+00
MicOpt                                     I   N=          11
          -1          -1          -1          -1          -1          -1
          -1          -1          -1          -1          -1
Number of contracted shells                I               32
Number of primitive shells                 I               79
Pure/Cartesian d shells                    I                1
Pure/Cartesian f shells                    I                0
Highest angular momentum                   I                1
Largest degree of contraction              I                6
Shell types                                I   N=          32
           0          -1          -1          -1           0          -1
          -1          -1           0           0           0           0
           0           0           0          -1          -1          -1
           0          -1          -1          -1           0          -1
          -1          -1           0           0           0           0
           0           0
Number of primitives per shell             I   N=          32
           6           3           1           1           6           3
           1           1           3           1           3           1
           3           1           6           3           1           1
           6           3           1           1           6           3
           1           1           3           1           3           1
           3           1
Shell to atom map                          I   N=          32
           1           1           1           1           2           2
           2           2           3           3           4           4
           5           5           6           6           6           6
           7           7           7           7           8           8
           8           8           9           9          10          10
          11          11
Primitive exponents                        R   N=          79
  3.04752488E+03  4.57369518E+02  1.03948685E+02  2.92101553E+01  9.28666296E+00
  3.16392696E+00  7.86827235E+00  1.88128854E+00  5.44249258E-01  1.68714478E-01
  4.38000000E-02  3.04752488E+03  4.57369518E+02  1.03948685E+02  2.92101553E+01
  9.28666296E+00  3.16392696E+00  7.86827235E+00  1.88128854E+00  5.44249258E-01
  1.68714478E-01  4.38000000E-02  1.87311370E+01  2.82539436E+00  6.40121692E-01
  1.61277759E-01  1.87311370E+01  2.82539436E+00  6.40121692E-01  1.61277759E-01
  1.87311370E+01  2.82539436E+00  6.40121692E-01  1.61277759E-01  5.48467166E+03
  8.25234946E+02  1.88046958E+02  5.29645000E+01  1.68975704E+01  5.79963534E+00
  1.55396162E+01  3.59993359E+00  1.01376175E+00  2.70005823E-01  8.45000000E-02
  5.48467166E+03  8.25234946E+02  1.88046958E+02  5.29645000E+01  1.68975704E+01
  5.79963534E+00  1.55396162E+01  3.59993359E+00  1.01376175E+00  2.70005823E-01
  8.45000000E-02  3.04752488E+03  4.57369518E+02  1.03948685E+02  2.92101553E+01
  9.28666296E+00  3.16392696E+00  7.86827235E+00  1.88128854E+00  5.44249258E-01
  1.68714478E-01  4.38000000E-02  1.87311370E+01  2.82539436E+00  6.40121692E-01
  1.61277759E-01  1.87311370E+01  2.82539436E+00  6.40121692E-01  1.61277759E-01
  1.87311370E+01  2.82539436E+00  6.40121692E-01  1.61277759E-01
Contraction coefficients                   R   N=          79
  1.83473713E-03  1.40373228E-02  6.88426223E-02  2.32184443E-01  4.67941348E-01
  3.62311985E-01 -1.19332420E-01 -1.60854152E-01  1.14345644E+00  1.00000000E+00
  1.00000000E+00  1.83473713E-03  1.40373228E-02  6.88426223E-02  2.32184443E-01
  4.67941348E-01  3.62311985E-01 -1.19332420E-01 -1.60854152E-01  1.14345644E+00
  1.00000000E+00  1.00000000E+00  3.34946043E-02  2.34726953E-01  8.13757326E-01
  1.00000000E+00  3.34946043E-02  2.34726953E-01  8.13757326E-01  1.00000000E+00
  3.34946043E-02  2.34726953E-01  8.13757326E-01  1.00000000E+00  1.83107443E-03
  1.39501722E-02  6.84450781E-02  2.32714336E-01  4.70192898E-01  3.58520853E-01
 -1.10777550E-01 -1.48026263E-01  1.13076702E+00  1.00000000E+00  1.00000000E+00
  1.83107443E-03  1.39501722E-02  6.84450781E-02  2.32714336E-01  4.70192898E-01
  3.58520853E-01 -1.10777550E-01 -1.48026263E-01  1.13076702E+00  1.00000000E+00
  1.00000000E+00  1.83473713E-03  1.40373228E-02  6.88426223E-02  2.32184443E-01
  4.67941348E-01  3.62311985E-01 -1.19332420E-01 -1.60854152E-01  1.14345644E+00
  1.00000000E+00  1.00000000E+00  3.34946043E-02  2.34726953E-01  8.13757326E-01
  1.00000000E+00  3.34946043E-02  2.34726953E-01  8.13757326E-01  1.00000000E+00
  3.34946043E-02  2.34726953E-01  8.13757326E-01  1.00000000E+00
P(S=P) Contraction coefficients            R   N=          79
  0.00000000E+00  0.00000000E+00  0.00000000E+00  0.00000000E+00  0.00000000E+00
  0.00000000E+00  6.89990666E-02  3.16423961E-01  7.44308291E-01  1.00000000E+00
  1.00000000E+00  0.00000000E+00  0.00000000E+00  0.00000000E+00  0.00000000E+00
  0.00000000E+00  0.00000000E+00  6.89990666E-02  3.16423961E-01  7.44308291E-01
  1.00000000E+00  1.00000000E+00  0.00000000E+00  0.00000000E+00  0.00000000E+00
  0.00000000E+00  0.00000000E+00  0.00000000E+00  0.00000000E+00  0.00000000E+00
  0.00000000E+00  0.00000000E+00  0.00000000E+00  0.00000000E+00  0.00000000E+00
  0.00000000E+00  0.00000000E+00  0.00000000E+00  0.00000000E+00  0.00000000E+00
  7.08742682E-02  3.39752839E-01  7.27158577E-01  1.00000000E+00  1.00000000E+00
  0.00000000E+00  0.00000000E+00  0.00000000E+00  0.00000000E+00  0.00000000E+00
  0.00000000E+00  7.08742682E-02  3.39752839E-01  7.27158577E-01  1.00000000E+00
  1.00000000E+00  0.00000000E+00  0.00000000E+00  0.00000000E+00  0.00000000E+00
  0.00000000E+00  0.00000000E+00  6.89990666E-02  3.16423961E-01  7.44308291E-01
  1.00000000E+00  1.00000000E+00  0.00000000E+00  0.00000000E+00  0.00000000E+00
  0.00000000E+00  0.00000000E+00  0.00000000E+00  0.00000000E+00  0.00000000E+00
  0.00000000E+00  0.00000000E+00  0.00000000E+00  0.00000000E+00
Coordinates of each shell                  R   N=          96
  1.26751427E+00  2.54944300E+00 -1.43812883E-03  1.26751427E+00  2.54944300E+00
 -1.43812883E-03  1.26751427E+00  2.54944300E+00 -1.43812883E-03  1.26751427E+00
  2.54944300E+00 -1.43812883E-03  1.15920874E+00 -2.97321716E-01  4.53061840E-05
  1.15920874E+00 -2.97321716E-01  4.53061840E-05  1.15920874E+00 -2.97321716E-01
  4.53061840E-05  1.15920874E+00 -2.97321716E-01  4.53061840E-05  3.56467755E-01
  3.33543668E+00 -1.68443767E+00  3.56467755E-01  3.33543668E+00 -1.68443767E+00
  3.24555479E+00  3.11859474E+00  1.52500426E-02  3.24555479E+00  3.11859474E+00
  1.52500426E-02  3.26012928E-01  3.34127593E+00  1.66174575E+00  3.26012928E-01
  3.34127593E+00  1.66174575E+00 -1.18090514E+00 -1.42488001E+00 -9.21435187E-03
 -1.18090514E+00 -1.42488001E+00 -9.21435187E-03 -1.18090514E+00 -1.42488001E+00
 -9.21435187E-03 -1.18090514E+00 -1.42488001E+00 -9.21435187E-03  3.03210891E+00
 -1.65650701E+00  4.54285438E-03  3.03210891E+00 -1.65650701E+00  4.54285438E-03
  3.03210891E+00 -1.65650701E+00  4.54285438E-03  3.03210891E+00 -1.65650701E+00
  4.54285438E-03 -3.50219954E+00  4.49184616E-02  4.84332084E-03 -3.50219954E+00
  4.49184616E-02  4.84332084E-03 -3.50219954E+00  4.49184616E-02  4.84332084E-03
 -3.50219954E+00  4.49184616E-02  4.84332084E-03 -3.64532754E+00  1.18912872E+00
  1.71922744E+00 -3.64532754E+00  1.18912872E+00  1.71922744E+00 -5.00414237E+00
 -1.35763646E+00 -2.13199375E-02 -5.00414237E+00 -1.35763646E+00 -2.13199375E-02
 -3.63533656E+00  1.24205806E+00 -1.67379662E+00 -3.63533656E+00  1.24205806E+00
 -1.67379662E+00
Constraint Structure                       R   N=          33
  1.26751427E+00  2.54944300E+00 -1.43812883E-03  1.15920874E+00 -2.97321716E-01
  4.53061840E-05  3.56467755E-01  3.33543668E+00 -1.68443767E+00  3.24555479E+00
  3.11859474E+00  1.52500426E-02  3.26012928E-01  3.34127593E+00  1.66174575E+00
 -1.18090514E+00 -1.42488001E+00 -9.21435187E-03  3.03210891E+00 -1.65650701E+00
  4.54285438E-03 -3.50219954E+00  4.49184616E-02  4.84332084E-03 -3.64532754E+00
  1.18912872E+00  1.71922744E+00 -5.00414237E+00 -1.35763646E+00 -2.13199375E-02
 -3.63533656E+00  1.24205806E+00 -1.67379662E+00
Num ILSW                                   I              100
ILSW                                       I   N=         100
           0           1           0           0           2           0
           0           0           0           0        4639          -1
           0           0           0           0           2           0
           0           0           0           0           1           0
           1           0           0           0           0           0
           0           0      100000           0          -1           0
           0           0           0           0           0           0
           0           0           0           1           0           0
           0           0           1           0           0           0
           0           0         121          41           0           0
           0           0          58           0           0           0
           0           0           0          11           0           0
           0           0           0           0           0           0
           0           0           0           0           0           0
           0           0           0           0           0           0
           0           0           0           0           0           0
           0           0           0           0
Num RLSW                                   I               41
RLSW                                       R   N=          41
  1.00000000E+00  1.00000000E+00  1.00000000E+00  1.00000000E+00  1.00000000E+00
  0.00000000E+00  2.00000000E-01  2.22036000E-01  0.00000000E+00  7.77964000E-01
  0.00000000E+00  2.00000000E-01  0.00000000E+00  0.00000000E+00  1.00000000E+00
  0.00000000E+00  0.00000000E+00  1.00000000E+00  0.00000000E+00  0.00000000E+00
  0.00000000E+00  0.00000000E+00  1.00000000E+00  0.00000000E+00  0.00000000E+00
  0.00000000E+00  0.00000000E+00  1.00000000E+00  0.00000000E+00  0.00000000E+00
  0.00000000E+00  0.00000000E+00  1.00000000E+00  0.00000000E+00  0.00000000E+00
  0.00000000E+00  0.00000000E+00  0.00000000E+00  1.00000000E+00  1.00000000E+00
  0.00000000E+00
MxBond                                     I                4
NBond                                      I   N=          11
           4           3           1           1           1           2
           1           4           1           1           1
IBond                                      I   N=          44
           2           3           4           5           1           6
           7           0           1           0           0           0
           1           0           0           0           1           0
           0           0           2           8           0           0
           2           0           0           0           6           9
          10          11           8           0           0           0
           8           0           0           0           8           0
           0           0
RBond                                      R   N=          44
  1.00000000E+00  1.00000000E+00  1.00000000E+00  1.00000000E+00  1.00000000E+00
  1.50000000E+00  2.00000000E+00  0.00000000E+00  1.00000000E+00  0.00000000E+00
  0.00000000E+00  0.00000000E+00  1.00000000E+00  0.00000000E+00  0.00000000E+00
  0.00000000E+00  1.00000000E+00  0.00000000E+00  0.00000000E+00  0.00000000E+00
  1.50000000E+00  1.00000000E+00  0.00000000E+00  0.00000000E+00  2.00000000E+00
  0.00000000E+00  0.00000000E+00  0.00000000E+00  1.00000000E+00  1.00000000E+00
  1.00000000E+00  1.00000000E+00  1.00000000E+00  0.00000000E+00  0.00000000E+00
  0.00000000E+00  1.00000000E+00  0.00000000E+00  0.00000000E+00  0.00000000E+00
  1.00000000E+00  0.00000000E+00  0.00000000E+00  0.00000000E+00
Virial Ratio                               R      2.005727638411038E+00
SCF Energy                                 R     -2.682086884580851E+02
Total Energy                               R     -2.682086884580851E+02
RMS Force                                  R      2.085865691698156E-05
RMS Density                                R      3.113416114025925E-09
External E-field                           R   N=          35
  0.00000000E+00  0.00000000E+00  0.00000000E+00  0.00000000E+00  0.00000000E+00
  0.00000000E+00  0.00000000E+00  0.00000000E+00  0.00000000E+00  0.00000000E+00
  0.00000000E+00  0.00000000E+00  0.00000000E+00  0.00000000E+00  0.00000000E+00
  0.00000000E+00  0.00000000E+00  0.00000000E+00  0.00000000E+00  0.00000000E+00
  0.00000000E+00  0.00000000E+00  0.00000000E+00  0.00000000E+00  0.00000000E+00
  0.00000000E+00  0.00000000E+00  0.00000000E+00  0.00000000E+00  0.00000000E+00
  0.00000000E+00  0.00000000E+00  0.00000000E+00  0.00000000E+00  0.00000000E+00
IOpCl                                      I                0
IROHF                                      I                0
Alpha Orbital Energies                     R   N=          77
 -1.93247164E+01 -1.92695975E+01 -1.04515934E+01 -1.03711545E+01 -1.03230495E+01
 -1.21838154E+00 -1.13913353E+00 -8.72518046E-01 -8.41904865E-01 -6.73406928E-01
 -6.07873846E-01 -5.94291461E-01 -5.75419699E-01 -5.36639490E-01 -5.16589784E-01
 -5.05513795E-01 -4.79759759E-01 -4.34247964E-01 -3.84433281E-01 -3.62070739E-01
  5.90161336E-02  6.39177030E-02  7.64923375E-02  8.80502455E-02  9.49806957E-02
  1.20203132E-01  1.26454239E-01  1.30198024E-01  1.40784641E-01  1.49564546E-01
  1.68398046E-01  1.70205650E-01  1.94551644E-01  2.06932611E-01  2.22816245E-01
  2.58157974E-01  2.83958802E-01  2.87901289E-01  3.00618654E-01  3.10283093E-01
  3.49881546E-01  3.53584199E-01  3.57221121E-01  3.69045962E-01  3.88762941E-01
  3.97749343E-01  4.21080493E-01  4.43954932E-01  4.45970158E-01  4.85497478E-01
  5.59152528E-01  6.74298316E-01  7.20361159E-01  7.21338082E-01  7.45423445E-01
  7.60203166E-01  8.25133785E-01  8.66190408E-01  9.43190944E-01  9.78381522E-01
  1.03884085E+00  1.10132943E+00  1.12072551E+00  1.16055568E+00  1.17098363E+00
  1.21547667E+00  1.24799835E+00  1.28577886E+00  1.29167234E+00  1.36847488E+00
  1.41174973E+00  1.44675103E+00  1.49067069E+00  1.58110735E+00  1.74795776E+00
  1.93746217E+00  2.03966617E+00
Alpha MO coefficients                      R   N=        5929
  3.02089390E-05  4.87616261E-05 -3.06233863E-05  1.47588752E-04 -8.06811372E-07
 -9.14045679E-04  2.37588404E-03  6.82314417E-04  1.53925247E-05  1.49217014E-02
 -1.22004175E-03 -3.78812400E-03  4.17135130E-06  7.47729918E-05  2.27868856E-04
 -3.98616376E-04 -1.24871567E-04 -3.65656021E-07  2.74033969E-03 -5.78138179E-03
 -7.27728063E-05 -2.09242094E-05 -1.95647790E-02  3.07439310E-03 -4.67547451E-03
  5.73678230E-06  2.46151785E-04 -1.38913402E-04 -1.68566225E-04 -1.02330630E-03
  2.53070391E-04 -1.62169627E-04  9.95237807E-01  2.98870956E-02  2.01931266E-04
  1.96281312E-03  1.48106948E-05 -2.18110186E-02 -8.37949227E-04 -4.04386729E-03
 -2.80787574E-05  9.18157551E-03  6.54087672E-04  1.50502341E-03  3.67380788E-06
 -3.78697783E-04 -3.31111603E-04  4.83867535E-05 -8.15187548E-05 -9.52236175E-08
  1.71341229E-03  2.83856341E-05  9.86315463E-04  1.27378889E-06  1.47608685E-03
 -3.94361940E-04  8.30017720E-04  3.08488675E-06 -3.80990487E-05 -2.82113674E-04
  6.39873340E-04 -3.35680946E-04 -3.19066667E-06  4.76098102E-03  1.47903062E-03
 -5.67667366E-04 -6.52424239E-06  1.14738284E-03 -3.14166886E-04  1.79021628E-04
  8.99920413E-06 -3.69993817E-04 -1.21206573E-03 -2.42072244E-04 -1.02727166E-03
 -3.74787312E-04 -1.20766454E-03 -1.09219148E-05 -2.47877389E-04 -9.70661140E-05
  1.06074463E-04 -1.41400715E-06  2.52733875E-03 -1.76569301E-03 -9.89145539E-04
  9.37248776E-06  7.95341564E-03  1.38341626E-03 -2.07448005E-03  4.96707276E-06
  2.21702050E-04  2.03150818E-04 -1.73805217E-05  1.97972647E-04  1.11787423E-06
  8.48662850E-03  6.56797792E-03 -7.01359102E-03  8.18583487E-06 -1.00651222E-02
 -3.80477388E-03 -1.99195715E-03 -7.52881149E-06 -8.56351627E-05 -2.71352923E-04
  1.16920988E-04  1.08268052E-04 -8.72107479E-05 -2.98493412E-04  3.70321463E-04
 -2.01925508E-04 -1.10700140E-04 -1.05578695E-04 -6.31819177E-07  9.48006236E-06
 -4.80312756E-04  9.79666034E-04 -6.29310904E-07 -2.19264298E-03 -2.35837981E-03
  2.37603202E-04 -5.19319942E-06  9.95234507E-01  2.98351708E-02 -1.87481745E-03
  1.33793417E-03 -5.08085888E-06 -2.36221388E-02  4.89107743E-03 -3.20723347E-03
  1.42362364E-05  8.01108023E-03 -6.34389325E-04  4.00004046E-04 -3.43067135E-06
 -4.51823677E-05 -5.03707520E-04 -2.07840530E-04  3.77225840E-05  1.77287174E-06
  7.15048293E-04  8.53975603E-04  5.12016730E-04 -2.15083371E-07 -9.47421320E-04
 -2.36385687E-04  3.44638749E-04  3.01994957E-06 -9.58314742E-05 -3.87043215E-04
  9.07349775E-05 -1.35819890E-04 -9.33064311E-05 -4.10069572E-04  7.12893477E-04
 -9.04189552E-04 -1.50713265E-04  2.59074461E-04 -3.45758156E-06  7.87853479E-03
  1.06430825E-03 -2.99264966E-03  2.74665076E-05  2.54775773E-02 -1.69041279E-03
 -5.60939713E-03  1.77349736E-05  9.95590436E-01  3.72297066E-02 -6.97080151E-05
 -1.13875761E-03 -3.08096413E-06 -3.66579911E-02  7.44123646E-04 -1.52116970E-03
  2.17494070E-06 -3.50385934E-02  4.48425530E-03 -8.50784045E-03 -1.44463725E-06
 -1.43927992E-04 -9.08677685E-04 -1.54018898E-04 -2.20819805E-03 -1.42123038E-04
 -9.50443647E-04  3.78453550E-05  3.75318584E-04 -1.32649756E-04 -1.61210873E-04
 -1.55227709E-06  6.36808191E-05 -9.67425487E-04  4.85174325E-04  3.41387364E-06
  1.54493047E-02  4.12468694E-03  6.80263099E-03  3.02715495E-05 -1.44505088E-04
 -1.33207162E-05  4.28754789E-04 -3.06735950E-04  9.92802094E-07  4.78196528E-04
  2.88966437E-04  1.60347822E-04  1.39365560E-06  1.00568625E-02 -4.51137821E-03
  3.91288130E-03 -1.03521504E-05  6.43240204E-05  2.56949971E-04 -1.58425014E-05
  1.86444791E-05 -2.42614234E-06 -3.01000104E-03 -1.39519624E-03  1.17639798E-03
  2.62192521E-05  4.22193895E-03  1.15844104E-03 -1.51692138E-03 -1.83248697E-06
  7.42670488E-05 -1.46345768E-03  1.60274284E-04  2.77209788E-04  7.92297194E-05
 -1.47716922E-03 -4.00631513E-04 -7.73358736E-04  3.45118652E-04  7.17019721E-05
  2.60303133E-06  1.81567454E-03 -8.88308669E-04  8.78867318E-05 -2.82938152E-05
  2.43600531E-02 -8.31660115E-04 -5.48274381E-03 -1.21405382E-06  5.00858055E-07
  2.43921908E-04  9.41196773E-05  3.40537115E-05 -3.03201071E-07 -5.99943743E-03
 -1.46192249E-03  1.61286432E-03  3.82186321E-06 -2.04220018E-02 -9.51796110E-04
 -9.75464763E-03 -8.79125700E-06 -1.45817954E-04 -1.32019452E-03  2.67146173E-05
 -2.94392791E-04 -1.60477691E-04 -1.23262671E-03  3.74597210E-05  2.39482774E-04
  1.73414915E-05 -2.36999162E-05 -2.16389021E-06  1.87210174E-03  1.95901202E-04
  3.57328217E-04  1.35892377E-05  1.59455620E-02 -9.06359485E-03  6.40817416E-03
  3.59333117E-05 -2.74707378E-05 -3.94002629E-04  8.35947303E-05 -5.22517287E-06
  1.31787215E-06  2.34495084E-03 -1.37608132E-03  5.14069057E-04 -8.87644294E-06
  5.77159105E-03 -2.17779969E-03  1.40824663E-03 -7.81992200E-06  9.95573294E-01
  3.75747941E-02  1.19192385E-03 -4.88906847E-04 -5.68977673E-06 -3.71344386E-02
 -4.01330029E-03  1.41637687E-03  1.02059752E-05 -1.16630358E-02 -3.78870131E-03
  1.20072968E-03  1.30489497E-05 -4.59936706E-04  5.63830941E-03 -4.22979771E-04
  4.34589182E-03 -4.56065254E-04  5.61546921E-03  9.95502425E-01  3.78144496E-02
 -3.63432901E-04 -2.12935150E-04 -4.00203779E-06 -4.01877704E-02  1.14510628E-03
  3.94322509E-03  1.78625468E-05 -1.55478705E-02  5.30468382E-04  3.26519187E-03
  6.44273186E-06 -7.42234025E-04 -1.02511507E-03 -1.02373319E-04 -7.25367063E-04
  6.35429919E-07  8.40132943E-03  3.25494309E-04  9.13738275E-03 -4.81509797E-06
  1.20374323E-02  6.35721316E-04  3.67243952E-03 -3.89531313E-07 -4.70926778E-04
  8.33060141E-03 -4.80296671E-04  6.92559604E-03 -4.67821299E-04  8.30056715E-03
  4.27723008E-06 -1.03605815E-04 -1.84839642E-04 -3.20812332E-05  1.14802911E-06
 -2.20539911E-04  1.37064052E-03 -8.90532746E-04 -8.31743580E-06  1.15327741E-04
  1.86856351E-04 -2.32681769E-04 -1.65530002E-06 -7.31933136E-06 -2.08267741E-04
  8.30896685E-05 -5.04749252E-05 -1.87505880E-07  7.11442641E-04 -8.54995763E-04
 -4.66385519E-04  9.05568854E-08  2.17668276E-03 -1.39322180E-03  4.96101620E-04
 -8.63134424E-06  2.47138574E-04 -9.03759303E-04 -1.87978002E-04 -3.81232466E-04
 -5.38058848E-06  3.22783421E-03  1.89683722E-03  1.30894219E-03  3.87164065E-05
  5.28833957E-04 -1.95057350E-04  2.90310821E-04  1.68515859E-05 -3.04932666E-04
 -8.15440275E-04 -5.15768020E-06  8.44416505E-04 -3.23562744E-04 -7.11733196E-04
 -1.87570125E-02  3.30446378E-02 -1.94134150E-03 -2.59507768E-02  1.01356372E-05
  1.28041285E-02 -1.15331231E-02  2.96683099E-04 -1.70178975E-04 -1.64337589E-01
 -9.83019205E-04  4.01648647E-02 -1.20446661E-04 -1.18419723E-01  2.43745455E-01
 -1.48197449E-03 -9.72868634E-02 -1.23626725E-04  3.29700139E-02  1.45598686E-03
  4.34848733E-02  9.51505900E-05  1.83868270E-01  2.95045755E-03  6.53373433E-02
  8.78526812E-05  4.79296429E-03 -2.19388864E-03  5.77023516E-03  7.11296764E-03
  4.78044952E-03 -1.95568059E-03 -1.55146161E-01  3.32767833E-01  4.42148119E-02
  8.56111952E-02  7.54585707E-04  3.72266669E-01  2.11193229E-02  6.07627154E-02
  5.24290761E-04 -3.74343228E-02  8.19764351E-03 -2.71943536E-02 -1.02884270E-04
 -1.08489981E-01  2.37265979E-01 -9.70391763E-02  6.11100070E-02 -2.48563278E-04
  2.28382058E-01 -3.95824419E-02  2.24801276E-02 -1.10457979E-04 -2.08584805E-02
  1.43570427E-03 -1.28621899E-02 -3.62437391E-05 -4.17293062E-02  8.14665965E-02
  5.33311850E-02 -2.69439719E-02 -2.67944963E-04  2.35509043E-02 -1.17028332E-02
  3.04507288E-04 -1.06577360E-05  6.38104311E-03  7.71285546E-03 -3.46581772E-03
 -7.36305690E-05  1.36216479E-02  6.26453247E-03  1.14074997E-02  1.83439769E-03
  1.36548561E-02  6.27589756E-03 -5.18705403E-03  1.23728562E-02  1.28030643E-02
 -9.05566379E-03  3.83589025E-05 -2.01014586E-02  2.59370741E-02  1.33117671E-02
 -1.16047499E-05  4.95272409E-02 -1.12680918E-02 -1.01656214E-02  2.03265388E-06
 -5.14256928E-02  1.10108157E-01  2.18488116E-01 -7.35150578E-02  5.68281388E-04
  1.36045638E-02 -8.01657000E-02  4.68337405E-02 -1.90423604E-04 -6.48069016E-02
  2.63592147E-02 -2.59909750E-02 -8.00797385E-06  1.20819242E-03  7.29200508E-04
  4.41928181E-03 -7.00010687E-03  1.17440040E-03  9.24565246E-04  1.29233228E-01
 -2.79320362E-01  2.19460396E-02 -7.89746427E-02 -5.75421706E-04 -3.27241444E-01
  7.48073020E-03 -6.20422042E-02 -3.91101721E-04  1.21096598E-03 -1.05374239E-03
  1.11424232E-03  1.41110802E-05 -1.58834013E-01  3.48429894E-01 -1.11664019E-01
  9.24459971E-02 -2.63398539E-04  3.63259815E-01 -4.77695732E-02  3.92878835E-02
 -1.32754139E-04  2.73727319E-02 -1.42881393E-02  1.75268531E-02  3.31469404E-05
  5.03409360E-02 -9.33155813E-02 -5.65249352E-02  3.18671547E-02  3.24811324E-04
 -4.51378036E-02 -4.71784102E-04 -1.25776279E-02 -1.58286468E-04  8.29466536E-03
 -6.99658032E-05  1.05582176E-03  2.06721786E-07 -1.62291164E-02  4.39155504E-03
 -1.72251418E-02 -5.79601780E-03 -1.62490620E-02  4.45204126E-03 -1.78900773E-01
  3.35211249E-01 -1.10542253E-02 -4.33465905E-02 -1.10766662E-04  3.49491472E-01
 -9.22249278E-03 -7.11490503E-03 -8.73199306E-05  1.23938177E-01  1.83859452E-03
 -3.11806395E-02  3.15219836E-05 -7.18851014E-02  1.51048446E-01 -5.91016488E-02
  1.78186141E-01 -3.24382811E-04  1.04701563E-01 -1.13061125E-02  2.74101483E-02
 -5.24260027E-05 -8.33025895E-02 -2.38044096E-02 -2.80956243E-02 -9.92517523E-05
  1.10441655E-01  4.35459127E-03  1.03950939E-01  4.71404292E-03  1.10389136E-01
  4.35462976E-03  2.63792012E-02 -6.02246795E-02  8.68782053E-02  2.59736223E-02
 -2.04017879E-04 -7.56625990E-02  4.22251763E-02  4.78916324E-03 -1.20269527E-04
  5.16830558E-04 -1.71221026E-02  1.87593769E-03  1.93374815E-05  4.92313605E-02
 -1.14103979E-01  2.10753582E-02  1.69641754E-02  4.26675453E-06 -1.16670438E-01
  3.46306122E-03  6.47005595E-03 -1.16869725E-05  2.94968264E-03  6.68418432E-03
 -3.54401874E-03  5.12736732E-05  4.68336016E-02 -9.38230334E-02 -7.64833074E-03
  3.11371860E-02  1.27037695E-04 -8.32243294E-02  9.41065562E-03  6.50158104E-03
  2.92053194E-05 -3.42208994E-02 -1.08452912E-02  5.44975043E-03  8.02443537E-05
 -2.18776573E-02 -1.48204470E-03 -3.49037533E-02 -3.02257031E-03 -2.15406611E-02
 -1.42839683E-03 -5.40198207E-02  9.91789541E-02  5.09437586E-03  1.06732982E-02
  9.41570514E-05  1.19942188E-01  1.33528256E-03 -5.80046138E-03  2.54361963E-05
  4.39101355E-02 -5.03879180E-03 -1.24483871E-02 -2.35487370E-05  3.36351386E-02
 -7.75887011E-02  1.42640373E-01  9.91759120E-02  7.18363522E-04 -6.63308687E-02
 -9.74316217E-03  4.63079073E-03  5.12773682E-05 -8.98524104E-02  1.92297776E-02
 -3.51928727E-03  8.82984734E-05  3.89884854E-02  6.19184277E-03  3.85620368E-02
  6.87131239E-03  3.91699041E-02  6.13818414E-03  4.41977810E-02 -1.00754882E-01
 -2.41312876E-01  2.04755110E-02  2.42348844E-04 -1.44410058E-01 -1.04588734E-01
 -8.06058234E-04  2.60585625E-05 -3.97680822E-02  3.60340335E-02 -9.37152107E-03
 -9.28993900E-05 -2.76296738E-02  6.16825894E-02  2.56346283E-02  3.08518530E-02
  1.58414345E-04  8.25909358E-02  5.43556459E-03  1.97384837E-02  5.35659030E-05
  1.47117119E-02  6.30013266E-05  4.91711353E-03  7.59772829E-06 -1.70585957E-01
  3.32387810E-01 -1.67130707E-02 -1.39951768E-03 -7.23369253E-05  3.57571882E-01
  3.16412651E-04  8.55859389E-03  5.10457813E-05  7.28623979E-02  2.21409907E-02