 Entering Gaussian System, Link 0=/opt/cluster/programs/g09_d.01/g09//g09
 Input=/home/unibas/boittier/RDKit_G2/B.pdb/SCAN_1_2_3_4_S_17_20.0/13_SCAN_1_2_3_4_F/13_SCAN_B.pdb.com
 Output=/scratch/boittier/13_SCAN_B.pdb/13_SCAN_B.pdb.out
 Initial command:
 /opt/cluster/programs/g09_d.01/g09/l1.exe "/scratch/boittier/13_SCAN_B.pdb/Gau-187344.inp" -scrdir="/scratch/boittier/13_SCAN_B.pdb/"
 Entering Link 1 = /opt/cluster/programs/g09_d.01/g09/l1.exe PID=    187346.
  
 Copyright (c) 1988,1990,1992,1993,1995,1998,2003,2009,2013,
            Gaussian, Inc.  All Rights Reserved.
  
 This is part of the Gaussian(R) 09 program.  It is based on
 the Gaussian(R) 03 system (copyright 2003, Gaussian, Inc.),
 the Gaussian(R) 98 system (copyright 1998, Gaussian, Inc.),
 the Gaussian(R) 94 system (copyright 1995, Gaussian, Inc.),
 the Gaussian 92(TM) system (copyright 1992, Gaussian, Inc.),
 the Gaussian 90(TM) system (copyright 1990, Gaussian, Inc.),
 the Gaussian 88(TM) system (copyright 1988, Gaussian, Inc.),
 the Gaussian 86(TM) system (copyright 1986, Carnegie Mellon
 University), and the Gaussian 82(TM) system (copyright 1983,
 Carnegie Mellon University). Gaussian is a federally registered
 trademark of Gaussian, Inc.
  
 This software contains proprietary and confidential information,
 including trade secrets, belonging to Gaussian, Inc.
  
 This software is provided under written license and may be
 used, copied, transmitted, or stored only in accord with that
 written license.
  
 The following legend is applicable only to US Government
 contracts under FAR:
  
                    RESTRICTED RIGHTS LEGEND
  
 Use, reproduction and disclosure by the US Government is
 subject to restrictions as set forth in subparagraphs (a)
 and (c) of the Commercial Computer Software - Restricted
 Rights clause in FAR 52.227-19.
  
 Gaussian, Inc.
 340 Quinnipiac St., Bldg. 40, Wallingford CT 06492
  
  
 ---------------------------------------------------------------
 Warning -- This program may not be used in any manner that
 competes with the business of Gaussian, Inc. or will provide
 assistance to any competitor of Gaussian, Inc.  The licensee
 of this program is prohibited from giving any competitor of
 Gaussian, Inc. access to this program.  By using this program,
 the user acknowledges that Gaussian, Inc. is engaged in the
 business of creating and licensing software in the field of
 computational chemistry and represents and warrants to the
 licensee that it is not a competitor of Gaussian, Inc. and that
 it will not use this program in any manner prohibited above.
 ---------------------------------------------------------------
  

 Cite this work as:
 Gaussian 09, Revision D.01,
 M. J. Frisch, G. W. Trucks, H. B. Schlegel, G. E. Scuseria, 
 M. A. Robb, J. R. Cheeseman, G. Scalmani, V. Barone, B. Mennucci, 
 G. A. Petersson, H. Nakatsuji, M. Caricato, X. Li, H. P. Hratchian, 
 A. F. Izmaylov, J. Bloino, G. Zheng, J. L. Sonnenberg, M. Hada, 
 M. Ehara, K. Toyota, R. Fukuda, J. Hasegawa, M. Ishida, T. Nakajima, 
 Y. Honda, O. Kitao, H. Nakai, T. Vreven, J. A. Montgomery, Jr., 
 J. E. Peralta, F. Ogliaro, M. Bearpark, J. J. Heyd, E. Brothers, 
 K. N. Kudin, V. N. Staroverov, T. Keith, R. Kobayashi, J. Normand, 
 K. Raghavachari, A. Rendell, J. C. Burant, S. S. Iyengar, J. Tomasi, 
 M. Cossi, N. Rega, J. M. Millam, M. Klene, J. E. Knox, J. B. Cross, 
 V. Bakken, C. Adamo, J. Jaramillo, R. Gomperts, R. E. Stratmann, 
 O. Yazyev, A. J. Austin, R. Cammi, C. Pomelli, J. W. Ochterski, 
 R. L. Martin, K. Morokuma, V. G. Zakrzewski, G. A. Voth, 
 P. Salvador, J. J. Dannenberg, S. Dapprich, A. D. Daniels, 
 O. Farkas, J. B. Foresman, J. V. Ortiz, J. Cioslowski, 
 and D. J. Fox, Gaussian, Inc., Wallingford CT, 2013.
 
 ******************************************
 Gaussian 09:  ES64L-G09RevD.01 24-Apr-2013
                12-May-2021 
 ******************************************
 %chk=/home/unibas/boittier/RDKit_G2/B.pdb/SCAN_1_2_3_4_S_17_20.0/13_SCAN_1_2_3_4
 _F/B.pdb.chk
 %nproc=8
 Will use up to    8 processors via shared memory.
 %mem=16GB
 -----------------------------
 #p wB97XD/6-31+G Opt=ModRedun
 -----------------------------
 1/14=-1,18=120,19=15,26=3,38=1/1,3;
 2/9=110,12=2,17=6,18=5,40=1/2;
 3/5=1,6=6,7=10,11=2,16=1,25=1,30=1,71=1,74=-58/1,2,3;
 4//1;
 5/5=2,38=5/2;
 6/7=2,8=2,9=2,10=2,28=1/1;
 7//1,2,3,16;
 1/14=-1,18=20,19=15,26=3/3(2);
 2/9=110/2;
 99//99;
 2/9=110/2;
 3/5=1,6=6,7=10,11=2,16=1,25=1,30=1,71=1,74=-58/1,2,3;
 4/5=5,16=3,69=1/1;
 5/5=2,38=5/2;
 7//1,2,3,16;
 1/14=-1,18=20,19=15,26=3/3(-5);
 2/9=110/2;
 6/7=2,8=2,9=2,10=2,19=2,28=1/1;
 99/9=1/99;
 Leave Link    1 at Wed May 12 11:56:05 2021, MaxMem=  2147483648 cpu:         0.2
 (Enter /opt/cluster/programs/g09_d.01/g09/l101.exe)
 -----
 B.pdb
 -----
 Symbolic Z-matrix:
 Charge =  0 Multiplicity = 1
 C                    -1.22068  -1.17172   0.01081 
 C                    -0.4757   -0.07023   0.06971 
 C                     0.92621   0.12504   0.47801 
 C                     1.97689  -0.12966  -0.31598 
 H                    -2.26824  -1.12951  -0.26297 
 H                    -0.78152  -2.13822   0.22618 
 F                    -1.12349   1.18335  -0.17524 
 H                     1.07424   0.57938   1.4573 
 H                     1.85273  -0.53903  -1.31473 
 H                     2.99377   0.05659   0.01612 
 
 The following ModRedundant input section has been read:
 D       1       2       3       4 F                                           
 
 NAtoms=     10 NQM=       10 NQMF=       0 NMMI=      0 NMMIF=      0
                NMic=       0 NMicF=      0.
                    Isotopes and Nuclear Properties:
 (Nuclear quadrupole moments (NQMom) in fm**2, nuclear magnetic moments (NMagM)
  in nuclear magnetons)

  Atom         1           2           3           4           5           6           7           8           9          10
 IAtWgt=          12          12          12          12           1           1          19           1           1           1
 AtmWgt=  12.0000000  12.0000000  12.0000000  12.0000000   1.0078250   1.0078250  18.9984033   1.0078250   1.0078250   1.0078250
 NucSpn=           0           0           0           0           1           1           1           1           1           1
 AtZEff=   0.0000000   0.0000000   0.0000000   0.0000000   0.0000000   0.0000000   0.0000000   0.0000000   0.0000000   0.0000000
 NQMom=    0.0000000   0.0000000   0.0000000   0.0000000   0.0000000   0.0000000   0.0000000   0.0000000   0.0000000   0.0000000
 NMagM=    0.0000000   0.0000000   0.0000000   0.0000000   2.7928460   2.7928460   2.6288670   2.7928460   2.7928460   2.7928460
 AtZNuc=   6.0000000   6.0000000   6.0000000   6.0000000   1.0000000   1.0000000   9.0000000   1.0000000   1.0000000   1.0000000
 Leave Link  101 at Wed May 12 11:56:05 2021, MaxMem=  2147483648 cpu:         4.3
 (Enter /opt/cluster/programs/g09_d.01/g09/l103.exe)

 GradGradGradGradGradGradGradGradGradGradGradGradGradGradGradGradGradGrad
 Berny optimization.
 Initialization pass.
                           ----------------------------
                           !    Initial Parameters    !
                           ! (Angstroms and Degrees)  !
 --------------------------                            --------------------------
 ! Name  Definition              Value          Derivative Info.                !
 --------------------------------------------------------------------------------
 ! R1    R(1,2)                  1.3311         estimate D2E/DX2                !
 ! R2    R(1,5)                  1.0836         estimate D2E/DX2                !
 ! R3    R(1,6)                  1.0832         estimate D2E/DX2                !
 ! R4    R(2,3)                  1.4732         estimate D2E/DX2                !
 ! R5    R(2,7)                  1.4322         estimate D2E/DX2                !
 ! R6    R(3,4)                  1.3413         estimate D2E/DX2                !
 ! R7    R(3,8)                  1.0897         estimate D2E/DX2                !
 ! R8    R(4,9)                  1.0865         estimate D2E/DX2                !
 ! R9    R(4,10)                 1.0858         estimate D2E/DX2                !
 ! A1    A(2,1,5)              121.3343         estimate D2E/DX2                !
 ! A2    A(2,1,6)              120.1755         estimate D2E/DX2                !
 ! A3    A(5,1,6)              118.4857         estimate D2E/DX2                !
 ! A4    A(1,2,3)              130.8868         estimate D2E/DX2                !
 ! A5    A(1,2,7)              117.6205         estimate D2E/DX2                !
 ! A6    A(3,2,7)              111.2122         estimate D2E/DX2                !
 ! A7    A(2,3,4)              123.7926         estimate D2E/DX2                !
 ! A8    A(2,3,8)              115.6987         estimate D2E/DX2                !
 ! A9    A(4,3,8)              120.3141         estimate D2E/DX2                !
 ! A10   A(3,4,9)              121.7454         estimate D2E/DX2                !
 ! A11   A(3,4,10)             121.3291         estimate D2E/DX2                !
 ! A12   A(9,4,10)             116.9232         estimate D2E/DX2                !
 ! D1    D(5,1,2,3)            176.4276         estimate D2E/DX2                !
 ! D2    D(5,1,2,7)              3.1155         estimate D2E/DX2                !
 ! D3    D(6,1,2,3)             -4.355          estimate D2E/DX2                !
 ! D4    D(6,1,2,7)           -177.667          estimate D2E/DX2                !
 ! D5    D(1,2,3,4)             80.011          Frozen                          !
 ! D6    D(1,2,3,8)           -105.0592         estimate D2E/DX2                !
 ! D7    D(7,2,3,4)           -106.3441         estimate D2E/DX2                !
 ! D8    D(7,2,3,8)             68.5857         estimate D2E/DX2                !
 ! D9    D(2,3,4,9)             -2.3959         estimate D2E/DX2                !
 ! D10   D(2,3,4,10)           178.1721         estimate D2E/DX2                !
 ! D11   D(8,3,4,9)           -177.103          estimate D2E/DX2                !
 ! D12   D(8,3,4,10)             3.4649         estimate D2E/DX2                !
 --------------------------------------------------------------------------------
 Trust Radius=3.00D-01 FncErr=1.00D-07 GrdErr=1.00D-06
 Number of steps in this run=     43 maximum allowed number of steps=    100.
 GradGradGradGradGradGradGradGradGradGradGradGradGradGradGradGradGradGrad

 Leave Link  103 at Wed May 12 11:56:05 2021, MaxMem=  2147483648 cpu:         0.1
 (Enter /opt/cluster/programs/g09_d.01/g09/l202.exe)
                          Input orientation:                          
 ---------------------------------------------------------------------
 Center     Atomic      Atomic             Coordinates (Angstroms)
 Number     Number       Type             X           Y           Z
 ---------------------------------------------------------------------
      1          6           0       -1.220677   -1.171717    0.010811
      2          6           0       -0.475698   -0.070226    0.069706
      3          6           0        0.926213    0.125039    0.478011
      4          6           0        1.976894   -0.129657   -0.315977
      5          1           0       -2.268235   -1.129509   -0.262973
      6          1           0       -0.781515   -2.138219    0.226176
      7          9           0       -1.123486    1.183351   -0.175244
      8          1           0        1.074243    0.579376    1.457301
      9          1           0        1.852725   -0.539026   -1.314728
     10          1           0        2.993769    0.056585    0.016121
 ---------------------------------------------------------------------
                    Distance matrix (angstroms):
                    1          2          3          4          5
     1  C    0.000000
     2  C    1.331069   0.000000
     3  C    2.551272   1.473158   0.000000
     4  C    3.378926   2.483443   1.341349   0.000000
     5  H    1.083567   2.108541   3.511046   4.361609   0.000000
     6  H    1.083223   2.096331   2.846417   3.455007   1.862015
     7  F    2.364404   1.432161   2.397505   3.369889   2.582144
     8  H    3.228826   2.179385   1.089653   2.112350   4.129381
     9  H    3.406340   2.749179   2.124458   1.086510   4.293853
    10  H    4.389796   3.472197   2.119626   1.085822   5.401240
                    6          7          8          9         10
     6  H    0.000000
     7  F    3.363170   0.000000
     8  H    3.513521   2.803569   0.000000
     9  H    3.445435   3.622546   3.088851   0.000000
    10  H    4.371963   4.272939   2.456601   1.851457   0.000000
 Stoichiometry    C4H5F
 Framework group  C1[X(C4H5F)]
 Deg. of freedom    24
 Full point group                 C1      NOp   1
 Largest Abelian subgroup         C1      NOp   1
 Largest concise Abelian subgroup C1      NOp   1
                         Standard orientation:                         
 ---------------------------------------------------------------------
 Center     Atomic      Atomic             Coordinates (Angstroms)
 Number     Number       Type             X           Y           Z
 ---------------------------------------------------------------------
      1          6           0        1.220677    1.171717    0.010811
      2          6           0        0.475698    0.070226    0.069706
      3          6           0       -0.926213   -0.125039    0.478011
      4          6           0       -1.976894    0.129657   -0.315977
      5          1           0        2.268235    1.129509   -0.262973
      6          1           0        0.781515    2.138219    0.226176
      7          9           0        1.123486   -1.183351   -0.175244
      8          1           0       -1.074243   -0.579376    1.457301
      9          1           0       -1.852725    0.539026   -1.314728
     10          1           0       -2.993769   -0.056585    0.016121
 ---------------------------------------------------------------------
 Rotational constants (GHZ):      8.7110366      3.8906117      2.9578582
 Leave Link  202 at Wed May 12 11:56:05 2021, MaxMem=  2147483648 cpu:         0.0
 (Enter /opt/cluster/programs/g09_d.01/g09/l301.exe)
 Standard basis: 6-31+G (6D, 7F)
 Ernie: Thresh=  0.10000D-02 Tol=  0.10000D-05 Strict=F.
 There are    75 symmetry adapted cartesian basis functions of A   symmetry.
 There are    75 symmetry adapted basis functions of A   symmetry.
    75 basis functions,   150 primitive gaussians,    75 cartesian basis functions
    19 alpha electrons       19 beta electrons
       nuclear repulsion energy       155.7482168382 Hartrees.
 IExCor= 4639 DFT=T Ex+Corr=wB97XD ExCW=0 ScaHFX=  1.000000
 ScaDFX=  1.000000  1.000000  1.000000  1.000000 ScalE2=  1.000000  1.000000
 IRadAn=      0 IRanWt=     -1 IRanGd=            0 ICorTp=0 IEmpDi=121
  HFx wShort=  0.000000 wLong=  0.200000 cFull=  0.222036 cShort=  0.000000 cLong=  0.777964
  DFx wShort=  0.000000 wLong=  0.200000 cFull=  0.000000 cShort=  0.000000 cLong=  1.000000
 NAtoms=   10 NActive=   10 NUniq=   10 SFac= 1.00D+00 NAtFMM=   60 NAOKFM=F Big=F
 Integral buffers will be    131072 words long.
 Raffenetti 2 integral format.
 Two-electron integral symmetry is turned on.
 R6Disp:  Grimme-D2 Dispersion energy=       -0.0029990930 Hartrees.
 Nuclear repulsion after empirical dispersion term =      155.7452177453 Hartrees.
 Leave Link  301 at Wed May 12 11:56:05 2021, MaxMem=  2147483648 cpu:         0.3
 (Enter /opt/cluster/programs/g09_d.01/g09/l302.exe)
 NPDir=0 NMtPBC=     1 NCelOv=     1 NCel=       1 NClECP=     1 NCelD=      1
         NCelK=      1 NCelE2=     1 NClLst=     1 CellRange=     0.0.
 One-electron integrals computed using PRISM.
 NBasis=    75 RedAO= T EigKep=  6.53D-05  NBF=    75
 NBsUse=    75 1.00D-06 EigRej= -1.00D+00 NBFU=    75
 Precomputing XC quadrature grid using
 IXCGrd= 4 IRadAn=           0 IRanWt=          -1 IRanGd=           0 AccXCQ= 0.00D+00.
 Generated NRdTot=       0 NPtTot=           0 NUsed=           0 NTot=          32
 NSgBfM=    75    75    75    75    75 MxSgAt=    10 MxSgA2=    10.
 Leave Link  302 at Wed May 12 11:56:06 2021, MaxMem=  2147483648 cpu:         0.8
 (Enter /opt/cluster/programs/g09_d.01/g09/l303.exe)
 DipDrv:  MaxL=1.
 Leave Link  303 at Wed May 12 11:56:06 2021, MaxMem=  2147483648 cpu:         0.2
 (Enter /opt/cluster/programs/g09_d.01/g09/l401.exe)
 ExpMin= 4.38D-02 ExpMax= 7.00D+03 ExpMxC= 1.05D+03 IAcc=2 IRadAn=         4 AccDes= 0.00D+00
 Harris functional with IExCor= 4639 and IRadAn=       4 diagonalized for initial guess.
 HarFok:  IExCor= 4639 AccDes= 0.00D+00 IRadAn=         4 IDoV= 1 UseB2=F ITyADJ=14
 ICtDFT=  3500011 ScaDFX=  1.000000  1.000000  1.000000  1.000000
 FoFCou: FMM=F IPFlag=           0 FMFlag=      100000 FMFlg1=           0
         NFxFlg=           0 DoJE=T BraDBF=F KetDBF=T FulRan=T
         wScrn=  0.000000 ICntrl=     500 IOpCl=  0 I1Cent=   200000004 NGrid=           0
         NMat0=    1 NMatS0=      1 NMatT0=    0 NMatD0=    1 NMtDS0=    0 NMtDT0=    0
 Petite list used in FoFCou.
 Harris En= -244.784605663618    
 JPrj=0 DoOrth=F DoCkMO=F.
 Leave Link  401 at Wed May 12 11:56:06 2021, MaxMem=  2147483648 cpu:         1.3
 (Enter /opt/cluster/programs/g09_d.01/g09/l502.exe)
 Closed shell SCF:
 Using DIIS extrapolation, IDIIS=  1040.
 Integral symmetry usage will be decided dynamically.
 Keep R1 ints in memory in canonical form, NReq=9056162.
 IVT=       36600 IEndB=       36600 NGot=  2147483648 MDV=  2139321699
 LenX=  2139321699 LenY=  2139315633
 Requested convergence on RMS density matrix=1.00D-08 within 128 cycles.
 Requested convergence on MAX density matrix=1.00D-06.
 Requested convergence on             energy=1.00D-06.
 No special actions if energy rises.
 FoFCou: FMM=F IPFlag=           0 FMFlag=           0 FMFlg1=           0
         NFxFlg=           0 DoJE=F BraDBF=F KetDBF=F FulRan=T
         wScrn=  0.000000 ICntrl=     600 IOpCl=  0 I1Cent=           0 NGrid=           0
         NMat0=    1 NMatS0=   2850 NMatT0=    0 NMatD0=    1 NMtDS0=    0 NMtDT0=    0
 Symmetry not used in FoFCou.

 Cycle   1  Pass 1  IDiag  1:
 E= -254.918010377031    
 DIIS: error= 5.29D-02 at cycle   1 NSaved=   1.
 NSaved= 1 IEnMin= 1 EnMin= -254.918010377031     IErMin= 1 ErrMin= 5.29D-02
 ErrMax= 5.29D-02  0.00D+00 EMaxC= 1.00D-01 BMatC= 2.71D-01 BMatP= 2.71D-01
 IDIUse=3 WtCom= 4.71D-01 WtEn= 5.29D-01
 Coeff-Com:  0.100D+01
 Coeff-En:   0.100D+01
 Coeff:      0.100D+01
 Gap=     0.483 Goal=   None    Shift=    0.000
 GapD=    0.483 DampG=2.000 DampE=0.500 DampFc=1.0000 IDamp=-1.
 RMSDP=1.75D-02 MaxDP=3.94D-01              OVMax= 1.96D-01

 Cycle   2  Pass 1  IDiag  1:
 E= -254.858417502274     Delta-E=        0.059592874758 Rises=F Damp=F
 DIIS: error= 5.40D-02 at cycle   2 NSaved=   2.
 NSaved= 2 IEnMin= 1 EnMin= -254.918010377031     IErMin= 1 ErrMin= 5.29D-02
 ErrMax= 5.40D-02  0.00D+00 EMaxC= 1.00D-01 BMatC= 3.36D-01 BMatP= 2.71D-01
 IDIUse=2 WtCom= 0.00D+00 WtEn= 1.00D+00
 Coeff-En:   0.569D+00 0.431D+00
 Coeff:      0.569D+00 0.431D+00
 Gap=     0.432 Goal=   None    Shift=    0.000
 RMSDP=6.25D-03 MaxDP=9.61D-02 DE= 5.96D-02 OVMax= 1.19D-01

 Cycle   3  Pass 1  IDiag  1:
 E= -255.092510997314     Delta-E=       -0.234093495041 Rises=F Damp=F
 DIIS: error= 3.81D-03 at cycle   3 NSaved=   3.
 NSaved= 3 IEnMin= 3 EnMin= -255.092510997314     IErMin= 3 ErrMin= 3.81D-03
 ErrMax= 3.81D-03  0.00D+00 EMaxC= 1.00D-01 BMatC= 1.60D-03 BMatP= 2.71D-01
 IDIUse=3 WtCom= 9.62D-01 WtEn= 3.81D-02
 Coeff-Com: -0.362D-02-0.710D-01 0.107D+01
 Coeff-En:   0.000D+00 0.000D+00 0.100D+01
 Coeff:     -0.348D-02-0.683D-01 0.107D+01
 Gap=     0.385 Goal=   None    Shift=    0.000
 RMSDP=2.23D-03 MaxDP=4.96D-02 DE=-2.34D-01 OVMax= 1.01D-02

 Cycle   4  Pass 1  IDiag  1:
 E= -255.093643254695     Delta-E=       -0.001132257381 Rises=F Damp=F
 DIIS: error= 1.65D-03 at cycle   4 NSaved=   4.
 NSaved= 4 IEnMin= 4 EnMin= -255.093643254695     IErMin= 4 ErrMin= 1.65D-03
 ErrMax= 1.65D-03  0.00D+00 EMaxC= 1.00D-01 BMatC= 2.08D-04 BMatP= 1.60D-03
 IDIUse=3 WtCom= 9.83D-01 WtEn= 1.65D-02
 Coeff-Com: -0.788D-02-0.406D-01 0.516D+00 0.532D+00
 Coeff-En:   0.000D+00 0.000D+00 0.000D+00 0.100D+01
 Coeff:     -0.775D-02-0.399D-01 0.508D+00 0.540D+00
 Gap=     0.387 Goal=   None    Shift=    0.000
 RMSDP=3.96D-04 MaxDP=8.47D-03 DE=-1.13D-03 OVMax= 4.79D-03

 Cycle   5  Pass 1  IDiag  1:
 E= -255.093848872717     Delta-E=       -0.000205618022 Rises=F Damp=F
 DIIS: error= 3.66D-04 at cycle   5 NSaved=   5.
 NSaved= 5 IEnMin= 5 EnMin= -255.093848872717     IErMin= 5 ErrMin= 3.66D-04
 ErrMax= 3.66D-04  0.00D+00 EMaxC= 1.00D-01 BMatC= 1.04D-05 BMatP= 2.08D-04
 IDIUse=3 WtCom= 9.96D-01 WtEn= 3.66D-03
 Coeff-Com: -0.195D-02-0.339D-02-0.187D-01 0.933D-01 0.931D+00
 Coeff-En:   0.000D+00 0.000D+00 0.000D+00 0.000D+00 0.100D+01
 Coeff:     -0.194D-02-0.338D-02-0.186D-01 0.930D-01 0.931D+00
 Gap=     0.387 Goal=   None    Shift=    0.000
 RMSDP=2.68D-04 MaxDP=5.53D-03 DE=-2.06D-04 OVMax= 2.31D-03

 Cycle   6  Pass 1  IDiag  1:
 E= -255.093864792570     Delta-E=       -0.000015919853 Rises=F Damp=F
 DIIS: error= 1.66D-04 at cycle   6 NSaved=   6.
 NSaved= 6 IEnMin= 6 EnMin= -255.093864792570     IErMin= 6 ErrMin= 1.66D-04
 ErrMax= 1.66D-04  0.00D+00 EMaxC= 1.00D-01 BMatC= 2.42D-06 BMatP= 1.04D-05
 IDIUse=3 WtCom= 9.98D-01 WtEn= 1.66D-03
 Coeff-Com:  0.418D-03 0.440D-02-0.865D-01-0.577D-01 0.398D+00 0.742D+00
 Coeff-En:   0.000D+00 0.000D+00 0.000D+00 0.000D+00 0.000D+00 0.100D+01
 Coeff:      0.417D-03 0.439D-02-0.863D-01-0.576D-01 0.397D+00 0.742D+00
 Gap=     0.387 Goal=   None    Shift=    0.000
 RMSDP=9.04D-05 MaxDP=1.86D-03 DE=-1.59D-05 OVMax= 5.23D-04

 Cycle   7  Pass 1  IDiag  1:
 E= -255.093868130717     Delta-E=       -0.000003338147 Rises=F Damp=F
 DIIS: error= 1.73D-05 at cycle   7 NSaved=   7.
 NSaved= 7 IEnMin= 7 EnMin= -255.093868130717     IErMin= 7 ErrMin= 1.73D-05
 ErrMax= 1.73D-05  0.00D+00 EMaxC= 1.00D-01 BMatC= 2.91D-08 BMatP= 2.42D-06
 IDIUse=1 WtCom= 1.00D+00 WtEn= 0.00D+00
 Coeff-Com:  0.785D-04-0.337D-03 0.675D-02-0.356D-02-0.511D-01-0.604D-01
 Coeff-Com:  0.111D+01
 Coeff:      0.785D-04-0.337D-03 0.675D-02-0.356D-02-0.511D-01-0.604D-01
 Coeff:      0.111D+01
 Gap=     0.387 Goal=   None    Shift=    0.000
 RMSDP=1.87D-05 MaxDP=2.68D-04 DE=-3.34D-06 OVMax= 1.86D-04

 Cycle   8  Pass 1  IDiag  1:
 E= -255.093868210410     Delta-E=       -0.000000079693 Rises=F Damp=F
 DIIS: error= 6.37D-06 at cycle   8 NSaved=   8.
 NSaved= 8 IEnMin= 8 EnMin= -255.093868210410     IErMin= 8 ErrMin= 6.37D-06
 ErrMax= 6.37D-06  0.00D+00 EMaxC= 1.00D-01 BMatC= 4.07D-09 BMatP= 2.91D-08
 IDIUse=1 WtCom= 1.00D+00 WtEn= 0.00D+00
 Coeff-Com:  0.114D-04-0.251D-03 0.514D-02 0.779D-03-0.292D-01-0.516D-01
 Coeff-Com:  0.303D+00 0.772D+00
 Coeff:      0.114D-04-0.251D-03 0.514D-02 0.779D-03-0.292D-01-0.516D-01
 Coeff:      0.303D+00 0.772D+00
 Gap=     0.387 Goal=   None    Shift=    0.000
 RMSDP=4.06D-06 MaxDP=7.39D-05 DE=-7.97D-08 OVMax= 3.33D-05

 Cycle   9  Pass 1  IDiag  1:
 E= -255.093868215837     Delta-E=       -0.000000005427 Rises=F Damp=F
 DIIS: error= 1.87D-06 at cycle   9 NSaved=   9.
 NSaved= 9 IEnMin= 9 EnMin= -255.093868215837     IErMin= 9 ErrMin= 1.87D-06
 ErrMax= 1.87D-06  0.00D+00 EMaxC= 1.00D-01 BMatC= 4.31D-10 BMatP= 4.07D-09
 IDIUse=1 WtCom= 1.00D+00 WtEn= 0.00D+00
 Coeff-Com: -0.432D-05-0.212D-05 0.201D-03 0.420D-03 0.148D-02-0.546D-02
 Coeff-Com: -0.751D-01 0.193D+00 0.886D+00
 Coeff:     -0.432D-05-0.212D-05 0.201D-03 0.420D-03 0.148D-02-0.546D-02
 Coeff:     -0.751D-01 0.193D+00 0.886D+00
 Gap=     0.387 Goal=   None    Shift=    0.000
 RMSDP=2.17D-06 MaxDP=4.57D-05 DE=-5.43D-09 OVMax= 2.10D-05

 Cycle  10  Pass 1  IDiag  1:
 E= -255.093868216623     Delta-E=       -0.000000000786 Rises=F Damp=F
 DIIS: error= 9.36D-07 at cycle  10 NSaved=  10.
 NSaved=10 IEnMin=10 EnMin= -255.093868216623     IErMin=10 ErrMin= 9.36D-07
 ErrMax= 9.36D-07  0.00D+00 EMaxC= 1.00D-01 BMatC= 6.74D-11 BMatP= 4.31D-10
 IDIUse=1 WtCom= 1.00D+00 WtEn= 0.00D+00
 Coeff-Com: -0.588D-06 0.195D-04-0.280D-03 0.674D-04 0.242D-02 0.566D-03
 Coeff-Com: -0.502D-01 0.208D-01 0.369D+00 0.657D+00
 Coeff:     -0.588D-06 0.195D-04-0.280D-03 0.674D-04 0.242D-02 0.566D-03
 Coeff:     -0.502D-01 0.208D-01 0.369D+00 0.657D+00
 Gap=     0.387 Goal=   None    Shift=    0.000
 RMSDP=2.83D-07 MaxDP=3.91D-06 DE=-7.86D-10 OVMax= 3.04D-06

 Cycle  11  Pass 1  IDiag  1:
 E= -255.093868216707     Delta-E=       -0.000000000084 Rises=F Damp=F
 DIIS: error= 8.94D-08 at cycle  11 NSaved=  11.
 NSaved=11 IEnMin=11 EnMin= -255.093868216707     IErMin=11 ErrMin= 8.94D-08
 ErrMax= 8.94D-08  0.00D+00 EMaxC= 1.00D-01 BMatC= 1.26D-12 BMatP= 6.74D-11
 IDIUse=1 WtCom= 1.00D+00 WtEn= 0.00D+00
 Coeff-Com:  0.483D-06-0.459D-06-0.324D-04-0.366D-04-0.377D-04 0.607D-03
 Coeff-Com:  0.890D-02-0.214D-01-0.969D-01-0.632D-01 0.117D+01
 Coeff:      0.483D-06-0.459D-06-0.324D-04-0.366D-04-0.377D-04 0.607D-03
 Coeff:      0.890D-02-0.214D-01-0.969D-01-0.632D-01 0.117D+01
 Gap=     0.387 Goal=   None    Shift=    0.000
 RMSDP=1.10D-07 MaxDP=1.21D-06 DE=-8.39D-11 OVMax= 1.53D-06

 Cycle  12  Pass 1  IDiag  1:
 E= -255.093868216712     Delta-E=       -0.000000000005 Rises=F Damp=F
 DIIS: error= 1.48D-08 at cycle  12 NSaved=  12.
 NSaved=12 IEnMin=12 EnMin= -255.093868216712     IErMin=12 ErrMin= 1.48D-08
 ErrMax= 1.48D-08  0.00D+00 EMaxC= 1.00D-01 BMatC= 2.70D-14 BMatP= 1.26D-12
 IDIUse=1 WtCom= 1.00D+00 WtEn= 0.00D+00
 Coeff-Com: -0.300D-07 0.363D-07 0.839D-05 0.919D-05-0.268D-04-0.128D-03
 Coeff-Com: -0.112D-02 0.464D-02 0.157D-01-0.885D-03-0.293D+00 0.127D+01
 Coeff:     -0.300D-07 0.363D-07 0.839D-05 0.919D-05-0.268D-04-0.128D-03
 Coeff:     -0.112D-02 0.464D-02 0.157D-01-0.885D-03-0.293D+00 0.127D+01
 Gap=     0.387 Goal=   None    Shift=    0.000
 RMSDP=2.47D-08 MaxDP=3.68D-07 DE=-5.00D-12 OVMax= 2.77D-07

 Cycle  13  Pass 1  IDiag  1:
 E= -255.093868216711     Delta-E=        0.000000000001 Rises=F Damp=F
 DIIS: error= 3.10D-09 at cycle  13 NSaved=  13.
 NSaved=13 IEnMin=12 EnMin= -255.093868216712     IErMin=13 ErrMin= 3.10D-09
 ErrMax= 3.10D-09  0.00D+00 EMaxC= 1.00D-01 BMatC= 5.51D-16 BMatP= 2.70D-14
 IDIUse=1 WtCom= 1.00D+00 WtEn= 0.00D+00
 Coeff-Com:  0.634D-10 0.104D-07-0.131D-05-0.175D-05 0.672D-05 0.177D-04
 Coeff-Com:  0.958D-04-0.700D-03-0.188D-02 0.167D-02 0.465D-01-0.303D+00
 Coeff-Com:  0.126D+01
 Coeff:      0.634D-10 0.104D-07-0.131D-05-0.175D-05 0.672D-05 0.177D-04
 Coeff:      0.958D-04-0.700D-03-0.188D-02 0.167D-02 0.465D-01-0.303D+00
 Coeff:      0.126D+01
 Gap=     0.387 Goal=   None    Shift=    0.000
 RMSDP=2.85D-09 MaxDP=3.40D-08 DE= 7.96D-13 OVMax= 4.33D-08

 SCF Done:  E(RwB97XD) =  -255.093868217     A.U. after   13 cycles
            NFock= 13  Conv=0.29D-08     -V/T= 2.0059
 KE= 2.536026728690D+02 PE=-9.091420014178D+02 EE= 2.447002425868D+02
 Leave Link  502 at Wed May 12 11:56:08 2021, MaxMem=  2147483648 cpu:        13.1
 (Enter /opt/cluster/programs/g09_d.01/g09/l601.exe)
 Copying SCF densities to generalized density rwf, IOpCl= 0 IROHF=0.

 **********************************************************************

            Population analysis using the SCF density.

 **********************************************************************

 Orbital symmetries:
       Occupied  (A) (A) (A) (A) (A) (A) (A) (A) (A) (A) (A) (A)
                 (A) (A) (A) (A) (A) (A) (A)
       Virtual   (A) (A) (A) (A) (A) (A) (A) (A) (A) (A) (A) (A)
                 (A) (A) (A) (A) (A) (A) (A) (A) (A) (A) (A) (A)
                 (A) (A) (A) (A) (A) (A) (A) (A) (A) (A) (A) (A)
                 (A) (A) (A) (A) (A) (A) (A) (A) (A) (A) (A) (A)
                 (A) (A) (A) (A) (A) (A) (A) (A)
 The electronic state is 1-A.
 Alpha  occ. eigenvalues --  -24.82559 -10.40272 -10.33252 -10.32286 -10.31102
 Alpha  occ. eigenvalues --   -1.29962  -0.92819  -0.86124  -0.73924  -0.65285
 Alpha  occ. eigenvalues --   -0.60638  -0.57367  -0.56294  -0.52302  -0.50514
 Alpha  occ. eigenvalues --   -0.48330  -0.45197  -0.38158  -0.35097
 Alpha virt. eigenvalues --    0.03615   0.05983   0.07725   0.08399   0.09540
 Alpha virt. eigenvalues --    0.11237   0.11755   0.13231   0.13881   0.14494
 Alpha virt. eigenvalues --    0.16214   0.17534   0.18211   0.18611   0.19615
 Alpha virt. eigenvalues --    0.19748   0.22857   0.24464   0.26597   0.28213
 Alpha virt. eigenvalues --    0.28754   0.31490   0.31735   0.38593   0.41707
 Alpha virt. eigenvalues --    0.42449   0.45302   0.46204   0.48590   0.50261
 Alpha virt. eigenvalues --    0.52576   0.69820   0.72543   0.75835   0.77900
 Alpha virt. eigenvalues --    0.80590   0.82337   0.84805   0.90202   0.92338
 Alpha virt. eigenvalues --    0.94267   1.01134   1.04877   1.06901   1.12766
 Alpha virt. eigenvalues --    1.13143   1.16027   1.21809   1.23823   1.32167
 Alpha virt. eigenvalues --    1.39679   1.47730   1.67753   1.81974   1.86006
 Alpha virt. eigenvalues --    2.35648
          Condensed to atoms (all electrons):
               1          2          3          4          5          6
     1  C    5.956780   0.187053  -0.238495  -0.039768   0.392112   0.320027
     2  C    0.187053   5.305108   0.256212  -0.004468  -0.055686   0.001787
     3  C   -0.238495   0.256212   5.319883   0.558793   0.010335   0.009896
     4  C   -0.039768  -0.004468   0.558793   5.108294   0.002974   0.008223
     5  H    0.392112  -0.055686   0.010335   0.002974   0.454856  -0.019939
     6  H    0.320027   0.001787   0.009896   0.008223  -0.019939   0.463168
     7  F   -0.180736   0.295730  -0.110541  -0.031767  -0.002665   0.003919
     8  H    0.016723  -0.041778   0.320011   0.012971  -0.000070   0.000162
     9  H    0.007192   0.003902  -0.054647   0.387806  -0.000017   0.000030
    10  H    0.003150   0.008925  -0.037809   0.375127   0.000002  -0.000013
               7          8          9         10
     1  C   -0.180736   0.016723   0.007192   0.003150
     2  C    0.295730  -0.041778   0.003902   0.008925
     3  C   -0.110541   0.320011  -0.054647  -0.037809
     4  C   -0.031767   0.012971   0.387806   0.375127
     5  H   -0.002665  -0.000070  -0.000017   0.000002
     6  H    0.003919   0.000162   0.000030  -0.000013
     7  F    9.298127   0.001699   0.000364  -0.000245
     8  H    0.001699   0.462507   0.002584  -0.003240
     9  H    0.000364   0.002584   0.468017  -0.023522
    10  H   -0.000245  -0.003240  -0.023522   0.478653
 Mulliken charges:
               1
     1  C   -0.424037
     2  C    0.043215
     3  C   -0.033638
     4  C   -0.378185
     5  H    0.218097
     6  H    0.212741
     7  F   -0.273885
     8  H    0.228431
     9  H    0.208290
    10  H    0.198971
 Sum of Mulliken charges =   0.00000
 Mulliken charges with hydrogens summed into heavy atoms:
               1
     1  C    0.006801
     2  C    0.043215
     3  C    0.194793
     4  C    0.029076
     7  F   -0.273885
 Electronic spatial extent (au):  <R**2>=            434.4917
 Charge=              0.0000 electrons
 Dipole moment (field-independent basis, Debye):
    X=             -1.5273    Y=              1.8652    Z=              0.3938  Tot=              2.4427
 Quadrupole moment (field-independent basis, Debye-Ang):
   XX=            -26.8808   YY=            -31.5886   ZZ=            -29.5268
   XY=              3.0271   XZ=             -0.0057   YZ=             -1.4485
 Traceless Quadrupole moment (field-independent basis, Debye-Ang):
   XX=              2.4512   YY=             -2.2565   ZZ=             -0.1947
   XY=              3.0271   XZ=             -0.0057   YZ=             -1.4485
 Octapole moment (field-independent basis, Debye-Ang**2):
  XXX=              1.7487  YYY=             -1.8799  ZZZ=             -0.7947  XYY=              3.5324
  XXY=              0.8350  XXZ=             -2.1693  XZZ=             -0.6570  YZZ=             -4.6047
  YYZ=              0.8502  XYZ=              1.2056
 Hexadecapole moment (field-independent basis, Debye-Ang**3):
 XXXX=           -313.4784 YYYY=           -141.9173 ZZZZ=            -56.9364 XXXY=              1.3304
 XXXZ=             -4.6782 YYYX=             -3.4635 YYYZ=              2.1846 ZZZX=             -1.3066
 ZZZY=             -2.1384 XXYY=            -88.9468 XXZZ=            -69.0683 YYZZ=            -36.0300
 XXYZ=             -4.7772 YYXZ=             -0.1716 ZZXY=             -4.3389
 N-N= 1.557452177453D+02 E-N=-9.091420014375D+02  KE= 2.536026728690D+02
 No NMR shielding tensors so no spin-rotation constants.
 Leave Link  601 at Wed May 12 11:56:08 2021, MaxMem=  2147483648 cpu:         0.6
 (Enter /opt/cluster/programs/g09_d.01/g09/l701.exe)
 Compute integral first derivatives.
 ... and contract with generalized density number  0.
 R6Disp: Adding Grimme-D2 dispersion energy 1st derivatives to the gradient.
 Leave Link  701 at Wed May 12 11:56:08 2021, MaxMem=  2147483648 cpu:         0.6
 (Enter /opt/cluster/programs/g09_d.01/g09/l702.exe)
 L702 exits ... SP integral derivatives will be done elsewhere.
 Leave Link  702 at Wed May 12 11:56:08 2021, MaxMem=  2147483648 cpu:         0.2
 (Enter /opt/cluster/programs/g09_d.01/g09/l703.exe)
 Compute integral first derivatives, UseDBF=F ICtDFT=           0.
 Integral derivatives from FoFJK, PRISM(SPDF).
 Calling FoFJK, ICntrl=      2127 FMM=F ISym2X=0 I1Cent= 0 IOpClX= 0 NMat=1 NMatS=1 NMatT=0.
 FoFJK:  IHMeth= 1 ICntrl=    2127 DoSepK=T KAlg= 0 I1Cent=   0 FoldK=F
 IRaf=         1 NMat=   1 IRICut=       1 DoRegI=T DoRafI=F ISym2E= 0.
 FoFCou: FMM=F IPFlag=           0 FMFlag=      100000 FMFlg1=         800
         NFxFlg=           0 DoJE=F BraDBF=F KetDBF=F FulRan=T
         wScrn=  0.000000 ICntrl=    2527 IOpCl=  0 I1Cent=           0 NGrid=           0
         NMat0=    1 NMatS0=      1 NMatT0=    0 NMatD0=    1 NMtDS0=    0 NMtDT0=    0
 Symmetry not used in FoFCou.
 Leave Link  703 at Wed May 12 11:56:08 2021, MaxMem=  2147483648 cpu:         3.3
 (Enter /opt/cluster/programs/g09_d.01/g09/l716.exe)
 Dipole        =-6.00875575D-01 7.33822898D-01 1.54916744D-01
 ***** Axes restored to original set *****
 -------------------------------------------------------------------
 Center     Atomic                   Forces (Hartrees/Bohr)
 Number     Number              X              Y              Z
 -------------------------------------------------------------------
      1        6           0.003764724    0.002789522   -0.003661448
      2        6          -0.007472882    0.000859954    0.005117316
      3        6           0.004775430    0.004560422   -0.005823696
      4        6          -0.003816691   -0.002807674    0.003414370
      5        1           0.000593002    0.000491517    0.000165410
      6        1           0.000459590    0.000698501   -0.000019548
      7        9           0.003315964   -0.006051210    0.000976804
      8        1          -0.000313185   -0.000666967   -0.000775767
      9        1          -0.000521073    0.000057011    0.000405996
     10        1          -0.000784879    0.000068925    0.000200563
 -------------------------------------------------------------------
 Cartesian Forces:  Max     0.007472882 RMS     0.003065340
 Leave Link  716 at Wed May 12 11:56:08 2021, MaxMem=  2147483648 cpu:         0.2
 (Enter /opt/cluster/programs/g09_d.01/g09/l103.exe)

 GradGradGradGradGradGradGradGradGradGradGradGradGradGradGradGradGradGrad
 Berny optimization.
 FormGI is forming the generalized inverse of G from B-inverse, IUseBI=4.
 Internal  Forces:  Max     0.006962379 RMS     0.002193956
 Search for a local minimum.
 Step number   1 out of a maximum of   43
 All quantities printed in internal units (Hartrees-Bohrs-Radians)
 RMS Force = .20007D-02 SwitMx=.10000D-02 MixMth= 1
 Mixed Optimization -- RFO/linear search
 Second derivative matrix not updated -- first step.
 ITU=  0
     Eigenvalues ---    0.01616   0.02094   0.02865   0.02865   0.03001
     Eigenvalues ---    0.03001   0.15960   0.16000   0.16000   0.16000
     Eigenvalues ---    0.16000   0.22010   0.24922   0.25000   0.34853
     Eigenvalues ---    0.35219   0.35300   0.35365   0.35567   0.35608
     Eigenvalues ---    0.40680   0.56904   0.592541000.000001000.00000
     Eigenvalues --- 1000.000001000.000001000.000001000.000001000.00000
     Eigenvalues --- 1000.000001000.000001000.00000
 RFO step:  Lambda=-2.89207248D-04 EMin= 1.61551866D-02
 Linear search not attempted -- first point.
 Iteration  1 RMS(Cart)=  0.01149487 RMS(Int)=  0.00003295
 Iteration  2 RMS(Cart)=  0.00003439 RMS(Int)=  0.00000254
 Iteration  3 RMS(Cart)=  0.00000000 RMS(Int)=  0.00000254
 Iteration  1 RMS(Cart)=  0.00000064 RMS(Int)=  0.00000045
 ITry= 1 IFail=0 DXMaxC= 3.54D-02 DCOld= 1.00D+10 DXMaxT= 3.00D-01 DXLimC= 3.00D+00 Rises=F
 Variable       Old X    -DE/DX   Delta X   Delta X   Delta X     New X
                                 (Linear)    (Quad)   (Total)
    R1        2.51536  -0.00584   0.00000  -0.00985  -0.00985   2.50551
    R2        2.04764  -0.00059   0.00000  -0.00166  -0.00166   2.04598
    R3        2.04699  -0.00045   0.00000  -0.00125  -0.00125   2.04574
    R4        2.78387  -0.00117   0.00000  -0.00331  -0.00331   2.78055
    R5        2.70639  -0.00696   0.00000  -0.01710  -0.01710   2.68929
    R6        2.53478  -0.00589   0.00000  -0.01035  -0.01035   2.52443
    R7        2.05915  -0.00102   0.00000  -0.00291  -0.00291   2.05624
    R8        2.05321  -0.00034   0.00000  -0.00097  -0.00097   2.05224
    R9        2.05191  -0.00066   0.00000  -0.00186  -0.00186   2.05004
    A1        2.11768  -0.00023   0.00000  -0.00142  -0.00142   2.11626
    A2        2.09746  -0.00061   0.00000  -0.00378  -0.00378   2.09368
    A3        2.06797   0.00083   0.00000   0.00520   0.00520   2.07316
    A4        2.28441  -0.00077   0.00000  -0.00305  -0.00306   2.28135
    A5        2.05287   0.00075   0.00000   0.00254   0.00254   2.05540
    A6        1.94102   0.00019   0.00000   0.00112   0.00111   1.94213
    A7        2.16059  -0.00163   0.00000  -0.00748  -0.00749   2.15310
    A8        2.01932   0.00059   0.00000   0.00270   0.00270   2.02202
    A9        2.09988   0.00118   0.00000   0.00521   0.00520   2.10508
   A10        2.12486  -0.00044   0.00000  -0.00277  -0.00277   2.12208
   A11        2.11759  -0.00027   0.00000  -0.00169  -0.00169   2.11590
   A12        2.04070   0.00071   0.00000   0.00445   0.00445   2.04515
    D1        3.07924   0.00100   0.00000   0.00216   0.00216   3.08140
    D2        0.05438  -0.00109   0.00000  -0.00513  -0.00513   0.04924
    D3       -0.07601   0.00098   0.00000   0.00161   0.00161  -0.07440
    D4       -3.10087  -0.00110   0.00000  -0.00568  -0.00568  -3.10655
    D5        1.39645  -0.00388   0.00000   0.00000   0.00000   1.39646
    D6       -1.83363  -0.00189   0.00000   0.00584   0.00584  -1.82779
    D7       -1.85606  -0.00186   0.00000   0.00702   0.00702  -1.84904
    D8        1.19705   0.00013   0.00000   0.01286   0.01285   1.20990
    D9       -0.04182   0.00096   0.00000   0.00085   0.00085  -0.04096
   D10        3.10969   0.00101   0.00000   0.00242   0.00242   3.11211
   D11       -3.09103  -0.00108   0.00000  -0.00508  -0.00508  -3.09611
   D12        0.06047  -0.00104   0.00000  -0.00351  -0.00351   0.05696
         Item               Value     Threshold  Converged?
 Maximum Force            0.006962     0.000450     NO 
 RMS     Force            0.002001     0.000300     NO 
 Maximum Displacement     0.035419     0.001800     NO 
 RMS     Displacement     0.011498     0.001200     NO 
 Predicted change in Energy=-1.447688D-04
 Lowest energy point so far.  Saving SCF results.
 GradGradGradGradGradGradGradGradGradGradGradGradGradGradGradGradGradGrad

 Leave Link  103 at Wed May 12 11:56:08 2021, MaxMem=  2147483648 cpu:         0.1
 (Enter /opt/cluster/programs/g09_d.01/g09/l202.exe)
                          Input orientation:                          
 ---------------------------------------------------------------------
 Center     Atomic      Atomic             Coordinates (Angstroms)
 Number     Number       Type             X           Y           Z
 ---------------------------------------------------------------------
      1          6           0       -1.213098   -1.167730    0.010336
      2          6           0       -0.474153   -0.068511    0.070157
      3          6           0        0.925229    0.125995    0.481170
      4          6           0        1.967076   -0.130021   -0.314799
      5          1           0       -2.258849   -1.127158   -0.267100
      6          1           0       -0.768678   -2.130436    0.228566
      7          9           0       -1.115806    1.176270   -0.182912
      8          1           0        1.073920    0.573530    1.461779
      9          1           0        1.833982   -0.537565   -1.312589
     10          1           0        2.984610    0.051624    0.014595
 ---------------------------------------------------------------------
                    Distance matrix (angstroms):
                    1          2          3          4          5
     1  C    0.000000
     2  C    1.325859   0.000000
     3  C    2.543198   1.471406   0.000000
     4  C    3.360962   2.472160   1.335873   0.000000
     5  H    1.082687   2.102288   3.502664   4.342235   0.000000
     6  H    1.082560   2.088869   2.832775   3.432383   1.863562
     7  F    2.353965   1.423111   2.389541   3.350814   2.572823
     8  H    3.220113   2.178384   1.088113   2.109251   4.121736
     9  H    3.381115   2.731206   2.117478   1.085998   4.265200
    10  H    4.371223   3.461295   2.112882   1.084836   5.381704
                    6          7          8          9         10
     6  H    0.000000
     7  F    3.350242   0.000000
     8  H    3.496772   2.804141   0.000000
     9  H    3.418514   3.593696   3.083722   0.000000
    10  H    4.346761   4.256436   2.453052   1.852702   0.000000
 Stoichiometry    C4H5F
 Framework group  C1[X(C4H5F)]
 Deg. of freedom    24
 Full point group                 C1      NOp   1
 RotChk:  IX=0 Diff= 5.83D-03
 Largest Abelian subgroup         C1      NOp   1
 Largest concise Abelian subgroup C1      NOp   1
                         Standard orientation:                         
 ---------------------------------------------------------------------
 Center     Atomic      Atomic             Coordinates (Angstroms)
 Number     Number       Type             X           Y           Z
 ---------------------------------------------------------------------
      1          6           0        1.214870    1.166685    0.010462
      2          6           0        0.475399    0.067922    0.072131
      3          6           0       -0.925043   -0.124745    0.480392
      4          6           0       -1.964869    0.128988   -0.318944
      5          1           0        2.261276    1.124838   -0.264302
      6          1           0        0.770258    2.130260    0.224424
      7          9           0        1.117229   -1.177910   -0.175257
      8          1           0       -1.076265   -0.568978    1.462115
      9          1           0       -1.829215    0.533178   -1.317752
     10          1           0       -2.983261   -0.051218    0.008583
 ---------------------------------------------------------------------
 Rotational constants (GHZ):      8.7674899      3.9255584      2.9872805
 Leave Link  202 at Wed May 12 11:56:08 2021, MaxMem=  2147483648 cpu:         0.0
 (Enter /opt/cluster/programs/g09_d.01/g09/l301.exe)
 Standard basis: 6-31+G (6D, 7F)
 Ernie: Thresh=  0.10000D-02 Tol=  0.10000D-05 Strict=F.
 There are    75 symmetry adapted cartesian basis functions of A   symmetry.
 There are    75 symmetry adapted basis functions of A   symmetry.
    75 basis functions,   150 primitive gaussians,    75 cartesian basis functions
    19 alpha electrons       19 beta electrons
       nuclear repulsion energy       156.3411387839 Hartrees.
 IExCor= 4639 DFT=T Ex+Corr=wB97XD ExCW=0 ScaHFX=  1.000000
 ScaDFX=  1.000000  1.000000  1.000000  1.000000 ScalE2=  1.000000  1.000000
 IRadAn=      0 IRanWt=     -1 IRanGd=            0 ICorTp=0 IEmpDi=121
  HFx wShort=  0.000000 wLong=  0.200000 cFull=  0.222036 cShort=  0.000000 cLong=  0.777964
  DFx wShort=  0.000000 wLong=  0.200000 cFull=  0.000000 cShort=  0.000000 cLong=  1.000000
 NAtoms=   10 NActive=   10 NUniq=   10 SFac= 1.00D+00 NAtFMM=   60 NAOKFM=F Big=F
 Integral buffers will be    131072 words long.
 Raffenetti 2 integral format.
 Two-electron integral symmetry is turned on.
 R6Disp:  Grimme-D2 Dispersion energy=       -0.0030093812 Hartrees.
 Nuclear repulsion after empirical dispersion term =      156.3381294027 Hartrees.
 Leave Link  301 at Wed May 12 11:56:08 2021, MaxMem=  2147483648 cpu:         0.3
 (Enter /opt/cluster/programs/g09_d.01/g09/l302.exe)
 NPDir=0 NMtPBC=     1 NCelOv=     1 NCel=       1 NClECP=     1 NCelD=      1
         NCelK=      1 NCelE2=     1 NClLst=     1 CellRange=     0.0.
 One-electron integrals computed using PRISM.
 NBasis=    75 RedAO= T EigKep=  6.42D-05  NBF=    75
 NBsUse=    75 1.00D-06 EigRej= -1.00D+00 NBFU=    75
 Precomputing XC quadrature grid using
 IXCGrd= 4 IRadAn=           0 IRanWt=          -1 IRanGd=           0 AccXCQ= 0.00D+00.
 Generated NRdTot=       0 NPtTot=           0 NUsed=           0 NTot=          32
 NSgBfM=    75    75    75    75    75 MxSgAt=    10 MxSgA2=    10.
 Leave Link  302 at Wed May 12 11:56:08 2021, MaxMem=  2147483648 cpu:         0.9
 (Enter /opt/cluster/programs/g09_d.01/g09/l303.exe)
 DipDrv:  MaxL=1.
 Leave Link  303 at Wed May 12 11:56:08 2021, MaxMem=  2147483648 cpu:         0.2
 (Enter /opt/cluster/programs/g09_d.01/g09/l401.exe)
 Initial guess from the checkpoint file:  "/home/unibas/boittier/RDKit_G2/B.pdb/SCAN_1_2_3_4_S_17_20.0/13_SCAN_1_2_3_4_F/B.pdb.chk"
 B after Tr=     0.000000    0.000000    0.000000
         Rot=    1.000000    0.000434    0.000591    0.000159 Ang=   0.09 deg.
 Guess basis will be translated and rotated to current coordinates.
 JPrj=2 DoOrth=T DoCkMO=T.
 Generating alternative initial guess.
 ExpMin= 4.38D-02 ExpMax= 7.00D+03 ExpMxC= 1.05D+03 IAcc=2 IRadAn=         4 AccDes= 0.00D+00
 Harris functional with IExCor= 4639 and IRadAn=       4 diagonalized for initial guess.
 HarFok:  IExCor= 4639 AccDes= 0.00D+00 IRadAn=         4 IDoV= 1 UseB2=F ITyADJ=14
 ICtDFT=  3500011 ScaDFX=  1.000000  1.000000  1.000000  1.000000
 FoFCou: FMM=F IPFlag=           0 FMFlag=      100000 FMFlg1=           0
         NFxFlg=           0 DoJE=T BraDBF=F KetDBF=T FulRan=T
         wScrn=  0.000000 ICntrl=     500 IOpCl=  0 I1Cent=   200000004 NGrid=           0
         NMat0=    1 NMatS0=      1 NMatT0=    0 NMatD0=    1 NMtDS0=    0 NMtDT0=    0
 Petite list used in FoFCou.
 Harris En= -244.782219499053    
 Leave Link  401 at Wed May 12 11:56:09 2021, MaxMem=  2147483648 cpu:         1.7
 (Enter /opt/cluster/programs/g09_d.01/g09/l502.exe)
 Closed shell SCF:
 Using DIIS extrapolation, IDIIS=  1040.
 Integral symmetry usage will be decided dynamically.
 Keep R1 ints in memory in canonical form, NReq=9056162.
 IVT=       36600 IEndB=       36600 NGot=  2147483648 MDV=  2139321699
 LenX=  2139321699 LenY=  2139315633
 Requested convergence on RMS density matrix=1.00D-08 within 128 cycles.
 Requested convergence on MAX density matrix=1.00D-06.
 Requested convergence on             energy=1.00D-06.
 No special actions if energy rises.
 FoFCou: FMM=F IPFlag=           0 FMFlag=           0 FMFlg1=           0
         NFxFlg=           0 DoJE=F BraDBF=F KetDBF=F FulRan=T
         wScrn=  0.000000 ICntrl=     600 IOpCl=  0 I1Cent=           0 NGrid=           0
         NMat0=    1 NMatS0=   2850 NMatT0=    0 NMatD0=    1 NMtDS0=    0 NMtDT0=    0
 Symmetry not used in FoFCou.

 Cycle   1  Pass 1  IDiag  1:
 E= -255.093927694649    
 DIIS: error= 5.82D-04 at cycle   1 NSaved=   1.
 NSaved= 1 IEnMin= 1 EnMin= -255.093927694649     IErMin= 1 ErrMin= 5.82D-04
 ErrMax= 5.82D-04  0.00D+00 EMaxC= 1.00D-01 BMatC= 6.45D-05 BMatP= 6.45D-05
 IDIUse=3 WtCom= 9.94D-01 WtEn= 5.82D-03
 Coeff-Com:  0.100D+01
 Coeff-En:   0.100D+01
 Coeff:      0.100D+01
 Gap=     0.594 Goal=   None    Shift=    0.000
 RMSDP=4.00D-04 MaxDP=4.71D-03              OVMax= 2.03D-03

 Cycle   2  Pass 1  IDiag  1:
 E= -255.094012312451     Delta-E=       -0.000084617801 Rises=F Damp=F
 DIIS: error= 1.53D-04 at cycle   2 NSaved=   2.
 NSaved= 2 IEnMin= 2 EnMin= -255.094012312451     IErMin= 2 ErrMin= 1.53D-04
 ErrMax= 1.53D-04  0.00D+00 EMaxC= 1.00D-01 BMatC= 3.75D-06 BMatP= 6.45D-05
 IDIUse=3 WtCom= 9.98D-01 WtEn= 1.53D-03
 Coeff-Com:  0.761D-02 0.992D+00
 Coeff-En:   0.000D+00 0.100D+01
 Coeff:      0.760D-02 0.992D+00
 Gap=     0.389 Goal=   None    Shift=    0.000
 RMSDP=9.71D-05 MaxDP=1.63D-03 DE=-8.46D-05 OVMax= 8.83D-04

 Cycle   3  Pass 1  IDiag  1:
 E= -255.094017942551     Delta-E=       -0.000005630100 Rises=F Damp=F
 DIIS: error= 7.05D-05 at cycle   3 NSaved=   3.
 NSaved= 3 IEnMin= 3 EnMin= -255.094017942551     IErMin= 3 ErrMin= 7.05D-05
 ErrMax= 7.05D-05  0.00D+00 EMaxC= 1.00D-01 BMatC= 1.13D-06 BMatP= 3.75D-06
 IDIUse=1 WtCom= 1.00D+00 WtEn= 0.00D+00
 Coeff-Com: -0.591D-01 0.320D+00 0.739D+00
 Coeff:     -0.591D-01 0.320D+00 0.739D+00
 Gap=     0.389 Goal=   None    Shift=    0.000
 RMSDP=3.38D-05 MaxDP=3.03D-04 DE=-5.63D-06 OVMax= 4.23D-04

 Cycle   4  Pass 1  IDiag  1:
 E= -255.094019325132     Delta-E=       -0.000001382581 Rises=F Damp=F
 DIIS: error= 3.30D-05 at cycle   4 NSaved=   4.
 NSaved= 4 IEnMin= 4 EnMin= -255.094019325132     IErMin= 4 ErrMin= 3.30D-05
 ErrMax= 3.30D-05  0.00D+00 EMaxC= 1.00D-01 BMatC= 1.15D-07 BMatP= 1.13D-06
 IDIUse=1 WtCom= 1.00D+00 WtEn= 0.00D+00
 Coeff-Com: -0.196D-01 0.515D-01 0.259D+00 0.709D+00
 Coeff:     -0.196D-01 0.515D-01 0.259D+00 0.709D+00
 Gap=     0.390 Goal=   None    Shift=    0.000
 RMSDP=8.05D-06 MaxDP=1.02D-04 DE=-1.38D-06 OVMax= 1.83D-04

 Cycle   5  Pass 1  IDiag  1:
 E= -255.094019477777     Delta-E=       -0.000000152645 Rises=F Damp=F
 DIIS: error= 1.59D-05 at cycle   5 NSaved=   5.
 NSaved= 5 IEnMin= 5 EnMin= -255.094019477777     IErMin= 5 ErrMin= 1.59D-05
 ErrMax= 1.59D-05  0.00D+00 EMaxC= 1.00D-01 BMatC= 2.36D-08 BMatP= 1.15D-07
 IDIUse=1 WtCom= 1.00D+00 WtEn= 0.00D+00
 Coeff-Com:  0.572D-02-0.569D-01-0.717D-01 0.292D+00 0.831D+00
 Coeff:      0.572D-02-0.569D-01-0.717D-01 0.292D+00 0.831D+00
 Gap=     0.390 Goal=   None    Shift=    0.000
 RMSDP=5.30D-06 MaxDP=8.84D-05 DE=-1.53D-07 OVMax= 8.24D-05

 Cycle   6  Pass 1  IDiag  1:
 E= -255.094019516705     Delta-E=       -0.000000038927 Rises=F Damp=F
 DIIS: error= 3.63D-06 at cycle   6 NSaved=   6.
 NSaved= 6 IEnMin= 6 EnMin= -255.094019516705     IErMin= 6 ErrMin= 3.63D-06
 ErrMax= 3.63D-06  0.00D+00 EMaxC= 1.00D-01 BMatC= 3.77D-10 BMatP= 2.36D-08
 IDIUse=1 WtCom= 1.00D+00 WtEn= 0.00D+00
 Coeff-Com:  0.550D-03 0.172D-02-0.950D-02-0.479D-01-0.878D-01 0.114D+01
 Coeff:      0.550D-03 0.172D-02-0.950D-02-0.479D-01-0.878D-01 0.114D+01
 Gap=     0.390 Goal=   None    Shift=    0.000
 RMSDP=1.72D-06 MaxDP=2.19D-05 DE=-3.89D-08 OVMax= 2.38D-05

 Cycle   7  Pass 1  IDiag  1:
 E= -255.094019518212     Delta-E=       -0.000000001507 Rises=F Damp=F
 DIIS: error= 1.16D-06 at cycle   7 NSaved=   7.
 NSaved= 7 IEnMin= 7 EnMin= -255.094019518212     IErMin= 7 ErrMin= 1.16D-06
 ErrMax= 1.16D-06  0.00D+00 EMaxC= 1.00D-01 BMatC= 1.47D-10 BMatP= 3.77D-10
 IDIUse=1 WtCom= 1.00D+00 WtEn= 0.00D+00
 Coeff-Com: -0.267D-03 0.593D-02 0.219D-02-0.464D-01-0.113D+00 0.518D+00
 Coeff-Com:  0.633D+00
 Coeff:     -0.267D-03 0.593D-02 0.219D-02-0.464D-01-0.113D+00 0.518D+00
 Coeff:      0.633D+00
 Gap=     0.390 Goal=   None    Shift=    0.000
 RMSDP=3.66D-07 MaxDP=4.95D-06 DE=-1.51D-09 OVMax= 7.53D-06

 Cycle   8  Pass 1  IDiag  1:
 E= -255.094019518408     Delta-E=       -0.000000000196 Rises=F Damp=F
 DIIS: error= 2.44D-07 at cycle   8 NSaved=   8.
 NSaved= 8 IEnMin= 8 EnMin= -255.094019518408     IErMin= 8 ErrMin= 2.44D-07
 ErrMax= 2.44D-07  0.00D+00 EMaxC= 1.00D-01 BMatC= 4.80D-12 BMatP= 1.47D-10
 IDIUse=1 WtCom= 1.00D+00 WtEn= 0.00D+00
 Coeff-Com: -0.657D-04 0.337D-04 0.123D-02 0.261D-02 0.405D-02-0.100D+00
 Coeff-Com:  0.559D-01 0.104D+01
 Coeff:     -0.657D-04 0.337D-04 0.123D-02 0.261D-02 0.405D-02-0.100D+00
 Coeff:      0.559D-01 0.104D+01
 Gap=     0.390 Goal=   None    Shift=    0.000
 RMSDP=1.42D-07 MaxDP=1.57D-06 DE=-1.96D-10 OVMax= 2.53D-06

 Cycle   9  Pass 1  IDiag  1:
 E= -255.094019518424     Delta-E=       -0.000000000016 Rises=F Damp=F
 DIIS: error= 7.12D-08 at cycle   9 NSaved=   9.
 NSaved= 9 IEnMin= 9 EnMin= -255.094019518424     IErMin= 9 ErrMin= 7.12D-08
 ErrMax= 7.12D-08  0.00D+00 EMaxC= 1.00D-01 BMatC= 4.69D-13 BMatP= 4.80D-12
 IDIUse=1 WtCom= 1.00D+00 WtEn= 0.00D+00
 Coeff-Com: -0.121D-04-0.208D-03 0.303D-03 0.282D-02 0.597D-02-0.542D-01
 Coeff-Com: -0.113D-01 0.289D+00 0.768D+00
 Coeff:     -0.121D-04-0.208D-03 0.303D-03 0.282D-02 0.597D-02-0.542D-01
 Coeff:     -0.113D-01 0.289D+00 0.768D+00
 Gap=     0.390 Goal=   None    Shift=    0.000
 RMSDP=3.56D-08 MaxDP=5.07D-07 DE=-1.58D-11 OVMax= 5.76D-07

 Cycle  10  Pass 1  IDiag  1:
 E= -255.094019518422     Delta-E=        0.000000000001 Rises=F Damp=F
 DIIS: error= 3.33D-08 at cycle  10 NSaved=  10.
 NSaved=10 IEnMin= 9 EnMin= -255.094019518424     IErMin=10 ErrMin= 3.33D-08
 ErrMax= 3.33D-08  0.00D+00 EMaxC= 1.00D-01 BMatC= 1.28D-13 BMatP= 4.69D-13
 IDIUse=1 WtCom= 1.00D+00 WtEn= 0.00D+00
 Coeff-Com:  0.107D-04-0.163D-03-0.125D-03 0.117D-02 0.278D-02-0.963D-02
 Coeff-Com: -0.153D-01-0.489D-01 0.334D+00 0.736D+00
 Coeff:      0.107D-04-0.163D-03-0.125D-03 0.117D-02 0.278D-02-0.963D-02
 Coeff:     -0.153D-01-0.489D-01 0.334D+00 0.736D+00
 Gap=     0.390 Goal=   None    Shift=    0.000
 RMSDP=2.12D-08 MaxDP=3.78D-07 DE= 1.36D-12 OVMax= 3.18D-07

 Cycle  11  Pass 1  IDiag  1:
 E= -255.094019518424     Delta-E=       -0.000000000001 Rises=F Damp=F
 DIIS: error= 1.10D-08 at cycle  11 NSaved=  11.
 NSaved=11 IEnMin= 9 EnMin= -255.094019518424     IErMin=11 ErrMin= 1.10D-08
 ErrMax= 1.10D-08  0.00D+00 EMaxC= 1.00D-01 BMatC= 1.20D-14 BMatP= 1.28D-13
 IDIUse=1 WtCom= 1.00D+00 WtEn= 0.00D+00
 Coeff-Com:  0.349D-05-0.154D-04-0.666D-04-0.149D-04 0.519D-04 0.363D-02
 Coeff-Com: -0.306D-02-0.529D-01 0.311D-01 0.257D+00 0.764D+00
 Coeff:      0.349D-05-0.154D-04-0.666D-04-0.149D-04 0.519D-04 0.363D-02
 Coeff:     -0.306D-02-0.529D-01 0.311D-01 0.257D+00 0.764D+00
 Gap=     0.390 Goal=   None    Shift=    0.000
 RMSDP=5.74D-09 MaxDP=7.68D-08 DE=-1.14D-12 OVMax= 1.03D-07

 SCF Done:  E(RwB97XD) =  -255.094019518     A.U. after   11 cycles
            NFock= 11  Conv=0.57D-08     -V/T= 2.0056
 KE= 2.536647205637D+02 PE=-9.103707369151D+02 EE= 2.452738674302D+02
 Leave Link  502 at Wed May 12 11:56:11 2021, MaxMem=  2147483648 cpu:        11.3
 (Enter /opt/cluster/programs/g09_d.01/g09/l701.exe)
 Compute integral first derivatives.
 ... and contract with generalized density number  0.
 R6Disp: Adding Grimme-D2 dispersion energy 1st derivatives to the gradient.
 Leave Link  701 at Wed May 12 11:56:11 2021, MaxMem=  2147483648 cpu:         0.6
 (Enter /opt/cluster/programs/g09_d.01/g09/l702.exe)
 L702 exits ... SP integral derivatives will be done elsewhere.
 Leave Link  702 at Wed May 12 11:56:11 2021, MaxMem=  2147483648 cpu:         0.2
 (Enter /opt/cluster/programs/g09_d.01/g09/l703.exe)
 Compute integral first derivatives, UseDBF=F ICtDFT=           0.
 Integral derivatives from FoFJK, PRISM(SPDF).
 Calling FoFJK, ICntrl=      2127 FMM=F ISym2X=0 I1Cent= 0 IOpClX= 0 NMat=1 NMatS=1 NMatT=0.
 FoFJK:  IHMeth= 1 ICntrl=    2127 DoSepK=T KAlg= 0 I1Cent=   0 FoldK=F
 IRaf=         1 NMat=   1 IRICut=       1 DoRegI=T DoRafI=F ISym2E= 0.
 FoFCou: FMM=F IPFlag=           0 FMFlag=      100000 FMFlg1=         800
         NFxFlg=           0 DoJE=F BraDBF=F KetDBF=F FulRan=T
         wScrn=  0.000000 ICntrl=    2527 IOpCl=  0 I1Cent=           0 NGrid=           0
         NMat0=    1 NMatS0=      1 NMatT0=    0 NMatD0=    1 NMtDS0=    0 NMtDT0=    0
 Symmetry not used in FoFCou.
 Leave Link  703 at Wed May 12 11:56:11 2021, MaxMem=  2147483648 cpu:         3.3
 (Enter /opt/cluster/programs/g09_d.01/g09/l716.exe)
 Dipole        =-5.91682755D-01 7.19787096D-01 1.54717865D-01
 ***** Axes restored to original set *****
 -------------------------------------------------------------------
 Center     Atomic                   Forces (Hartrees/Bohr)
 Number     Number              X              Y              Z
 -------------------------------------------------------------------
      1        6           0.001071666   -0.002137938   -0.003757123
      2        6          -0.003730254    0.002627077    0.005960401
      3        6           0.000864400    0.004723624   -0.003151109
      4        6           0.000873566   -0.003711488    0.000680358
      5        1          -0.000004878   -0.000006664   -0.000028958
      6        1          -0.000012149    0.000023014    0.000104324
      7        9           0.000955305   -0.001509094    0.000292803
      8        1          -0.000098736   -0.000074253    0.000020847
      9        1          -0.000028093    0.000019543    0.000001707
     10        1           0.000109173    0.000046180   -0.000123250
 -------------------------------------------------------------------
 Cartesian Forces:  Max     0.005960401 RMS     0.002061574
 Leave Link  716 at Wed May 12 11:56:12 2021, MaxMem=  2147483648 cpu:         0.2
 (Enter /opt/cluster/programs/g09_d.01/g09/l103.exe)

 GradGradGradGradGradGradGradGradGradGradGradGradGradGradGradGradGradGrad
 Berny optimization.
 Using GEDIIS/GDIIS optimizer.
 FormGI is forming the generalized inverse of G from B-inverse, IUseBI=4.
 Internal  Forces:  Max     0.003754480 RMS     0.001076123
 Search for a local minimum.
 Step number   2 out of a maximum of   43
 All quantities printed in internal units (Hartrees-Bohrs-Radians)
 RMS Force = .54045D-03 SwitMx=.10000D-02 MixMth= 2
 Mixed Optimization -- En-DIIS/RFO-DIIS
 Update second derivatives using D2CorX and points    1    2
 DE= -1.51D-04 DEPred=-1.45D-04 R= 1.05D+00
 TightC=F SS=  1.41D+00  RLast= 3.26D-02 DXNew= 5.0454D-01 9.7905D-02
 Trust test= 1.05D+00 RLast= 3.26D-02 DXMaxT set to 3.00D-01
 ITU=  1  0
 Use linear search instead of GDIIS.
     Eigenvalues ---    0.01592   0.02090   0.02862   0.02868   0.03001
     Eigenvalues ---    0.03010   0.15756   0.15976   0.16000   0.16000
     Eigenvalues ---    0.16096   0.21019   0.24000   0.24938   0.33486
     Eigenvalues ---    0.34999   0.35233   0.35358   0.35589   0.35692
     Eigenvalues ---    0.36952   0.57873   0.718111000.000001000.00000
     Eigenvalues --- 1000.000001000.000001000.000001000.000001000.00000
     Eigenvalues --- 1000.000001000.000001000.00000
 RFO step:  Lambda=-2.76088147D-05 EMin= 1.59152068D-02
 Quartic linear search produced a step of  0.04154.
 Iteration  1 RMS(Cart)=  0.00377566 RMS(Int)=  0.00000925
 Iteration  2 RMS(Cart)=  0.00001010 RMS(Int)=  0.00000100
 Iteration  3 RMS(Cart)=  0.00000000 RMS(Int)=  0.00000100
 Iteration  1 RMS(Cart)=  0.00000064 RMS(Int)=  0.00000045
 ITry= 1 IFail=0 DXMaxC= 7.42D-03 DCOld= 1.00D+10 DXMaxT= 3.00D-01 DXLimC= 3.00D+00 Rises=F
 Variable       Old X    -DE/DX   Delta X   Delta X   Delta X     New X
                                 (Linear)    (Quad)   (Total)
    R1        2.50551   0.00133  -0.00041   0.00182   0.00141   2.50692
    R2        2.04598   0.00002  -0.00007  -0.00004  -0.00011   2.04587
    R3        2.04574  -0.00001  -0.00005  -0.00010  -0.00015   2.04559
    R4        2.78055   0.00106  -0.00014   0.00295   0.00281   2.78337
    R5        2.68929  -0.00180  -0.00071  -0.00552  -0.00623   2.68306
    R6        2.52443   0.00110  -0.00043   0.00146   0.00103   2.52547
    R7        2.05624  -0.00002  -0.00012  -0.00022  -0.00034   2.05589
    R8        2.05224  -0.00001  -0.00004  -0.00009  -0.00013   2.05211
    R9        2.05004   0.00008  -0.00008   0.00013   0.00005   2.05009
    A1        2.11626   0.00000  -0.00006  -0.00007  -0.00013   2.11613
    A2        2.09368  -0.00001  -0.00016  -0.00026  -0.00042   2.09326
    A3        2.07316   0.00001   0.00022   0.00035   0.00056   2.07373
    A4        2.28135  -0.00104  -0.00013  -0.00456  -0.00469   2.27666
    A5        2.05540   0.00090   0.00011   0.00334   0.00344   2.05884
    A6        1.94213   0.00029   0.00005   0.00153   0.00157   1.94370
    A7        2.15310  -0.00012  -0.00031  -0.00112  -0.00143   2.15167
    A8        2.02202  -0.00007   0.00011  -0.00014  -0.00003   2.02199
    A9        2.10508   0.00032   0.00022   0.00137   0.00159   2.10667
   A10        2.12208  -0.00012  -0.00012  -0.00090  -0.00101   2.12107
   A11        2.11590   0.00018  -0.00007   0.00112   0.00105   2.11695
   A12        2.04515  -0.00007   0.00018  -0.00020  -0.00001   2.04513
    D1        3.08140   0.00102   0.00009   0.00320   0.00329   3.08469
    D2        0.04924  -0.00095  -0.00021  -0.00090  -0.00111   0.04813
    D3       -0.07440   0.00106   0.00007   0.00478   0.00485  -0.06955
    D4       -3.10655  -0.00090  -0.00024   0.00069   0.00045  -3.10610
    D5        1.39646  -0.00375   0.00000   0.00000   0.00000   1.39646
    D6       -1.82779  -0.00190   0.00024   0.00157   0.00182  -1.82598
    D7       -1.84904  -0.00186   0.00029   0.00401   0.00430  -1.84474
    D8        1.20990   0.00000   0.00053   0.00558   0.00611   1.21601
    D9       -0.04096   0.00098   0.00004   0.00140   0.00144  -0.03952
   D10        3.11211   0.00090   0.00010  -0.00154  -0.00144   3.11067
   D11       -3.09611  -0.00094  -0.00021  -0.00017  -0.00038  -3.09649
   D12        0.05696  -0.00102  -0.00015  -0.00311  -0.00326   0.05370
         Item               Value     Threshold  Converged?
 Maximum Force            0.001801     0.000450     NO 
 RMS     Force            0.000540     0.000300     NO 
 Maximum Displacement     0.007416     0.001800     NO 
 RMS     Displacement     0.003777     0.001200     NO 
 Predicted change in Energy=-1.412082D-05
 Lowest energy point so far.  Saving SCF results.
 GradGradGradGradGradGradGradGradGradGradGradGradGradGradGradGradGradGrad

 Leave Link  103 at Wed May 12 11:56:12 2021, MaxMem=  2147483648 cpu:         0.1
 (Enter /opt/cluster/programs/g09_d.01/g09/l202.exe)
                          Input orientation:                          
 ---------------------------------------------------------------------
 Center     Atomic      Atomic             Coordinates (Angstroms)
 Number     Number       Type             X           Y           Z
 ---------------------------------------------------------------------
      1          6           0       -1.212186   -1.167333    0.010233
      2          6           0       -0.475917   -0.065439    0.070357
      3          6           0        0.924974    0.126299    0.482859
      4          6           0        1.966057   -0.130635   -0.314732
      5          1           0       -2.257263   -1.129825   -0.269938
      6          1           0       -0.765752   -2.128094    0.232491
      7          9           0       -1.114214    1.176577   -0.186234
      8          1           0        1.073810    0.570182    1.464903
      9          1           0        1.830138   -0.534932   -1.313388
     10          1           0        2.984587    0.049198    0.012654
 ---------------------------------------------------------------------
                    Distance matrix (angstroms):
                    1          2          3          4          5
     1  C    0.000000
     2  C    1.326603   0.000000
     3  C    2.542501   1.472894   0.000000
     4  C    3.358805   2.473010   1.336420   0.000000
     5  H    1.082630   2.102833   3.503024   4.340139   0.000000
     6  H    1.082481   2.089219   2.829050   3.428129   1.863755
     7  F    2.354170   1.419812   2.389364   3.348639   2.575472
     8  H    3.218820   2.179548   1.087932   2.110533   4.122590
     9  H    3.377519   2.730030   2.117322   1.085931   4.260226
    10  H    4.369537   3.462883   2.114011   1.084862   5.380236
                    6          7          8          9         10
     6  H    0.000000
     7  F    3.349271   0.000000
     8  H    3.490490   2.807388   0.000000
     9  H    3.415633   3.587332   3.084188   0.000000
    10  H    4.342115   4.255668   2.455915   1.852660   0.000000
 Stoichiometry    C4H5F
 Framework group  C1[X(C4H5F)]
 Deg. of freedom    24
 Full point group                 C1      NOp   1
 RotChk:  IX=0 Diff= 3.00D-03
 Largest Abelian subgroup         C1      NOp   1
 Largest concise Abelian subgroup C1      NOp   1
                         Standard orientation:                         
 ---------------------------------------------------------------------
 Center     Atomic      Atomic             Coordinates (Angstroms)
 Number     Number       Type             X           Y           Z
 ---------------------------------------------------------------------
      1          6           0        1.213537    1.167276    0.009445
      2          6           0        0.477136    0.065665    0.073027
      3          6           0       -0.925046   -0.123994    0.482091
      4          6           0       -1.963609    0.128676   -0.320134
      5          1           0        2.259498    1.128364   -0.267212
      6          1           0        0.766353    2.129163    0.225234
      7          9           0        1.116303   -1.177641   -0.175009
      8          1           0       -1.076972   -0.562719    1.465979
      9          1           0       -1.824546    0.527727   -1.320466
     10          1           0       -2.983163   -0.049501    0.004964
 ---------------------------------------------------------------------
 Rotational constants (GHZ):      8.7619952      3.9285599      2.9901343
 Leave Link  202 at Wed May 12 11:56:12 2021, MaxMem=  2147483648 cpu:         0.0
 (Enter /opt/cluster/programs/g09_d.01/g09/l301.exe)
 Standard basis: 6-31+G (6D, 7F)
 Ernie: Thresh=  0.10000D-02 Tol=  0.10000D-05 Strict=F.
 There are    75 symmetry adapted cartesian basis functions of A   symmetry.
 There are    75 symmetry adapted basis functions of A   symmetry.
    75 basis functions,   150 primitive gaussians,    75 cartesian basis functions
    19 alpha electrons       19 beta electrons
       nuclear repulsion energy       156.3712580681 Hartrees.
 IExCor= 4639 DFT=T Ex+Corr=wB97XD ExCW=0 ScaHFX=  1.000000
 ScaDFX=  1.000000  1.000000  1.000000  1.000000 ScalE2=  1.000000  1.000000
 IRadAn=      0 IRanWt=     -1 IRanGd=            0 ICorTp=0 IEmpDi=121
  HFx wShort=  0.000000 wLong=  0.200000 cFull=  0.222036 cShort=  0.000000 cLong=  0.777964
  DFx wShort=  0.000000 wLong=  0.200000 cFull=  0.000000 cShort=  0.000000 cLong=  1.000000
 NAtoms=   10 NActive=   10 NUniq=   10 SFac= 1.00D+00 NAtFMM=   60 NAOKFM=F Big=F
 Integral buffers will be    131072 words long.
 Raffenetti 2 integral format.
 Two-electron integral symmetry is turned on.
 R6Disp:  Grimme-D2 Dispersion energy=       -0.0030121223 Hartrees.
 Nuclear repulsion after empirical dispersion term =      156.3682459459 Hartrees.
 Leave Link  301 at Wed May 12 11:56:12 2021, MaxMem=  2147483648 cpu:         0.3
 (Enter /opt/cluster/programs/g09_d.01/g09/l302.exe)
 NPDir=0 NMtPBC=     1 NCelOv=     1 NCel=       1 NClECP=     1 NCelD=      1
         NCelK=      1 NCelE2=     1 NClLst=     1 CellRange=     0.0.
 One-electron integrals computed using PRISM.
 NBasis=    75 RedAO= T EigKep=  6.49D-05  NBF=    75
 NBsUse=    75 1.00D-06 EigRej= -1.00D+00 NBFU=    75
 Precomputing XC quadrature grid using
 IXCGrd= 4 IRadAn=           0 IRanWt=          -1 IRanGd=           0 AccXCQ= 0.00D+00.
 Generated NRdTot=       0 NPtTot=           0 NUsed=           0 NTot=          32
 NSgBfM=    75    75    75    75    75 MxSgAt=    10 MxSgA2=    10.
 Leave Link  302 at Wed May 12 11:56:12 2021, MaxMem=  2147483648 cpu:         0.9
 (Enter /opt/cluster/programs/g09_d.01/g09/l303.exe)
 DipDrv:  MaxL=1.
 Leave Link  303 at Wed May 12 11:56:12 2021, MaxMem=  2147483648 cpu:         0.2
 (Enter /opt/cluster/programs/g09_d.01/g09/l401.exe)
 Initial guess from the checkpoint file:  "/home/unibas/boittier/RDKit_G2/B.pdb/SCAN_1_2_3_4_S_17_20.0/13_SCAN_1_2_3_4_F/B.pdb.chk"
 B after Tr=     0.000000    0.000000    0.000000
         Rot=    1.000000    0.000493    0.000105   -0.000055 Ang=   0.06 deg.
 Guess basis will be translated and rotated to current coordinates.
 JPrj=2 DoOrth=T DoCkMO=T.
 Leave Link  401 at Wed May 12 11:56:12 2021, MaxMem=  2147483648 cpu:         0.6
 (Enter /opt/cluster/programs/g09_d.01/g09/l502.exe)
 Closed shell SCF:
 Using DIIS extrapolation, IDIIS=  1040.
 Integral symmetry usage will be decided dynamically.
 Keep R1 ints in memory in canonical form, NReq=9056162.
 IVT=       36600 IEndB=       36600 NGot=  2147483648 MDV=  2139321699
 LenX=  2139321699 LenY=  2139315633
 Requested convergence on RMS density matrix=1.00D-08 within 128 cycles.
 Requested convergence on MAX density matrix=1.00D-06.
 Requested convergence on             energy=1.00D-06.
 No special actions if energy rises.
 FoFCou: FMM=F IPFlag=           0 FMFlag=           0 FMFlg1=           0
         NFxFlg=           0 DoJE=F BraDBF=F KetDBF=F FulRan=T
         wScrn=  0.000000 ICntrl=     600 IOpCl=  0 I1Cent=           0 NGrid=           0
         NMat0=    1 NMatS0=   2850 NMatT0=    0 NMatD0=    1 NMtDS0=    0 NMtDT0=    0
 Symmetry not used in FoFCou.

 Cycle   1  Pass 1  IDiag  1:
 E= -255.094017743015    
 DIIS: error= 2.45D-04 at cycle   1 NSaved=   1.
 NSaved= 1 IEnMin= 1 EnMin= -255.094017743015     IErMin= 1 ErrMin= 2.45D-04
 ErrMax= 2.45D-04  0.00D+00 EMaxC= 1.00D-01 BMatC= 1.25D-05 BMatP= 1.25D-05
 IDIUse=3 WtCom= 9.98D-01 WtEn= 2.45D-03
 Coeff-Com:  0.100D+01
 Coeff-En:   0.100D+01
 Coeff:      0.100D+01
 Gap=     0.594 Goal=   None    Shift=    0.000
 RMSDP=1.27D-04 MaxDP=1.43D-03              OVMax= 1.26D-03

 Cycle   2  Pass 1  IDiag  1:
 E= -255.094036102844     Delta-E=       -0.000018359829 Rises=F Damp=F
 DIIS: error= 1.42D-04 at cycle   2 NSaved=   2.
 NSaved= 2 IEnMin= 2 EnMin= -255.094036102844     IErMin= 2 ErrMin= 1.42D-04
 ErrMax= 1.42D-04  0.00D+00 EMaxC= 1.00D-01 BMatC= 2.02D-06 BMatP= 1.25D-05
 IDIUse=3 WtCom= 9.99D-01 WtEn= 1.42D-03
 Coeff-Com:  0.116D+00 0.884D+00
 Coeff-En:   0.000D+00 0.100D+01
 Coeff:      0.116D+00 0.884D+00
 Gap=     0.390 Goal=   None    Shift=    0.000
 RMSDP=3.70D-05 MaxDP=4.98D-04 DE=-1.84D-05 OVMax= 4.44D-04

 Cycle   3  Pass 1  IDiag  1:
 E= -255.094037256525     Delta-E=       -0.000001153681 Rises=F Damp=F
 DIIS: error= 1.20D-04 at cycle   3 NSaved=   3.
 NSaved= 3 IEnMin= 3 EnMin= -255.094037256525     IErMin= 3 ErrMin= 1.20D-04
 ErrMax= 1.20D-04  0.00D+00 EMaxC= 1.00D-01 BMatC= 1.60D-06 BMatP= 2.02D-06
 IDIUse=3 WtCom= 9.99D-01 WtEn= 1.20D-03
 Coeff-Com: -0.101D+00 0.492D+00 0.609D+00
 Coeff-En:   0.000D+00 0.206D+00 0.794D+00
 Coeff:     -0.101D+00 0.492D+00 0.609D+00
 Gap=     0.390 Goal=   None    Shift=    0.000
 RMSDP=2.09D-05 MaxDP=2.36D-04 DE=-1.15D-06 OVMax= 2.62D-04

 Cycle   4  Pass 1  IDiag  1:
 E= -255.094038435125     Delta-E=       -0.000001178600 Rises=F Damp=F
 DIIS: error= 1.87D-05 at cycle   4 NSaved=   4.
 NSaved= 4 IEnMin= 4 EnMin= -255.094038435125     IErMin= 4 ErrMin= 1.87D-05
 ErrMax= 1.87D-05  0.00D+00 EMaxC= 1.00D-01 BMatC= 1.30D-08 BMatP= 1.60D-06
 IDIUse=1 WtCom= 1.00D+00 WtEn= 0.00D+00
 Coeff-Com:  0.603D-02-0.101D+00-0.438D-01 0.114D+01
 Coeff:      0.603D-02-0.101D+00-0.438D-01 0.114D+01
 Gap=     0.390 Goal=   None    Shift=    0.000
 RMSDP=5.95D-06 MaxDP=8.72D-05 DE=-1.18D-06 OVMax= 1.09D-04

 Cycle   5  Pass 1  IDiag  1:
 E= -255.094038473890     Delta-E=       -0.000000038765 Rises=F Damp=F
 DIIS: error= 4.29D-06 at cycle   5 NSaved=   5.
 NSaved= 5 IEnMin= 5 EnMin= -255.094038473890     IErMin= 5 ErrMin= 4.29D-06
 ErrMax= 4.29D-06  0.00D+00 EMaxC= 1.00D-01 BMatC= 1.59D-09 BMatP= 1.30D-08
 IDIUse=1 WtCom= 1.00D+00 WtEn= 0.00D+00
 Coeff-Com:  0.802D-02-0.585D-01-0.516D-01 0.315D+00 0.787D+00
 Coeff:      0.802D-02-0.585D-01-0.516D-01 0.315D+00 0.787D+00
 Gap=     0.390 Goal=   None    Shift=    0.000
 RMSDP=1.66D-06 MaxDP=2.20D-05 DE=-3.88D-08 OVMax= 2.65D-05

 Cycle   6  Pass 1  IDiag  1:
 E= -255.094038477146     Delta-E=       -0.000000003256 Rises=F Damp=F
 DIIS: error= 1.72D-06 at cycle   6 NSaved=   6.
 NSaved= 6 IEnMin= 6 EnMin= -255.094038477146     IErMin= 6 ErrMin= 1.72D-06
 ErrMax= 1.72D-06  0.00D+00 EMaxC= 1.00D-01 BMatC= 1.64D-10 BMatP= 1.59D-09
 IDIUse=1 WtCom= 1.00D+00 WtEn= 0.00D+00
 Coeff-Com:  0.616D-03 0.360D-02-0.499D-02-0.986D-01 0.139D+00 0.961D+00
 Coeff:      0.616D-03 0.360D-02-0.499D-02-0.986D-01 0.139D+00 0.961D+00
 Gap=     0.390 Goal=   None    Shift=    0.000
 RMSDP=6.98D-07 MaxDP=8.47D-06 DE=-3.26D-09 OVMax= 1.15D-05

 Cycle   7  Pass 1  IDiag  1:
 E= -255.094038477562     Delta-E=       -0.000000000416 Rises=F Damp=F
 DIIS: error= 7.07D-07 at cycle   7 NSaved=   7.
 NSaved= 7 IEnMin= 7 EnMin= -255.094038477562     IErMin= 7 ErrMin= 7.07D-07
 ErrMax= 7.07D-07  0.00D+00 EMaxC= 1.00D-01 BMatC= 3.86D-11 BMatP= 1.64D-10
 IDIUse=1 WtCom= 1.00D+00 WtEn= 0.00D+00
 Coeff-Com: -0.410D-03 0.651D-02 0.197D-02-0.715D-01 0.412D-03 0.440D+00
 Coeff-Com:  0.623D+00
 Coeff:     -0.410D-03 0.651D-02 0.197D-02-0.715D-01 0.412D-03 0.440D+00
 Coeff:      0.623D+00
 Gap=     0.390 Goal=   None    Shift=    0.000
 RMSDP=1.57D-07 MaxDP=1.71D-06 DE=-4.16D-10 OVMax= 3.84D-06

 Cycle   8  Pass 1  IDiag  1:
 E= -255.094038477617     Delta-E=       -0.000000000055 Rises=F Damp=F
 DIIS: error= 1.26D-07 at cycle   8 NSaved=   8.
 NSaved= 8 IEnMin= 8 EnMin= -255.094038477617     IErMin= 8 ErrMin= 1.26D-07
 ErrMax= 1.26D-07  0.00D+00 EMaxC= 1.00D-01 BMatC= 2.07D-12 BMatP= 3.86D-11
 IDIUse=1 WtCom= 1.00D+00 WtEn= 0.00D+00
 Coeff-Com: -0.142D-03 0.621D-03 0.114D-02 0.113D-02-0.202D-01-0.583D-01
 Coeff-Com:  0.134D+00 0.942D+00
 Coeff:     -0.142D-03 0.621D-03 0.114D-02 0.113D-02-0.202D-01-0.583D-01
 Coeff:      0.134D+00 0.942D+00
 Gap=     0.390 Goal=   None    Shift=    0.000
 RMSDP=8.08D-08 MaxDP=1.07D-06 DE=-5.46D-11 OVMax= 1.51D-06

 Cycle   9  Pass 1  IDiag  1:
 E= -255.094038477619     Delta-E=       -0.000000000003 Rises=F Damp=F
 DIIS: error= 3.62D-08 at cycle   9 NSaved=   9.
 NSaved= 9 IEnMin= 9 EnMin= -255.094038477619     IErMin= 9 ErrMin= 3.62D-08
 ErrMax= 3.62D-08  0.00D+00 EMaxC= 1.00D-01 BMatC= 1.53D-13 BMatP= 2.07D-12
 IDIUse=1 WtCom= 1.00D+00 WtEn= 0.00D+00
 Coeff-Com: -0.175D-04-0.230D-03 0.178D-03 0.463D-02-0.504D-02-0.422D-01
 Coeff-Com: -0.103D-01 0.223D+00 0.830D+00
 Coeff:     -0.175D-04-0.230D-03 0.178D-03 0.463D-02-0.504D-02-0.422D-01
 Coeff:     -0.103D-01 0.223D+00 0.830D+00
 Gap=     0.390 Goal=   None    Shift=    0.000
 RMSDP=2.32D-08 MaxDP=3.15D-07 DE=-2.56D-12 OVMax= 4.48D-07

 Cycle  10  Pass 1  IDiag  1:
 E= -255.094038477621     Delta-E=       -0.000000000001 Rises=F Damp=F
 DIIS: error= 1.62D-08 at cycle  10 NSaved=  10.
 NSaved=10 IEnMin=10 EnMin= -255.094038477621     IErMin=10 ErrMin= 1.62D-08
 ErrMax= 1.62D-08  0.00D+00 EMaxC= 1.00D-01 BMatC= 2.58D-14 BMatP= 1.53D-13
 IDIUse=1 WtCom= 1.00D+00 WtEn= 0.00D+00
 Coeff-Com:  0.145D-04-0.166D-03-0.104D-03 0.153D-02 0.973D-03-0.683D-02
 Coeff-Com: -0.208D-01-0.462D-01 0.275D+00 0.796D+00
 Coeff:      0.145D-04-0.166D-03-0.104D-03 0.153D-02 0.973D-03-0.683D-02
 Coeff:     -0.208D-01-0.462D-01 0.275D+00 0.796D+00
 Gap=     0.390 Goal=   None    Shift=    0.000
 RMSDP=9.47D-09 MaxDP=1.16D-07 DE=-1.48D-12 OVMax= 1.96D-07

 SCF Done:  E(RwB97XD) =  -255.094038478     A.U. after   10 cycles
            NFock= 10  Conv=0.95D-08     -V/T= 2.0056
 KE= 2.536641251757D+02 PE=-9.104250162082D+02 EE= 2.452986066090D+02
 Leave Link  502 at Wed May 12 11:56:20 2021, MaxMem=  2147483648 cpu:        54.4
 (Enter /opt/cluster/programs/g09_d.01/g09/l701.exe)
 Compute integral first derivatives.
 ... and contract with generalized density number  0.
 R6Disp: Adding Grimme-D2 dispersion energy 1st derivatives to the gradient.
 Leave Link  701 at Wed May 12 11:56:20 2021, MaxMem=  2147483648 cpu:         0.6
 (Enter /opt/cluster/programs/g09_d.01/g09/l702.exe)
 L702 exits ... SP integral derivatives will be done elsewhere.
 Leave Link  702 at Wed May 12 11:56:20 2021, MaxMem=  2147483648 cpu:         0.2
 (Enter /opt/cluster/programs/g09_d.01/g09/l703.exe)
 Compute integral first derivatives, UseDBF=F ICtDFT=           0.
 Integral derivatives from FoFJK, PRISM(SPDF).
 Calling FoFJK, ICntrl=      2127 FMM=F ISym2X=0 I1Cent= 0 IOpClX= 0 NMat=1 NMatS=1 NMatT=0.
 FoFJK:  IHMeth= 1 ICntrl=    2127 DoSepK=T KAlg= 0 I1Cent=   0 FoldK=F
 IRaf=         1 NMat=   1 IRICut=       1 DoRegI=T DoRafI=F ISym2E= 0.
 FoFCou: FMM=F IPFlag=           0 FMFlag=      100000 FMFlg1=         800
         NFxFlg=           0 DoJE=F BraDBF=F KetDBF=F FulRan=T
         wScrn=  0.000000 ICntrl=    2527 IOpCl=  0 I1Cent=           0 NGrid=           0
         NMat0=    1 NMatS0=      1 NMatT0=    0 NMatD0=    1 NMtDS0=    0 NMtDT0=    0
 Symmetry not used in FoFCou.
 Leave Link  703 at Wed May 12 11:56:20 2021, MaxMem=  2147483648 cpu:         3.3
 (Enter /opt/cluster/programs/g09_d.01/g09/l716.exe)
 Dipole        =-5.88312314D-01 7.13408669D-01 1.53603690D-01
 ***** Axes restored to original set *****
 -------------------------------------------------------------------
 Center     Atomic                   Forces (Hartrees/Bohr)
 Number     Number              X              Y              Z
 -------------------------------------------------------------------
      1        6           0.001261248   -0.001210230   -0.003625561
      2        6          -0.002433726    0.000564876    0.006215766
      3        6           0.000655793    0.004428581   -0.003717393
      4        6           0.000306437   -0.003326499    0.001047005
      5        1          -0.000079704   -0.000051868   -0.000030454
      6        1          -0.000009785   -0.000008496    0.000041166
      7        9           0.000191770   -0.000365241    0.000062843
      8        1           0.000037681    0.000038529    0.000068831
      9        1           0.000006261   -0.000042673   -0.000038052
     10        1           0.000064026   -0.000026979   -0.000024152
 -------------------------------------------------------------------
 Cartesian Forces:  Max     0.006215766 RMS     0.001892066
 Leave Link  716 at Wed May 12 11:56:20 2021, MaxMem=  2147483648 cpu:         0.2
 (Enter /opt/cluster/programs/g09_d.01/g09/l103.exe)

 GradGradGradGradGradGradGradGradGradGradGradGradGradGradGradGradGradGrad
 Berny optimization.
 Using GEDIIS/GDIIS optimizer.
 FormGI is forming the generalized inverse of G from B-inverse, IUseBI=4.
 Internal  Forces:  Max     0.003685632 RMS     0.000942551
 Search for a local minimum.
 Step number   3 out of a maximum of   43
 All quantities printed in internal units (Hartrees-Bohrs-Radians)
 RMS Force = .21517D-03 SwitMx=.10000D-02 MixMth= 2
 Mixed Optimization -- En-DIIS/RFO-DIIS
 Swapping is turned off.
 Update second derivatives using D2CorX and points    1    2    3
 DE= -1.90D-05 DEPred=-1.41D-05 R= 1.34D+00
 TightC=F SS=  1.41D+00  RLast= 1.43D-02 DXNew= 5.0454D-01 4.2781D-02
 Trust test= 1.34D+00 RLast= 1.43D-02 DXMaxT set to 3.00D-01
 ITU=  1  1  0
     Eigenvalues ---    0.01581   0.02087   0.02860   0.02916   0.02983
     Eigenvalues ---    0.03011   0.14273   0.15985   0.16000   0.16084
     Eigenvalues ---    0.16104   0.16597   0.22457   0.25094   0.34007
     Eigenvalues ---    0.34934   0.35244   0.35318   0.35621   0.35631
     Eigenvalues ---    0.38581   0.57928   0.678161000.000001000.00000
     Eigenvalues --- 1000.000001000.000001000.000001000.000001000.00000
     Eigenvalues --- 1000.000001000.000001000.00000
 En-DIIS/RFO-DIIS IScMMF=        0 using points:     3    2
 RFO step:  Lambda=-4.09062654D-06.
[...]
 ***** Axes restored to original set *****
 -------------------------------------------------------------------
 Center     Atomic                   Forces (Hartrees/Bohr)
 Number     Number              X              Y              Z
 -------------------------------------------------------------------
      1        6           0.001197536   -0.000551372   -0.003681951
      2        6          -0.001700343   -0.000715458    0.006465992
      3        6           0.000430275    0.004600045   -0.003953451
      4        6           0.000110476   -0.003425001    0.001220458
      5        1          -0.000011072   -0.000049020    0.000020650
      6        1          -0.000001469   -0.000013812    0.000015274
      7        9          -0.000080049    0.000057184   -0.000032612
      8        1           0.000031612    0.000038428   -0.000006452
      9        1           0.000015099    0.000033936   -0.000029409
     10        1           0.000007935    0.000025069   -0.000018499
 -------------------------------------------------------------------
 Cartesian Forces:  Max     0.006465992 RMS     0.001921237
 Leave Link  716 at Wed May 12 11:56:25 2021, MaxMem=  2147483648 cpu:         0.2
 (Enter /opt/cluster/programs/g09_d.01/g09/l103.exe)

 GradGradGradGradGradGradGradGradGradGradGradGradGradGradGradGradGradGrad
 Berny optimization.
 Using GEDIIS/GDIIS optimizer.
 FormGI is forming the generalized inverse of G from B-inverse, IUseBI=4.
 Internal  Forces:  Max     0.003660281 RMS     0.000912974
 Search for a local minimum.
 Step number   4 out of a maximum of   43
 All quantities printed in internal units (Hartrees-Bohrs-Radians)
 RMS Force = .38970D-04 SwitMx=.10000D-02 MixMth= 2
 Mixed Optimization -- En-DIIS/RFO-DIIS
 Swapping is turned off.
 Update second derivatives using D2CorX and points    1    2    3    4
 DE= -4.24D-06 DEPred=-3.94D-06 R= 1.08D+00
 TightC=F SS=  1.41D+00  RLast= 8.72D-03 DXNew= 5.0454D-01 2.6166D-02
 Trust test= 1.08D+00 RLast= 8.72D-03 DXMaxT set to 3.00D-01
 ITU=  1  1  1  0
     Eigenvalues ---    0.01587   0.02084   0.02869   0.02950   0.03001
     Eigenvalues ---    0.03025   0.13340   0.15986   0.16000   0.16055
     Eigenvalues ---    0.16155   0.16405   0.22203   0.25169   0.34880
     Eigenvalues ---    0.35128   0.35261   0.35337   0.35604   0.35663
     Eigenvalues ---    0.37522   0.58014   0.672511000.000001000.00000
     Eigenvalues --- 1000.000001000.000001000.000001000.000001000.00000
     Eigenvalues --- 1000.000001000.000001000.00000
 En-DIIS/RFO-DIIS IScMMF=        0 using points:     4    3    2
 RFO step:  Lambda=-9.78751264D-07.
 NNeg= 0 NP= 3 Switch=  2.50D-03 Rises=F DC=  1.90D-05 SmlDif=  1.00D-05
 RMS Error=  0.1018054286D-03 NUsed= 3 EDIIS=F
 DidBck=F Rises=F RFO-DIIS coefs:    1.02588   -0.02090   -0.00499
 Iteration  1 RMS(Cart)=  0.00046658 RMS(Int)=  0.00000056
 Iteration  2 RMS(Cart)=  0.00000027 RMS(Int)=  0.00000048
 Iteration  1 RMS(Cart)=  0.00000024 RMS(Int)=  0.00000017
 ITry= 1 IFail=0 DXMaxC= 1.23D-03 DCOld= 1.00D+10 DXMaxT= 3.00D-01 DXLimC= 3.00D+00 Rises=F
 Variable       Old X    -DE/DX   Delta X   Delta X   Delta X     New X
                                 (Linear)    (Quad)   (Total)
    R1        2.50792   0.00002   0.00003   0.00001   0.00005   2.50797
    R2        2.04615   0.00001   0.00001   0.00002   0.00003   2.04618
    R3        2.04553   0.00001   0.00000   0.00002   0.00002   2.04555
    R4        2.78524  -0.00004   0.00006  -0.00011  -0.00005   2.78519
    R5        2.67996   0.00009  -0.00011   0.00018   0.00007   2.68003
    R6        2.52590   0.00004   0.00002   0.00006   0.00008   2.52598
    R7        2.05607   0.00002   0.00000   0.00004   0.00005   2.05612
    R8        2.05224   0.00001   0.00000   0.00002   0.00002   2.05226
    R9        2.05021   0.00001   0.00000   0.00002   0.00003   2.05024
    A1        2.11652   0.00005   0.00001   0.00030   0.00031   2.11683
    A2        2.09288  -0.00001  -0.00001  -0.00008  -0.00009   2.09279
    A3        2.07372  -0.00004   0.00000  -0.00022  -0.00022   2.07350
    A4        2.27207  -0.00007  -0.00014  -0.00047  -0.00062   2.27145
    A5        2.06138   0.00014   0.00008   0.00003   0.00011   2.06149
    A6        1.94588   0.00007   0.00006   0.00044   0.00051   1.94639
    A7        2.15091   0.00006  -0.00003   0.00011   0.00008   2.15099
    A8        2.02249  -0.00003   0.00001   0.00012   0.00013   2.02262
    A9        2.10699   0.00009   0.00002  -0.00024  -0.00023   2.10676
   A10        2.12072   0.00003  -0.00001   0.00018   0.00016   2.12089
   A11        2.11741  -0.00001   0.00002  -0.00006  -0.00005   2.11737
   A12        2.04500  -0.00002   0.00000  -0.00010  -0.00010   2.04490
    D1        3.08689   0.00093   0.00007  -0.00014  -0.00007   3.08682
    D2        0.04843  -0.00094   0.00000  -0.00012  -0.00011   0.04831
    D3       -0.06727   0.00093   0.00008  -0.00005   0.00004  -0.06724
    D4       -3.10574  -0.00094   0.00001  -0.00002  -0.00001  -3.10575
    D5        1.39646  -0.00366   0.00000   0.00000   0.00000   1.39645
    D6       -1.82512  -0.00187   0.00003  -0.00022  -0.00019  -1.82531
    D7       -1.84288  -0.00188   0.00007  -0.00004   0.00003  -1.84285
    D8        1.21873  -0.00010   0.00010  -0.00026  -0.00016   1.21857
    D9       -0.04017   0.00097  -0.00001   0.00129   0.00128  -0.03888
   D10        3.11230   0.00092   0.00003  -0.00068  -0.00064   3.11165
   D11       -3.09804  -0.00089  -0.00004   0.00150   0.00146  -3.09658
   D12        0.05442  -0.00095   0.00000  -0.00047  -0.00046   0.05395
         Item               Value     Threshold  Converged?
 Maximum Force            0.000110     0.000450     YES
 RMS     Force            0.000039     0.000300     YES
 Maximum Displacement     0.001226     0.001800     YES
 RMS     Displacement     0.000467     0.001200     YES
 Predicted change in Energy=-1.664929D-07
 Optimization completed.
    -- Stationary point found.
                           ----------------------------
                           !   Optimized Parameters   !
                           ! (Angstroms and Degrees)  !
 --------------------------                            --------------------------
 ! Name  Definition              Value          Derivative Info.                !
 --------------------------------------------------------------------------------
 ! R1    R(1,2)                  1.3271         -DE/DX =    0.0                 !
 ! R2    R(1,5)                  1.0828         -DE/DX =    0.0                 !
 ! R3    R(1,6)                  1.0824         -DE/DX =    0.0                 !
 ! R4    R(2,3)                  1.4739         -DE/DX =    0.0                 !
 ! R5    R(2,7)                  1.4182         -DE/DX =    0.0001              !
 ! R6    R(3,4)                  1.3366         -DE/DX =    0.0                 !
 ! R7    R(3,8)                  1.088          -DE/DX =    0.0                 !
 ! R8    R(4,9)                  1.086          -DE/DX =    0.0                 !
 ! R9    R(4,10)                 1.0849         -DE/DX =    0.0                 !
 ! A1    A(2,1,5)              121.2676         -DE/DX =    0.0                 !
 ! A2    A(2,1,6)              119.9135         -DE/DX =    0.0                 !
 ! A3    A(5,1,6)              118.8151         -DE/DX =    0.0                 !
 ! A4    A(1,2,3)              130.18           -DE/DX =   -0.0001              !
 ! A5    A(1,2,7)              118.1084         -DE/DX =    0.0001              !
 ! A6    A(3,2,7)              111.4909         -DE/DX =    0.0001              !
 ! A7    A(2,3,4)              123.2379         -DE/DX =    0.0001              !
 ! A8    A(2,3,8)              115.8801         -DE/DX =    0.0                 !
 ! A9    A(4,3,8)              120.7215         -DE/DX =    0.0001              !
 ! A10   A(3,4,9)              121.5085         -DE/DX =    0.0                 !
 ! A11   A(3,4,10)             121.3189         -DE/DX =    0.0                 !
 ! A12   A(9,4,10)             117.1699         -DE/DX =    0.0                 !
 ! D1    D(5,1,2,3)            176.8659         -DE/DX =    0.0009              !
 ! D2    D(5,1,2,7)              2.7746         -DE/DX =   -0.0009              !
 ! D3    D(6,1,2,3)             -3.8544         -DE/DX =    0.0009              !
 ! D4    D(6,1,2,7)           -177.9457         -DE/DX =   -0.0009              !
 ! D5    D(1,2,3,4)             80.011          -DE/DX =   -0.0037              !
 ! D6    D(1,2,3,8)           -104.5715         -DE/DX =   -0.0019              !
 ! D7    D(7,2,3,4)           -105.5892         -DE/DX =   -0.0019              !
 ! D8    D(7,2,3,8)             69.8283         -DE/DX =   -0.0001              !
 ! D9    D(2,3,4,9)             -2.3013         -DE/DX =    0.001               !
 ! D10   D(2,3,4,10)           178.3215         -DE/DX =    0.0009              !
 ! D11   D(8,3,4,9)           -177.5048         -DE/DX =   -0.0009              !
 ! D12   D(8,3,4,10)             3.1179         -DE/DX =   -0.0009              !
 --------------------------------------------------------------------------------
 Lowest energy point so far.  Saving SCF results.
 GradGradGradGradGradGradGradGradGradGradGradGradGradGradGradGradGradGrad

 Largest change from initial coordinates is atom    9       0.018 Angstoms.
 Leave Link  103 at Wed May 12 11:56:25 2021, MaxMem=  2147483648 cpu:         0.2
 (Enter /opt/cluster/programs/g09_d.01/g09/l202.exe)
                          Input orientation:                          
 ---------------------------------------------------------------------
 Center     Atomic      Atomic             Coordinates (Angstroms)
 Number     Number       Type             X           Y           Z
 ---------------------------------------------------------------------
      1          6           0       -1.210951   -1.166741    0.010161
      2          6           0       -0.477508   -0.062317    0.070106
      3          6           0        0.924483    0.126883    0.483589
      4          6           0        1.964968   -0.130783   -0.314926
      5          1           0       -2.255881   -1.132842   -0.271571
      6          1           0       -0.761881   -2.125794    0.234314
      7          9           0       -1.115058    1.177966   -0.187669
      8          1           0        1.074232    0.568381    1.466672
      9          1           0        1.827586   -0.534016   -1.313884
     10          1           0        2.984242    0.045261    0.012412
 ---------------------------------------------------------------------
                    Distance matrix (angstroms):
                    1          2          3          4          5
     1  C    0.000000
     2  C    1.327134   0.000000
     3  C    2.541196   1.473887   0.000000
     4  C    3.356389   2.473585   1.336647   0.000000
     5  H    1.082774   2.103658   3.503126   4.338382   0.000000
     6  H    1.082447   2.089442   2.824980   3.423074   1.863843
     7  F    2.354990   1.418175   2.390625   3.348966   2.578439
     8  H    3.217784   2.180842   1.088025   2.111003   4.123749
     9  H    3.374336   2.729723   2.117378   1.085996   4.256725
    10  H    4.366761   3.463901   2.114539   1.084925   5.378425
                    6          7          8          9         10
     6  H    0.000000
     7  F    3.349273   0.000000
     8  H    3.485484   2.810948   0.000000
     9  H    3.411160   3.585860   3.084529   0.000000
    10  H    4.335453   4.257618   2.456963   1.852694   0.000000
 Stoichiometry    C4H5F
 Framework group  C1[X(C4H5F)]
 Deg. of freedom    24
 Full point group                 C1      NOp   1
 RotChk:  IX=0 Diff= 5.25D-16
 Largest Abelian subgroup         C1      NOp   1
 Largest concise Abelian subgroup C1      NOp   1
                         Standard orientation:                         
 ---------------------------------------------------------------------
 Center     Atomic      Atomic             Coordinates (Angstroms)
 Number     Number       Type             X           Y           Z
 ---------------------------------------------------------------------
      1          6           0        1.210242    1.169213    0.009250
      2          6           0        0.478175    0.064102    0.073215
      3          6           0       -0.925018   -0.124652    0.482806
      4          6           0       -1.962998    0.126691   -0.320966
      5          1           0        2.256223    1.135144   -0.268529
      6          1           0        0.758993    2.128941    0.226017
      7          9           0        1.118427   -1.176778   -0.174805
      8          1           0       -1.077660   -0.560448    1.467987
      9          1           0       -1.822611    0.524109   -1.321834
     10          1           0       -2.983188   -0.048867    0.003774
 ---------------------------------------------------------------------
 Rotational constants (GHZ):      8.7558434      3.9295115      2.9908404
 Leave Link  202 at Wed May 12 11:56:25 2021, MaxMem=  2147483648 cpu:         0.0
 (Enter /opt/cluster/programs/g09_d.01/g09/l601.exe)
 Copying SCF densities to generalized density rwf, IOpCl= 0 IROHF=0.

 **********************************************************************

            Population analysis using the SCF density.

 **********************************************************************

 Orbital symmetries:
       Occupied  (A) (A) (A) (A) (A) (A) (A) (A) (A) (A) (A) (A)
                 (A) (A) (A) (A) (A) (A) (A)
       Virtual   (A) (A) (A) (A) (A) (A) (A) (A) (A) (A) (A) (A)
                 (A) (A) (A) (A) (A) (A) (A) (A) (A) (A) (A) (A)
                 (A) (A) (A) (A) (A) (A) (A) (A) (A) (A) (A) (A)
                 (A) (A) (A) (A) (A) (A) (A) (A) (A) (A) (A) (A)
                 (A) (A) (A) (A) (A) (A) (A) (A)
 The electronic state is 1-A.
 Alpha  occ. eigenvalues --  -24.82783 -10.40116 -10.33079 -10.32126 -10.30898
 Alpha  occ. eigenvalues --   -1.30601  -0.92880  -0.86152  -0.73834  -0.65432
 Alpha  occ. eigenvalues --   -0.60799  -0.57487  -0.56389  -0.52523  -0.50631
 Alpha  occ. eigenvalues --   -0.48487  -0.45078  -0.38122  -0.35099
 Alpha virt. eigenvalues --    0.03871   0.06079   0.07746   0.08433   0.09550
 Alpha virt. eigenvalues --    0.11259   0.11797   0.13273   0.13934   0.14483
 Alpha virt. eigenvalues --    0.16270   0.17589   0.18197   0.18617   0.19617
 Alpha virt. eigenvalues --    0.19685   0.23080   0.24596   0.26731   0.28345
 Alpha virt. eigenvalues --    0.28838   0.31509   0.31886   0.38857   0.41679
 Alpha virt. eigenvalues --    0.42513   0.45501   0.46356   0.48597   0.50297
 Alpha virt. eigenvalues --    0.52623   0.69842   0.72528   0.75921   0.78060
 Alpha virt. eigenvalues --    0.80706   0.82380   0.84974   0.90497   0.92609
 Alpha virt. eigenvalues --    0.94452   1.01297   1.04881   1.06966   1.12987
 Alpha virt. eigenvalues --    1.13424   1.16058   1.22096   1.23406   1.32274
 Alpha virt. eigenvalues --    1.39637   1.48798   1.67700   1.82058   1.86096
 Alpha virt. eigenvalues --    2.36227
          Condensed to atoms (all electrons):
               1          2          3          4          5          6
     1  C    5.979387   0.183555  -0.249766  -0.044336   0.393254   0.320687
     2  C    0.183555   5.320798   0.255866  -0.012492  -0.057566   0.001197
     3  C   -0.249766   0.255866   5.332549   0.560170   0.010771   0.009109
     4  C   -0.044336  -0.012492   0.560170   5.116980   0.003177   0.008962
     5  H    0.393254  -0.057566   0.010771   0.003177   0.456264  -0.019784
     6  H    0.320687   0.001197   0.009109   0.008962  -0.019784   0.463544
     7  F   -0.185186   0.294808  -0.114329  -0.031869  -0.002835   0.004161
     8  H    0.017406  -0.043956   0.320737   0.014087  -0.000071   0.000172
     9  H    0.007643   0.002749  -0.055264   0.388867  -0.000019   0.000035
    10  H    0.003326   0.008485  -0.039109   0.376671   0.000002  -0.000015
               7          8          9         10
     1  C   -0.185186   0.017406   0.007643   0.003326
     2  C    0.294808  -0.043956   0.002749   0.008485
     3  C   -0.114329   0.320737  -0.055264  -0.039109
     4  C   -0.031869   0.014087   0.388867   0.376671
     5  H   -0.002835  -0.000071  -0.000019   0.000002
     6  H    0.004161   0.000172   0.000035  -0.000015
     7  F    9.306876   0.001881   0.000393  -0.000261
     8  H    0.001881   0.461974   0.002615  -0.003229
     9  H    0.000393   0.002615   0.468016  -0.023247
    10  H   -0.000261  -0.003229  -0.023247   0.478713
 Mulliken charges:
               1
     1  C   -0.425970
     2  C    0.046556
     3  C   -0.030732
     4  C   -0.380215
     5  H    0.216807
     6  H    0.211932
     7  F   -0.273639
     8  H    0.228385
     9  H    0.208213
    10  H    0.198663
 Sum of Mulliken charges =   0.00000
 Mulliken charges with hydrogens summed into heavy atoms:
               1
     1  C    0.002769
     2  C    0.046556
     3  C    0.197653
     4  C    0.026661
     7  F   -0.273639
 Electronic spatial extent (au):  <R**2>=            430.9918
 Charge=              0.0000 electrons
 Dipole moment (field-independent basis, Debye):
    X=             -1.4947    Y=              1.8064    Z=              0.3893  Tot=              2.3767
 Quadrupole moment (field-independent basis, Debye-Ang):
   XX=            -26.9758   YY=            -31.5951   ZZ=            -29.4569
   XY=              2.9023   XZ=             -0.0442   YZ=             -1.4117
 Traceless Quadrupole moment (field-independent basis, Debye-Ang):
   XX=              2.3668   YY=             -2.2525   ZZ=             -0.1143
   XY=              2.9023   XZ=             -0.0442   YZ=             -1.4117
 Octapole moment (field-independent basis, Debye-Ang**2):
  XXX=              1.9162  YYY=             -2.0588  ZZZ=             -0.7617  XYY=              3.5091
  XXY=              0.7047  XXZ=             -2.1233  XZZ=             -0.6533  YZZ=             -4.5980
  YYZ=              0.8113  XYZ=              1.1014
 Hexadecapole moment (field-independent basis, Debye-Ang**3):
 XXXX=           -310.7047 YYYY=           -141.1160 ZZZZ=            -57.1669 XXXY=              0.9611
 XXXZ=             -4.8357 YYYX=             -3.8199 YYYZ=              2.2083 ZZZX=             -1.4518
 ZZZY=             -2.0695 XXYY=            -88.2048 XXZZ=            -68.4668 YYZZ=            -35.9627
 XXYZ=             -4.6386 YYXZ=             -0.2473 ZZXY=             -4.3289
 N-N= 1.563672343211D+02 E-N=-9.104180669602D+02  KE= 2.536620153957D+02
 No NMR shielding tensors so no spin-rotation constants.
 Leave Link  601 at Wed May 12 11:56:25 2021, MaxMem=  2147483648 cpu:         0.6
 (Enter /opt/cluster/programs/g09_d.01/g09/l9999.exe)
 1\1\GINC-NODE11\FOpt\RwB97XD\6-31+G\C4H5F1\BOITTIER\12-May-2021\0\\#p 
 wB97XD/6-31+G Opt=ModRedun\\B.pdb\\0,1\C,-1.2109511184,-1.1667406259,0
 .0101611181\C,-0.4775076548,-0.062316913,0.0701061551\C,0.9244832264,0
 .1268830292,0.4835886825\C,1.9649675353,-0.13078333,-0.3149261862\H,-2
 .2558805559,-1.1328423023,-0.2715712985\H,-0.7618806115,-2.1257939344,
 0.2343142371\F,-1.1150577473,1.1779656577,-0.1876689206\H,1.0742318749
 ,0.5683813576,1.4666724927\H,1.8275858687,-0.5340164506,-1.3138840223\
 H,2.9842421828,0.0452605118,0.012411742\\Version=ES64L-G09RevD.01\Stat
 e=1-A\HF=-255.0940427\RMSD=6.520e-09\RMSF=1.921e-03\Dipole=0.5864772,-
 0.7105995,0.1595265\Quadrupole=1.7656708,-1.668156,-0.0975148,2.149234
 6,0.0280904,1.066726\PG=C01 [X(C4H5F1)]\\@


 REFRAIN FROM ILLUSIONS, INSIST ON WORK AND NOT WORDS,
 PATIENTLY SEEK DIVINE AND SCIENTIFIC TRUTH.
 LAST WORDS OF MARIA MENDELEEVA TO HER SON DMITRI, C. 1850
 Job cpu time:       0 days  0 hours  2 minutes  3.3 seconds.
 File lengths (MBytes):  RWF=      5 Int=      0 D2E=      0 Chk=      2 Scr=      1
 Normal termination of Gaussian 09 at Wed May 12 11:56:25 2021.
