B.pdb                                                                   
FOpt      RwB97XD                                                     6-31+G              
Number of atoms                            I               10
Info1-9                                    I   N=           9
          21          21           0           0           0         110
           2          18        -802
Charge                                     I                0
Multiplicity                               I                1
Number of electrons                        I               38
Number of alpha electrons                  I               19
Number of beta electrons                   I               19
Number of basis functions                  I               75
Number of independent functions            I               75
Number of point charges in /Mol/           I                0
Number of translation vectors              I                0
Atomic numbers                             I   N=          10
           6           6           6           6           1           1
           9           1           1           1
Nuclear charges                            R   N=          10
  6.00000000E+00  6.00000000E+00  6.00000000E+00  6.00000000E+00  1.00000000E+00
  1.00000000E+00  9.00000000E+00  1.00000000E+00  1.00000000E+00  1.00000000E+00
Current cartesian coordinates              R   N=          30
  2.28702553E+00  2.20949240E+00  1.74808195E-02  9.03619497E-01  1.21134710E-01
  1.38356625E-01 -1.74803078E+00 -2.35557811E-01  9.12371149E-01 -3.70952924E+00
  2.39410660E-01 -6.06537812E-01  4.26364432E+00  2.14511198E+00 -5.07446790E-01
  1.43428814E+00  4.02311605E+00  4.27111145E-01  2.11352038E+00 -2.22378791E+00
 -3.30334250E-01 -2.03648288E+00 -1.05909311E+00  2.77409314E+00 -3.44423564E+00
  9.90422112E-01 -2.49790507E+00 -5.63740741E+00 -9.23455662E-02  7.13114451E-03
Force Field                                I                0
Int Atom Types                             I   N=          10
           0           0           0           0           0           0
           0           0           0           0
MM charges                                 R   N=          10
  0.00000000E+00  0.00000000E+00  0.00000000E+00  0.00000000E+00  0.00000000E+00
  0.00000000E+00  0.00000000E+00  0.00000000E+00  0.00000000E+00  0.00000000E+00
Integer atomic weights                     I   N=          10
          12          12          12          12           1           1
          19           1           1           1
Real atomic weights                        R   N=          10
  1.20000000E+01  1.20000000E+01  1.20000000E+01  1.20000000E+01  1.00782504E+00
  1.00782504E+00  1.89984032E+01  1.00782504E+00  1.00782504E+00  1.00782504E+00
Atom fragment info                         I   N=          10
           0           0           0           0           0           0
           0           0           0           0
Atom residue num                           I   N=          10
           0           0           0           0           0           0
           0           0           0           0
Nuclear spins                              I   N=          10
           0           0           0           0           1           1
           1           1           1           1
Nuclear ZEff                               R   N=          10
 -3.60000000E+00 -3.60000000E+00 -3.60000000E+00 -3.60000000E+00 -1.00000000E+00
 -1.00000000E+00 -6.75000000E+00 -1.00000000E+00 -1.00000000E+00 -1.00000000E+00
Nuclear ZNuc                               R   N=          10
  6.00000000E+00  6.00000000E+00  6.00000000E+00  6.00000000E+00  1.00000000E+00
  1.00000000E+00  9.00000000E+00  1.00000000E+00  1.00000000E+00  1.00000000E+00
Nuclear QMom                               R   N=          10
  0.00000000E+00  0.00000000E+00  0.00000000E+00  0.00000000E+00  0.00000000E+00
  0.00000000E+00  0.00000000E+00  0.00000000E+00  0.00000000E+00  0.00000000E+00
Nuclear GFac                               R   N=          10
  0.00000000E+00  0.00000000E+00  0.00000000E+00  0.00000000E+00  2.79284600E+00
  2.79284600E+00  2.62886700E+00  2.79284600E+00  2.79284600E+00  2.79284600E+00
MicOpt                                     I   N=          10
          -1          -1          -1          -1          -1          -1
          -1          -1          -1          -1
Number of contracted shells                I               30
Number of primitive shells                 I               75
Pure/Cartesian d shells                    I                1
Pure/Cartesian f shells                    I                0
Highest angular momentum                   I                1
Largest degree of contraction              I                6
Shell types                                I   N=          30
           0          -1          -1          -1           0          -1
          -1          -1           0          -1          -1          -1
           0          -1          -1          -1           0           0
           0           0           0          -1          -1          -1
           0           0           0           0           0           0
Number of primitives per shell             I   N=          30
           6           3           1           1           6           3
           1           1           6           3           1           1
           6           3           1           1           3           1
           3           1           6           3           1           1
           3           1           3           1           3           1
Shell to atom map                          I   N=          30
           1           1           1           1           2           2
           2           2           3           3           3           3
           4           4           4           4           5           5
           6           6           7           7           7           7
           8           8           9           9          10          10
Primitive exponents                        R   N=          75
  3.04752488E+03  4.57369518E+02  1.03948685E+02  2.92101553E+01  9.28666296E+00
  3.16392696E+00  7.86827235E+00  1.88128854E+00  5.44249258E-01  1.68714478E-01
  4.38000000E-02  3.04752488E+03  4.57369518E+02  1.03948685E+02  2.92101553E+01
  9.28666296E+00  3.16392696E+00  7.86827235E+00  1.88128854E+00  5.44249258E-01
  1.68714478E-01  4.38000000E-02  3.04752488E+03  4.57369518E+02  1.03948685E+02
  2.92101553E+01  9.28666296E+00  3.16392696E+00  7.86827235E+00  1.88128854E+00
  5.44249258E-01  1.68714478E-01  4.38000000E-02  3.04752488E+03  4.57369518E+02
  1.03948685E+02  2.92101553E+01  9.28666296E+00  3.16392696E+00  7.86827235E+00
  1.88128854E+00  5.44249258E-01  1.68714478E-01  4.38000000E-02  1.87311370E+01
  2.82539436E+00  6.40121692E-01  1.61277759E-01  1.87311370E+01  2.82539436E+00
  6.40121692E-01  1.61277759E-01  7.00171309E+03  1.05136609E+03  2.39285690E+02
  6.73974453E+01  2.15199573E+01  7.40310130E+00  2.08479528E+01  4.80830834E+00
  1.34406986E+00  3.58151393E-01  1.07600000E-01  1.87311370E+01  2.82539436E+00
  6.40121692E-01  1.61277759E-01  1.87311370E+01  2.82539436E+00  6.40121692E-01
  1.61277759E-01  1.87311370E+01  2.82539436E+00  6.40121692E-01  1.61277759E-01
Contraction coefficients                   R   N=          75
  1.83473713E-03  1.40373228E-02  6.88426223E-02  2.32184443E-01  4.67941348E-01
  3.62311985E-01 -1.19332420E-01 -1.60854152E-01  1.14345644E+00  1.00000000E+00
  1.00000000E+00  1.83473713E-03  1.40373228E-02  6.88426223E-02  2.32184443E-01
  4.67941348E-01  3.62311985E-01 -1.19332420E-01 -1.60854152E-01  1.14345644E+00
  1.00000000E+00  1.00000000E+00  1.83473713E-03  1.40373228E-02  6.88426223E-02
  2.32184443E-01  4.67941348E-01  3.62311985E-01 -1.19332420E-01 -1.60854152E-01
  1.14345644E+00  1.00000000E+00  1.00000000E+00  1.83473713E-03  1.40373228E-02
  6.88426223E-02  2.32184443E-01  4.67941348E-01  3.62311985E-01 -1.19332420E-01
 -1.60854152E-01  1.14345644E+00  1.00000000E+00  1.00000000E+00  3.34946043E-02
  2.34726953E-01  8.13757326E-01  1.00000000E+00  3.34946043E-02  2.34726953E-01
  8.13757326E-01  1.00000000E+00  1.81961690E-03  1.39160796E-02  6.84053245E-02
  2.33185760E-01  4.71267439E-01  3.56618546E-01 -1.08506975E-01 -1.46451658E-01
  1.12868858E+00  1.00000000E+00  1.00000000E+00  3.34946043E-02  2.34726953E-01
  8.13757326E-01  1.00000000E+00  3.34946043E-02  2.34726953E-01  8.13757326E-01
  1.00000000E+00  3.34946043E-02  2.34726953E-01  8.13757326E-01  1.00000000E+00
P(S=P) Contraction coefficients            R   N=          75
  0.00000000E+00  0.00000000E+00  0.00000000E+00  0.00000000E+00  0.00000000E+00
  0.00000000E+00  6.89990666E-02  3.16423961E-01  7.44308291E-01  1.00000000E+00
  1.00000000E+00  0.00000000E+00  0.00000000E+00  0.00000000E+00  0.00000000E+00
  0.00000000E+00  0.00000000E+00  6.89990666E-02  3.16423961E-01  7.44308291E-01
  1.00000000E+00  1.00000000E+00  0.00000000E+00  0.00000000E+00  0.00000000E+00
  0.00000000E+00  0.00000000E+00  0.00000000E+00  6.89990666E-02  3.16423961E-01
  7.44308291E-01  1.00000000E+00  1.00000000E+00  0.00000000E+00  0.00000000E+00
  0.00000000E+00  0.00000000E+00  0.00000000E+00  0.00000000E+00  6.89990666E-02
  3.16423961E-01  7.44308291E-01  1.00000000E+00  1.00000000E+00  0.00000000E+00
  0.00000000E+00  0.00000000E+00  0.00000000E+00  0.00000000E+00  0.00000000E+00
  0.00000000E+00  0.00000000E+00  0.00000000E+00  0.00000000E+00  0.00000000E+00
  0.00000000E+00  0.00000000E+00  0.00000000E+00  7.16287242E-02  3.45912103E-01
  7.22469956E-01  1.00000000E+00  1.00000000E+00  0.00000000E+00  0.00000000E+00
  0.00000000E+00  0.00000000E+00  0.00000000E+00  0.00000000E+00  0.00000000E+00
  0.00000000E+00  0.00000000E+00  0.00000000E+00  0.00000000E+00  0.00000000E+00
Coordinates of each shell                  R   N=          90
  2.28702553E+00  2.20949240E+00  1.74808195E-02  2.28702553E+00  2.20949240E+00
  1.74808195E-02  2.28702553E+00  2.20949240E+00  1.74808195E-02  2.28702553E+00
  2.20949240E+00  1.74808195E-02  9.03619497E-01  1.21134710E-01  1.38356625E-01
  9.03619497E-01  1.21134710E-01  1.38356625E-01  9.03619497E-01  1.21134710E-01
  1.38356625E-01  9.03619497E-01  1.21134710E-01  1.38356625E-01 -1.74803078E+00
 -2.35557811E-01  9.12371149E-01 -1.74803078E+00 -2.35557811E-01  9.12371149E-01
 -1.74803078E+00 -2.35557811E-01  9.12371149E-01 -1.74803078E+00 -2.35557811E-01
  9.12371149E-01 -3.70952924E+00  2.39410660E-01 -6.06537812E-01 -3.70952924E+00
  2.39410660E-01 -6.06537812E-01 -3.70952924E+00  2.39410660E-01 -6.06537812E-01
 -3.70952924E+00  2.39410660E-01 -6.06537812E-01  4.26364432E+00  2.14511198E+00
 -5.07446790E-01  4.26364432E+00  2.14511198E+00 -5.07446790E-01  1.43428814E+00
  4.02311605E+00  4.27111145E-01  1.43428814E+00  4.02311605E+00  4.27111145E-01
  2.11352038E+00 -2.22378791E+00 -3.30334250E-01  2.11352038E+00 -2.22378791E+00
 -3.30334250E-01  2.11352038E+00 -2.22378791E+00 -3.30334250E-01  2.11352038E+00
 -2.22378791E+00 -3.30334250E-01 -2.03648288E+00 -1.05909311E+00  2.77409314E+00
 -2.03648288E+00 -1.05909311E+00  2.77409314E+00 -3.44423564E+00  9.90422112E-01
 -2.49790507E+00 -3.44423564E+00  9.90422112E-01 -2.49790507E+00 -5.63740741E+00
 -9.23455662E-02  7.13114451E-03 -5.63740741E+00 -9.23455662E-02  7.13114451E-03
Constraint Structure                       R   N=          30
  2.30674534E+00  2.21422438E+00  2.04294811E-02  8.98939182E-01  1.32707963E-01
  1.31724902E-01 -1.75028865E+00 -2.36289575E-01  9.03309530E-01 -3.73578802E+00
  2.45015989E-01 -5.97110342E-01  4.28634307E+00  2.13446294E+00 -4.96947298E-01
  1.47684932E+00  4.04064841E+00  4.27410350E-01  2.12308124E+00 -2.23620918E+00
 -3.31163515E-01 -2.03002475E+00 -1.09486209E+00  2.75389944E+00 -3.50114266E+00
  1.01861130E+00 -2.48447621E+00 -5.65740326E+00 -1.06930504E-01  3.04639269E-02
Num ILSW                                   I              100
ILSW                                       I   N=         100
           0           1           0           0           2           0
           0           0           0           0        4639          -1
           0           0           0           0           2           0
           0           0           0           0           1           0
           1           0           0           0           0           0
           0           0      100000           0          -1           0
           0           0           0           0           0           0
           0           0           0           1           0           0
           0           0           1           0           0           0
           0           0         121          41           0           0
           0           0          58           0           0           0
           0           0           0          10           0           0
           0           0           0           0           0           0
           0           0           0           0           0           0
           0           0           0           0           0           0
           0           0           0           0           0           0
           0           0           0           0
Num RLSW                                   I               41
RLSW                                       R   N=          41
  1.00000000E+00  1.00000000E+00  1.00000000E+00  1.00000000E+00  1.00000000E+00
  0.00000000E+00  2.00000000E-01  2.22036000E-01  0.00000000E+00  7.77964000E-01
  0.00000000E+00  2.00000000E-01  0.00000000E+00  0.00000000E+00  1.00000000E+00
  0.00000000E+00  0.00000000E+00  1.00000000E+00  0.00000000E+00  0.00000000E+00
  0.00000000E+00  0.00000000E+00  1.00000000E+00  0.00000000E+00  0.00000000E+00
  0.00000000E+00  0.00000000E+00  1.00000000E+00  0.00000000E+00  0.00000000E+00
  0.00000000E+00  0.00000000E+00  1.00000000E+00  0.00000000E+00  0.00000000E+00
  0.00000000E+00  0.00000000E+00  0.00000000E+00  1.00000000E+00  1.00000000E+00
  0.00000000E+00
MxBond                                     I                3
NBond                                      I   N=          10
           3           3           3           3           1           1
           1           1           1           1
IBond                                      I   N=          30
           2           5           6           1           3           7
           2           4           8           3           9          10
           1           0           0           1           0           0
           2           0           0           3           0           0
           4           0           0           4           0           0
RBond                                      R   N=          30
  2.00000000E+00  1.00000000E+00  1.00000000E+00  2.00000000E+00  1.00000000E+00
  1.00000000E+00  1.00000000E+00  2.00000000E+00  1.00000000E+00  2.00000000E+00
  1.00000000E+00  1.00000000E+00  1.00000000E+00  0.00000000E+00  0.00000000E+00
  1.00000000E+00  0.00000000E+00  0.00000000E+00  1.00000000E+00  0.00000000E+00
  0.00000000E+00  1.00000000E+00  0.00000000E+00  0.00000000E+00  1.00000000E+00
  0.00000000E+00  0.00000000E+00  1.00000000E+00  0.00000000E+00  0.00000000E+00
Virial Ratio                               R      2.005645414897872E+00
SCF Energy                                 R     -2.550940427164166E+02
Total Energy                               R     -2.550940427164166E+02
RMS Force                                  R      1.921237151172106E-03
RMS Density                                R      6.519936022651974E-09
External E-field                           R   N=          35
  0.00000000E+00  0.00000000E+00  0.00000000E+00  0.00000000E+00  0.00000000E+00
  0.00000000E+00  0.00000000E+00  0.00000000E+00  0.00000000E+00  0.00000000E+00
  0.00000000E+00  0.00000000E+00  0.00000000E+00  0.00000000E+00  0.00000000E+00
  0.00000000E+00  0.00000000E+00  0.00000000E+00  0.00000000E+00  0.00000000E+00
  0.00000000E+00  0.00000000E+00  0.00000000E+00  0.00000000E+00  0.00000000E+00
  0.00000000E+00  0.00000000E+00  0.00000000E+00  0.00000000E+00  0.00000000E+00
  0.00000000E+00  0.00000000E+00  0.00000000E+00  0.00000000E+00  0.00000000E+00
IOpCl                                      I                0
IROHF                                      I                0
Alpha Orbital Energies                     R   N=          75
 -2.48278312E+01 -1.04011647E+01 -1.03307940E+01 -1.03212596E+01 -1.03089837E+01
 -1.30601433E+00 -9.28803202E-01 -8.61516507E-01 -7.38342868E-01 -6.54321802E-01
 -6.07994495E-01 -5.74871251E-01 -5.63891827E-01 -5.25226221E-01 -5.06310282E-01
 -4.84870345E-01 -4.50779152E-01 -3.81217452E-01 -3.50991731E-01  3.87082791E-02
  6.07851226E-02  7.74618758E-02  8.43252957E-02  9.55027065E-02  1.12593215E-01
  1.17965022E-01  1.32732781E-01  1.39336094E-01  1.44829182E-01  1.62701063E-01
  1.75893726E-01  1.81966753E-01  1.86174625E-01  1.96172462E-01  1.96845385E-01
  2.30796141E-01  2.45958994E-01  2.67313377E-01  2.83452819E-01  2.88376199E-01
  3.15086379E-01  3.18861837E-01  3.88570018E-01  4.16789894E-01  4.25129644E-01
  4.55011474E-01  4.63564447E-01  4.85968320E-01  5.02974478E-01  5.26234499E-01
  6.98423472E-01  7.25280799E-01  7.59205516E-01  7.80596270E-01  8.07055168E-01
  8.23797440E-01  8.49741915E-01  9.04966182E-01  9.26087215E-01  9.44522001E-01
  1.01296961E+00  1.04880888E+00  1.06965715E+00  1.12986974E+00  1.13424435E+00
  1.16057712E+00  1.22095878E+00  1.23406455E+00  1.32273928E+00  1.39636582E+00
  1.48797501E+00  1.67700260E+00  1.82058206E+00  1.86096281E+00  2.36226921E+00
Alpha MO coefficients                      R   N=        5625
  6.85081588E-06 -1.21331299E-04  1.44226273E-04  3.92870816E-05 -3.15072381E-05
  4.08652727E-04 -2.40808990E-03  1.68742535E-03  7.01993700E-04  1.48688744E-02
 -2.14321891E-03 -3.30551295E-03  5.98685076E-04 -2.72786387E-05  3.27468833E-04
  2.33859529E-04 -5.45279140E-04 -1.02876029E-04  2.49628307E-04  2.33814902E-03
 -2.28948603E-03 -6.31106195E-04 -2.89862063E-02 -1.17669447E-05 -2.65852094E-04
 -1.55914750E-03 -7.95995490E-06 -2.59128467E-04 -5.51287336E-05  4.60548808E-06
  5.43716154E-05  1.57368193E-03  2.62902444E-04  1.32520778E-03 -5.83373648E-04
 -9.04617533E-03  7.25964211E-03 -1.46295031E-03  3.65801189E-03 -1.38009978E-06
  1.77124602E-05 -3.64379562E-05 -2.22412408E-05 -7.60099781E-05 -5.83350432E-04
 -7.23286269E-05 -2.85955800E-04  2.09962353E-04  1.93808354E-02  3.69532681E-03
 -1.00284124E-03  2.59671379E-03  3.22409073E-04  9.15575491E-04 -2.68136124E-04
 -1.50760609E-03  9.95026809E-01  2.75939178E-02 -5.68001715E-04  1.10853137E-03
  2.32348324E-04 -1.53357792E-02  9.04111578E-04 -1.81260114E-03 -3.77105693E-04
  9.43079667E-03 -8.25326059E-04  1.10877567E-03  3.01128572E-04  7.86852070E-05
  6.10510810E-04  3.15426125E-05  3.85924469E-04  1.62124720E-05 -9.89242800E-05
  4.82667871E-03 -1.16834907E-03  5.87181023E-04  6.80815050E-04 -6.77231932E-05
  8.64478457E-03 -3.51613005E-03 -2.32342925E-03  7.51250540E-04 -1.89880417E-02
  3.29389653E-03  4.23757539E-03 -1.02195677E-03  9.95504643E-01  3.63886864E-02
  5.68750049E-04 -9.51609245E-04 -1.01714141E-04 -3.57491713E-02  1.89652726E-04
 -4.39262551E-04 -7.18012436E-04  5.07956997E-02 -6.35501464E-03  3.04032699E-03
  4.43794832E-03  2.03166610E-03 -1.95206985E-04 -5.21603022E-04 -9.31927951E-05
  1.03159154E-04  3.47063977E-03  4.43354559E-03  7.76638925E-04  6.63092758E-05
 -1.76310000E-03 -1.51838851E-02  6.22455156E-04 -3.86625825E-03 -1.61723945E-04
 -6.54489249E-04 -1.76926809E-04 -5.99960970E-06  2.30485974E-05  2.46408540E-03
  1.47260636E-03 -3.10974006E-04  5.42520527E-04 -2.90354516E-02 -5.23662809E-03
  1.41676179E-03 -4.27796462E-03 -3.93853599E-05  4.76823800E-04 -2.75598744E-04
 -1.30034444E-03  3.86963267E-05  6.46238198E-04 -1.12759357E-05  8.93032833E-05
 -5.87528644E-06 -6.05198777E-04  2.52545438E-04 -7.79557046E-04 -2.54716107E-05
  6.51636209E-03 -1.78733790E-03  4.39809007E-03  6.80319847E-04 -1.81760136E-04
  2.28369792E-04 -3.00298068E-04  4.14668038E-04 -5.08314231E-05  1.03836695E-03
 -5.56765881E-04 -5.28299440E-04  1.52951790E-04  3.92678226E-06 -5.98076783E-05
  2.15248572E-03  4.27865348E-04 -1.24287737E-03 -4.97198299E-05 -3.25521330E-02
  4.25953110E-03  6.27603501E-03 -1.24960444E-03 -1.89950304E-03 -2.58108811E-04
  6.42844130E-04  1.34026786E-04 -2.38291287E-04  4.26915648E-03 -6.86148159E-03
  1.52200553E-04  1.38495478E-03  2.80173707E-03  1.36758403E-02  9.94311249E-03
  5.67649405E-04  9.94412153E-01  3.64846302E-02  2.38684350E-04  9.78459493E-05
 -4.92240628E-04 -3.58527547E-02 -1.89278378E-03 -1.67335172E-03  4.58445920E-03
  7.75418964E-02 -1.74873666E-03  3.78990102E-03 -1.46300548E-02  4.46899069E-02
  2.90790314E-04 -7.09797859E-04  1.81993594E-04 -5.43735678E-04  8.37662980E-03
  4.74160321E-03 -3.52216309E-04  1.37271315E-03 -4.58229422E-02 -9.19973373E-03
  1.72920522E-03 -5.64887801E-03 -1.29773604E-04 -5.90477805E-05 -7.73684924E-05
  2.94541627E-04 -3.41118373E-06 -2.21715762E-04  1.13116008E-04 -1.57606328E-04
 -5.00263373E-05  2.67548312E-04 -1.76055637E-04  8.41977450E-04  1.86215408E-04
  2.39736849E-03 -6.48854545E-04  5.93144577E-04  9.07685421E-05 -6.17499936E-04
  2.53548745E-03 -3.52286958E-04 -8.92190707E-04 -1.24629735E-04  1.13511364E-03
 -2.44385171E-04 -6.79965112E-05 -1.47160548E-04 -8.57063351E-06  5.29372059E-05
  2.71831782E-04  1.71420281E-03 -6.18318619E-05 -5.47259233E-04 -2.77646312E-02
  3.81011416E-03  5.26869550E-03 -6.80574776E-04  1.21469024E-04 -6.33727947E-04
  1.91036288E-04 -1.56930404E-05 -4.44465202E-06  2.75355293E-03 -1.16426091E-03
 -6.44746873E-06  8.28989765E-04 -8.14910934E-03  1.37363363E-02  9.02028755E-03
 -1.52957646E-03 -4.49320982E-02 -2.79316130E-03  8.56482634E-04 -2.39927752E-04
  8.09626228E-04  9.38149368E-03 -5.71567930E-03  1.01305895E-03 -3.79433722E-03
  1.78703378E-02  1.45723661E-02  4.57744024E-05 -3.33263967E-03  9.94335160E-01
  3.54915194E-02  4.56022786E-04 -5.77877701E-05  3.35526952E-04 -3.19252378E-02
 -3.72397810E-03  8.73436108E-04 -2.81503813E-03  1.99915539E-02  4.42706733E-03
 -1.37715986E-03  5.20284360E-03 -1.49176187E-04 -8.94294671E-04  1.08479506E-04
  5.59421711E-04 -4.81605082E-08  3.22051599E-05 -6.24512747E-05  1.40598479E-05
 -1.23674830E-05  3.23160971E-05  2.72713004E-04 -6.53187110E-05  2.30489316E-05
 -5.01261566E-04  3.55965507E-04 -2.56702656E-04 -2.32391495E-04  2.51137840E-05
 -3.47000520E-04 -5.89240158E-04  3.57934448E-03 -7.04608529E-04  4.06509690E-03
  9.95299300E-01  3.57056743E-02 -5.20118093E-04 -5.59722683E-04  2.64450146E-05
 -3.27001046E-02  3.33949872E-03  4.14167207E-03 -3.77004635E-04  1.61912312E-02
 -1.37026862E-03 -5.88855203E-03 -5.85997171E-04 -5.11360330E-03 -1.52749389E-03
 -7.09534658E-04 -1.06580710E-03  8.56868151E-05  9.49610724E-03  4.47859571E-03
  6.22028702E-03 -2.96928556E-04  2.71196837E-02 -1.58844003E-02 -1.90018742E-03
  5.61806562E-03  4.57267322E-04 -4.51679426E-04 -1.20806992E-04 -1.15218434E-04
  1.12932627E-04  2.66185345E-03  4.93816051E-04 -1.08214535E-04 -1.71189214E-03
 -1.50726539E-02 -1.64709611E-02 -9.98288117E-04 -2.82928883E-03  2.73331323E-04
 -3.38435790E-05  1.30695494E-04  1.51111212E-05 -2.55289772E-05 -6.07096181E-04
 -2.05332098E-03 -5.01862134E-05  1.37957095E-04 -2.61135852E-02 -4.99526677E-03
  1.35662593E-03 -3.46290427E-03 -7.25231127E-04  3.81894524E-03 -5.69373892E-04
  3.83164692E-03 -2.94749365E-06 -1.81748106E-04  4.05428202E-05 -1.06333521E-04
 -2.09748454E-05  3.10793807E-04 -3.79353036E-04  2.17595529E-04  1.02707196E-04
 -4.05530082E-04  2.72668217E-04 -3.10308503E-04 -7.71548140E-05  3.46867647E-05
  5.43954751E-04  1.33289706E-04  1.58832751E-04 -1.33956512E-04 -8.79678503E-04
 -9.87133002E-03  1.92960469E-02 -5.57160768E-03 -1.58711938E-02 -9.98933871E-05
  3.39169379E-04  2.80929894E-02 -1.78456867E-02 -8.32564672E-03 -1.14920997E-01
  2.15413795E-02  2.23724546E-02 -4.20817517E-03 -5.87382707E-02  1.14876260E-01
  4.38678294E-02 -8.23835568E-02 -1.58902191E-02  3.36630620E-02 -3.19987553E-02
  3.46678592E-02  1.01899266E-02  2.10250957E-01 -7.66070951E-03  1.26396564E-02
  8.35594625E-03 -8.79530125E-03  1.73070981E-02  1.32421646E-02 -2.99762346E-03
 -4.48563738E-03 -7.35138435E-03 -4.61072359E-03 -1.55138290E-02  3.62824334E-03
 -2.49694894E-02 -3.21950234E-02  3.89060800E-03 -6.37197777E-03 -1.27504972E-03
  2.96719858E-03  2.34889709E-03 -2.73935367E-04  1.02031638E-03  3.85931538E-03
 -1.81379257E-03  2.62800855E-03 -1.00670215E-03 -5.23043015E-02 -1.00876000E-02
  2.81223293E-03 -7.19500639E-03  8.60324818E-04 -1.21057538E-02  3.35627160E-03
  1.63719307E-02 -2.25813060E-01  4.79211267E-01 -4.37946602E-02  8.49347898E-02
  1.76611220E-02  5.43778998E-01 -3.39623653E-02  6.69993664E-02  1.40022970E-02
 -1.67323041E-02  7.41283001E-03 -1.11829313E-02 -2.74541673E-03  1.60885637E-03
 -4.61111481E-03  7.90563195E-04 -4.08174978E-03  1.77191509E-04 -1.97221113E-03
 -8.58366458E-02  1.66324787E-01 -5.40435332E-02 -5.61778486E-02  6.87426288E-03
  1.20424609E-01  1.34520003E-03 -9.11209402E-03 -1.09736606E-03  8.94680015E-02
 -7.68247049E-03 -2.11452778E-02  2.12623299E-03 -1.21383419E-01  2.43076849E-01
 -4.85584366E-02  6.73227595E-02  1.94877745E-02  1.77565222E-01 -2.71822441E-02
 -3.14107586E-03  3.66493996E-03 -3.51076556E-02 -3.78923411E-02 -1.80818631E-02
 -1.19069502E-04 -1.39507517E-01  2.71625450E-01  6.93585025E-03  2.46035457E-02
 -5.49056218E-02  1.79326913E-01 -8.28685083E-04  2.40062688E-03  2.73853121E-03
 -1.15657419E-01 -1.51287429E-03 -8.96780075E-03  2.31892405E-02 -9.92392196E-02
  1.92225439E-01  7.13107416E-02 -1.18339853E-02  4.48963496E-02  1.33269280E-01
  3.61835526E-03  8.28381465E-04 -2.77604243E-04  6.36844715E-02  1.44413309E-02
 -7.18190044E-04  7.26619755E-03  3.54473541E-02 -1.50336396E-03  4.46919450E-02
  1.17268847E-02  4.59263569E-02 -1.03600235E-01 -3.00026575E-02  4.79676098E-02
  1.10291155E-02 -1.28101724E-01 -1.19907689E-02  2.17768116E-02  4.37436624E-03
 -2.30555900E-02  9.35127688E-03 -6.70417555E-03 -1.29154689E-03  6.59199216E-02
  5.35575091E-03  4.89448014E-02  5.43395956E-03  4.44678476E-02  4.33327177E-03
 -1.40262650E-01  2.70666170E-01 -4.32372650E-02 -7.37273541E-02  3.93822889E-03
  2.12463208E-01 -3.72776322E-03  1.03179087E-03  3.62604834E-05 -8.16586514E-02
  7.16311211E-03  1.59787082E-02  1.25745493E-03 -8.78907729E-02  1.82576476E-01
  1.21208586E-01  1.26303023E-01 -8.94874552E-03  1.18867187E-01  2.56928931E-02
  1.17563218E-02  2.15569966E-03 -8.89343933E-02  6.25683953E-02  3.58708144E-02
 -1.78123119E-02  8.47560114E-02 -1.67361926E-01  1.07337387E-01  2.32286943E-03
  4.35273184E-02 -1.15319378E-01  1.69199610E-02  1.10666326E-02 -1.08450931E-02
  1.05877207E-01  7.25935292E-02 -1.31210105E-03 -8.41291900E-03  1.15888258E-01
 -2.24702281E-01 -4.62572875E-02  1.71029869E-02 -4.50976471E-02 -1.87754874E-01
 -7.32107714E-03 -2.01356090E-03  2.20886542E-03  6.37691479E-02  6.63480190E-03
 -4.23387541E-03  1.57159976E-02  7.92846451E-02  1.55501544E-02  7.71087650E-02
  1.05267437E-02  2.87982592E-02 -6.56611032E-02  5.22095853E-03  6.57057883E-02
  5.92251905E-03 -8.39082878E-02  2.08946872E-03  3.36959565E-02  2.79418412E-03
 -1.35266239E-02  3.06074673E-03 -3.64606296E-03 -1.60559630E-03 -4.84113369E-02
 -3.53275260E-03 -6.17185495E-02 -6.05164698E-03 -6.82226079E-02 -1.70133195E-02
 -8.95264649E-02  1.74892011E-01  4.12022153E-02  2.34481077E-02 -1.65177490E-02
  1.57119925E-01  1.47372561E-02  1.38345420E-02 -4.33699158E-03 -6.57227295E-02
  4.96697306E-03  1.76431424E-02 -1.53891695E-03  6.92682958E-02 -1.48410307E-01
  1.71046902E-01  1.23147974E-01 -6.30960436E-02 -1.44722234E-01  4.71798502E-02
  3.62653167E-02 -1.86764102E-02  6.90792974E-02  2.49636036E-02  1.33016680E-02
  1.92097800E-03  7.21736699E-02 -1.47711723E-01 -1.97948242E-01  3.37217542E-02
 -6.06280499E-02 -1.32460175E-01 -3.86861528E-02  1.63897957E-02 -2.71335975E-02
  1.47003004E-01 -4.35811936E-02  1.06093052E-02 -3.09931434E-02 -1.18717815E-01
  2.36622858E-01 -6.40436293E-02  1.28808466E-02 -2.47929608E-02  2.19081486E-01
 -2.85286864E-02  3.65335252E-03 -7.54347353E-03 -1.42942020E-01 -2.77749115E-02
  6.99181703E-03 -2.24972071E-02  9.07426801E-02  3.20053815E-02  7.39315069E-02
  2.43339746E-02 -2.93299824E-02  6.77429831E-02  1.16465406E-01 -6.47474781E-02
 -4.55754284E-02  8.83276467E-02  6.39446944E-02 -3.27548563E-02 -2.51728079E-02
  3.04837121E-02 -3.38512084E-03  6.54042624E-03  1.83522319E-03 -7.57851954E-02
 -2.07682119E-02  1.05637490E-01  4.05860649E-02  1.17818176E-01  4.02737058E-02
  5.98616817E-02 -1.17533472E-01 -3.26013302E-02 -1.61138558E-01 -1.95169134E-02
 -1.45717534E-01  8.55603608E-03 -5.47731720E-02 -1.22163854E-02 -9.81059657E-02
  1.62162877E-02  3.98851422E-03 -1.33261412E-03 -7.79591004E-02  1.72944461E-01
  1.00591893E-01 -1.03324874E-01 -6.79709582E-02  1.75681068E-01  1.10211051E-02
 -1.81144419E-02 -1.51641926E-02  1.37250587E-01 -5.35435021E-03  4.34298777E-02
 -2.88508644E-04  7.60031947E-02 -1.51964441E-01  5.76062372E-02  2.66072554E-02
 -1.16855966E-01 -1.72810578E-01  3.34154468E-03  7.09433841E-03 -5.13688041E-02
 -1.43785944E-02 -7.72594341E-03 -1.01716203E-02 -5.98970339E-03 -5.18632597E-02
  1.04255065E-01 -7.17278318E-02  3.92198427E-02 -1.31751110E-01  1.16105494E-01
 -2.46269976E-02  1.19484035E-02 -4.35929553E-02 -2.65929082E-02 -1.36729090E-02
  3.42523578E-03 -6.07324790E-03 -7.04501702E-02 -3.88974458E-02 -1.22271605E-01
 -5.21265518E-02  4.61115882E-02 -1.08625963E-01 -1.25251442E-01  2.96099794E-01
  2.82161926E-02 -1.34802231E-01 -7.17512126E-02  1.73965677E-01  1.55203732E-02
 -5.38891316E-02 -2.13037723E-04 -2.71407940E-03 -5.21417816E-04 -1.32186391E-01
 -5.41925124E-02  1.10878359E-01  4.96740446E-02  6.14829709E-02  2.65087983E-02