 Entering Gaussian System, Link 0=/opt/cluster/programs/g09_d.01/g09//g09
 Input=/home/unibas/boittier/RDKit_G2/N.pdb/SCAN_1_2_6_8_S_17_20.0/3_SCAN_1_2_6_8_F/3_SCAN_N.pdb.com
 Output=/scratch/boittier/3_SCAN_N.pdb/3_SCAN_N.pdb.out
 Initial command:
 /opt/cluster/programs/g09_d.01/g09/l1.exe "/scratch/boittier/3_SCAN_N.pdb/Gau-163159.inp" -scrdir="/scratch/boittier/3_SCAN_N.pdb/"
 Entering Link 1 = /opt/cluster/programs/g09_d.01/g09/l1.exe PID=    163160.
  
 Copyright (c) 1988,1990,1992,1993,1995,1998,2003,2009,2013,
            Gaussian, Inc.  All Rights Reserved.
  
 This is part of the Gaussian(R) 09 program.  It is based on
 the Gaussian(R) 03 system (copyright 2003, Gaussian, Inc.),
 the Gaussian(R) 98 system (copyright 1998, Gaussian, Inc.),
 the Gaussian(R) 94 system (copyright 1995, Gaussian, Inc.),
 the Gaussian 92(TM) system (copyright 1992, Gaussian, Inc.),
 the Gaussian 90(TM) system (copyright 1990, Gaussian, Inc.),
 the Gaussian 88(TM) system (copyright 1988, Gaussian, Inc.),
 the Gaussian 86(TM) system (copyright 1986, Carnegie Mellon
 University), and the Gaussian 82(TM) system (copyright 1983,
 Carnegie Mellon University). Gaussian is a federally registered
 trademark of Gaussian, Inc.
  
 This software contains proprietary and confidential information,
 including trade secrets, belonging to Gaussian, Inc.
  
 This software is provided under written license and may be
 used, copied, transmitted, or stored only in accord with that
 written license.
  
 The following legend is applicable only to US Government
 contracts under FAR:
  
                    RESTRICTED RIGHTS LEGEND
  
 Use, reproduction and disclosure by the US Government is
 subject to restrictions as set forth in subparagraphs (a)
 and (c) of the Commercial Computer Software - Restricted
 Rights clause in FAR 52.227-19.
  
 Gaussian, Inc.
 340 Quinnipiac St., Bldg. 40, Wallingford CT 06492
  
  
 ---------------------------------------------------------------
 Warning -- This program may not be used in any manner that
 competes with the business of Gaussian, Inc. or will provide
 assistance to any competitor of Gaussian, Inc.  The licensee
 of this program is prohibited from giving any competitor of
 Gaussian, Inc. access to this program.  By using this program,
 the user acknowledges that Gaussian, Inc. is engaged in the
 business of creating and licensing software in the field of
 computational chemistry and represents and warrants to the
 licensee that it is not a competitor of Gaussian, Inc. and that
 it will not use this program in any manner prohibited above.
 ---------------------------------------------------------------
  

 Cite this work as:
 Gaussian 09, Revision D.01,
 M. J. Frisch, G. W. Trucks, H. B. Schlegel, G. E. Scuseria, 
 M. A. Robb, J. R. Cheeseman, G. Scalmani, V. Barone, B. Mennucci, 
 G. A. Petersson, H. Nakatsuji, M. Caricato, X. Li, H. P. Hratchian, 
 A. F. Izmaylov, J. Bloino, G. Zheng, J. L. Sonnenberg, M. Hada, 
 M. Ehara, K. Toyota, R. Fukuda, J. Hasegawa, M. Ishida, T. Nakajima, 
 Y. Honda, O. Kitao, H. Nakai, T. Vreven, J. A. Montgomery, Jr., 
 J. E. Peralta, F. Ogliaro, M. Bearpark, J. J. Heyd, E. Brothers, 
 K. N. Kudin, V. N. Staroverov, T. Keith, R. Kobayashi, J. Normand, 
 K. Raghavachari, A. Rendell, J. C. Burant, S. S. Iyengar, J. Tomasi, 
 M. Cossi, N. Rega, J. M. Millam, M. Klene, J. E. Knox, J. B. Cross, 
 V. Bakken, C. Adamo, J. Jaramillo, R. Gomperts, R. E. Stratmann, 
 O. Yazyev, A. J. Austin, R. Cammi, C. Pomelli, J. W. Ochterski, 
 R. L. Martin, K. Morokuma, V. G. Zakrzewski, G. A. Voth, 
 P. Salvador, J. J. Dannenberg, S. Dapprich, A. D. Daniels, 
 O. Farkas, J. B. Foresman, J. V. Ortiz, J. Cioslowski, 
 and D. J. Fox, Gaussian, Inc., Wallingford CT, 2013.
 
 ******************************************
 Gaussian 09:  ES64L-G09RevD.01 24-Apr-2013
                26-May-2021 
 ******************************************
 %chk=/home/unibas/boittier/RDKit_G2/N.pdb/SCAN_1_2_6_8_S_17_20.0/3_SCAN_1_2_6_8_
 F/N.pdb.chk
 %nproc=8
 Will use up to    8 processors via shared memory.
 %mem=16GB
 -----------------------------
 #p wB97XD/6-31+G Opt=ModRedun
 -----------------------------
 1/14=-1,18=120,19=15,26=3,38=1/1,3;
 2/9=110,12=2,17=6,18=5,40=1/2;
 3/5=1,6=6,7=10,11=2,16=1,25=1,30=1,71=1,74=-58/1,2,3;
 4//1;
 5/5=2,38=5/2;
 6/7=2,8=2,9=2,10=2,28=1/1;
 7//1,2,3,16;
 1/14=-1,18=20,19=15,26=3/3(2);
 2/9=110/2;
 99//99;
 2/9=110/2;
 3/5=1,6=6,7=10,11=2,16=1,25=1,30=1,71=1,74=-58/1,2,3;
 4/5=5,16=3,69=1/1;
 5/5=2,38=5/2;
 7//1,2,3,16;
 1/14=-1,18=20,19=15,26=3/3(-5);
 2/9=110/2;
 6/7=2,8=2,9=2,10=2,19=2,28=1/1;
 99/9=1/99;
 Leave Link    1 at Wed May 26 09:20:48 2021, MaxMem=  2147483648 cpu:         0.2
 (Enter /opt/cluster/programs/g09_d.01/g09/l101.exe)
 -----
 N.pdb
 -----
 Symbolic Z-matrix:
 Charge =  0 Multiplicity = 1
 C                     2.67222   0.73845  -0.1128 
 C                     1.47511  -0.13162   0.14835 
 H                     2.49295   1.34722  -1.00793 
 H                     3.55557   0.11948  -0.27194 
 H                     2.84691   1.42767   0.7214 
 C                     0.21075   0.59711   0.60494 
 O                     1.5005   -1.35604   0.02149 
 C                    -1.06719   0.07941   0.0036 
 H                     0.27703   1.6609    0.36424 
 H                     0.12975   0.50849   1.69425 
 F                    -1.01276   0.05361  -1.38681 
 F                    -2.13193   0.9204    0.34202 
 F                    -1.41657  -1.18684   0.42962 
 
 The following ModRedundant input section has been read:
 D       1       2       6       8 F                                           
 
 NAtoms=     13 NQM=       13 NQMF=       0 NMMI=      0 NMMIF=      0
                NMic=       0 NMicF=      0.
                    Isotopes and Nuclear Properties:
 (Nuclear quadrupole moments (NQMom) in fm**2, nuclear magnetic moments (NMagM)
  in nuclear magnetons)

  Atom         1           2           3           4           5           6           7           8           9          10
 IAtWgt=          12          12           1           1           1          12          16          12           1           1
 AtmWgt=  12.0000000  12.0000000   1.0078250   1.0078250   1.0078250  12.0000000  15.9949146  12.0000000   1.0078250   1.0078250
 NucSpn=           0           0           1           1           1           0           0           0           1           1
 AtZEff=   0.0000000   0.0000000   0.0000000   0.0000000   0.0000000   0.0000000   0.0000000   0.0000000   0.0000000   0.0000000
 NQMom=    0.0000000   0.0000000   0.0000000   0.0000000   0.0000000   0.0000000   0.0000000   0.0000000   0.0000000   0.0000000
 NMagM=    0.0000000   0.0000000   2.7928460   2.7928460   2.7928460   0.0000000   0.0000000   0.0000000   2.7928460   2.7928460
 AtZNuc=   6.0000000   6.0000000   1.0000000   1.0000000   1.0000000   6.0000000   8.0000000   6.0000000   1.0000000   1.0000000

  Atom        11          12          13
 IAtWgt=          19          19          19
 AtmWgt=  18.9984033  18.9984033  18.9984033
 NucSpn=           1           1           1
 AtZEff=   0.0000000   0.0000000   0.0000000
 NQMom=    0.0000000   0.0000000   0.0000000
 NMagM=    2.6288670   2.6288670   2.6288670
 AtZNuc=   9.0000000   9.0000000   9.0000000
 Leave Link  101 at Wed May 26 09:20:48 2021, MaxMem=  2147483648 cpu:         4.2
 (Enter /opt/cluster/programs/g09_d.01/g09/l103.exe)

 GradGradGradGradGradGradGradGradGradGradGradGradGradGradGradGradGradGrad
 Berny optimization.
 Initialization pass.
                           ----------------------------
                           !    Initial Parameters    !
                           ! (Angstroms and Degrees)  !
 --------------------------                            --------------------------
 ! Name  Definition              Value          Derivative Info.                !
 --------------------------------------------------------------------------------
 ! R1    R(1,2)                  1.5028         estimate D2E/DX2                !
 ! R2    R(1,3)                  1.0973         estimate D2E/DX2                !
 ! R3    R(1,4)                  1.0903         estimate D2E/DX2                !
 ! R4    R(1,5)                  1.0961         estimate D2E/DX2                !
 ! R5    R(2,6)                  1.5291         estimate D2E/DX2                !
 ! R6    R(2,7)                  1.2312         estimate D2E/DX2                !
 ! R7    R(6,8)                  1.5042         estimate D2E/DX2                !
 ! R8    R(6,9)                  1.0927         estimate D2E/DX2                !
 ! R9    R(6,10)                 1.0959         estimate D2E/DX2                !
 ! R10   R(8,11)                 1.3917         estimate D2E/DX2                !
 ! R11   R(8,12)                 1.3984         estimate D2E/DX2                !
 ! R12   R(8,13)                 1.3809         estimate D2E/DX2                !
 ! A1    A(2,1,3)              109.4413         estimate D2E/DX2                !
 ! A2    A(2,1,4)              110.0034         estimate D2E/DX2                !
 ! A3    A(2,1,5)              111.0244         estimate D2E/DX2                !
 ! A4    A(3,1,4)              109.1634         estimate D2E/DX2                !
 ! A5    A(3,1,5)              107.3401         estimate D2E/DX2                !
 ! A6    A(4,1,5)              109.8113         estimate D2E/DX2                !
 ! A7    A(1,2,6)              115.7631         estimate D2E/DX2                !
 ! A8    A(1,2,7)              122.782          estimate D2E/DX2                !
 ! A9    A(6,2,7)              121.4501         estimate D2E/DX2                !
 ! A10   A(2,6,8)              114.7768         estimate D2E/DX2                !
 ! A11   A(2,6,9)              110.3675         estimate D2E/DX2                !
 ! A12   A(2,6,10)             108.6258         estimate D2E/DX2                !
 ! A13   A(8,6,9)              107.369          estimate D2E/DX2                !
 ! A14   A(8,6,10)             107.8624         estimate D2E/DX2                !
 ! A15   A(9,6,10)             107.5874         estimate D2E/DX2                !
 ! A16   A(6,8,11)             111.8724         estimate D2E/DX2                !
 ! A17   A(6,8,12)             110.0683         estimate D2E/DX2                !
 ! A18   A(6,8,13)             114.0288         estimate D2E/DX2                !
 ! A19   A(11,8,12)            106.422          estimate D2E/DX2                !
 ! A20   A(11,8,13)            107.5239         estimate D2E/DX2                !
 ! A21   A(12,8,13)            106.5087         estimate D2E/DX2                !
 ! D1    D(3,1,2,6)            -69.2724         estimate D2E/DX2                !
 ! D2    D(3,1,2,7)            111.5217         estimate D2E/DX2                !
 ! D3    D(4,1,2,6)            170.7969         estimate D2E/DX2                !
 ! D4    D(4,1,2,7)             -8.409          estimate D2E/DX2                !
 ! D5    D(5,1,2,6)             49.0394         estimate D2E/DX2                !
 ! D6    D(5,1,2,7)           -130.1665         estimate D2E/DX2                !
 ! D7    D(1,2,6,8)            139.7833         Frozen                          !
 ! D8    D(1,2,6,9)             18.3115         estimate D2E/DX2                !
 ! D9    D(1,2,6,10)           -99.4149         estimate D2E/DX2                !
 ! D10   D(7,2,6,8)            -40.9994         estimate D2E/DX2                !
 ! D11   D(7,2,6,9)           -162.4711         estimate D2E/DX2                !
 ! D12   D(7,2,6,10)            79.8024         estimate D2E/DX2                !
 ! D13   D(2,6,8,11)           -53.9693         estimate D2E/DX2                !
 ! D14   D(2,6,8,12)          -172.0676         estimate D2E/DX2                !
 ! D15   D(2,6,8,13)            68.3216         estimate D2E/DX2                !
 ! D16   D(9,6,8,11)            69.1247         estimate D2E/DX2                !
 ! D17   D(9,6,8,12)           -48.9736         estimate D2E/DX2                !
 ! D18   D(9,6,8,13)          -168.5844         estimate D2E/DX2                !
 ! D19   D(10,6,8,11)         -175.1898         estimate D2E/DX2                !
 ! D20   D(10,6,8,12)           66.712          estimate D2E/DX2                !
 ! D21   D(10,6,8,13)          -52.8988         estimate D2E/DX2                !
 --------------------------------------------------------------------------------
 Trust Radius=3.00D-01 FncErr=1.00D-07 GrdErr=1.00D-06
 Number of steps in this run=     64 maximum allowed number of steps=    100.
 GradGradGradGradGradGradGradGradGradGradGradGradGradGradGradGradGradGrad

 Leave Link  103 at Wed May 26 09:20:49 2021, MaxMem=  2147483648 cpu:         0.1
 (Enter /opt/cluster/programs/g09_d.01/g09/l202.exe)
                          Input orientation:                          
 ---------------------------------------------------------------------
 Center     Atomic      Atomic             Coordinates (Angstroms)
 Number     Number       Type             X           Y           Z
 ---------------------------------------------------------------------
      1          6           0        2.672215    0.738452   -0.112799
      2          6           0        1.475106   -0.131619    0.148346
      3          1           0        2.492948    1.347223   -1.007927
      4          1           0        3.555566    0.119482   -0.271937
      5          1           0        2.846910    1.427669    0.721404
      6          6           0        0.210749    0.597108    0.604940
      7          8           0        1.500499   -1.356043    0.021493
      8          6           0       -1.067192    0.079411    0.003603
      9          1           0        0.277026    1.660902    0.364242
     10          1           0        0.129748    0.508489    1.694254
     11          9           0       -1.012763    0.053606   -1.386809
     12          9           0       -2.131935    0.920400    0.342021
     13          9           0       -1.416574   -1.186843    0.429619
 ---------------------------------------------------------------------
                    Distance matrix (angstroms):
                    1          2          3          4          5
     1  C    0.000000
     2  C    1.502761   0.000000
     3  H    1.097266   2.135402   0.000000
     4  H    1.090302   2.137289   1.782747   0.000000
     5  H    1.096099   2.154442   1.767016   1.788931   0.000000
     6  C    2.567867   1.529091   2.893518   3.490679   2.766359
     7  O    2.403718   1.231239   3.058154   2.546876   3.170450
     8  C    3.798822   2.555144   3.912178   4.631136   4.201575
     9  H    2.610634   2.166827   2.625177   3.678250   2.605046
    10  H    3.127693   2.146988   3.686458   3.969063   3.028910
    11  F    3.958684   2.929249   3.755929   4.702862   4.607568
    12  F    4.829060   3.762313   4.836743   5.776338   5.018979
    13  F    4.551832   3.091023   4.875694   5.188530   5.009801
                    6          7          8          9         10
     6  C    0.000000
     7  O    2.412191   0.000000
     8  C    1.504244   2.941749   0.000000
     9  H    1.092697   3.273579   2.106679   0.000000
    10  H    1.095910   2.855445   2.115437   1.765978   0.000000
    11  F    2.399883   3.207321   1.391716   2.704281   3.317408
    12  F    2.379456   4.298780   1.398380   2.520304   2.667099
    13  F    2.421033   2.950341   1.380926   3.313941   2.620031
                   11         12         13
    11  F    0.000000
    12  F    2.234442   0.000000
    13  F    2.236334   2.227081   0.000000
 Stoichiometry    C4H5F3O
 Framework group  C1[X(C4H5F3O)]
 Deg. of freedom    33
 Full point group                 C1      NOp   1
 Largest Abelian subgroup         C1      NOp   1
 Largest concise Abelian subgroup C1      NOp   1
                         Standard orientation:                         
 ---------------------------------------------------------------------
 Center     Atomic      Atomic             Coordinates (Angstroms)
 Number     Number       Type             X           Y           Z
 ---------------------------------------------------------------------
      1          6           0        2.672215   -0.738452    0.112799
      2          6           0        1.475106    0.131619   -0.148346
      3          1           0        2.492948   -1.347223    1.007927
      4          1           0        3.555566   -0.119482    0.271937
      5          1           0        2.846910   -1.427669   -0.721404
      6          6           0        0.210749   -0.597108   -0.604940
      7          8           0        1.500499    1.356043   -0.021493
      8          6           0       -1.067192   -0.079411   -0.003603
      9          1           0        0.277026   -1.660902   -0.364242
     10          1           0        0.129748   -0.508489   -1.694254
     11          9           0       -1.012763   -0.053606    1.386809
     12          9           0       -2.131935   -0.920400   -0.342021
     13          9           0       -1.416574    1.186843   -0.429619
 ---------------------------------------------------------------------
 Rotational constants (GHZ):      3.5717484      1.3170300      1.1977607
 Leave Link  202 at Wed May 26 09:20:49 2021, MaxMem=  2147483648 cpu:         0.0
 (Enter /opt/cluster/programs/g09_d.01/g09/l301.exe)
 Standard basis: 6-31+G (6D, 7F)
 Ernie: Thresh=  0.10000D-02 Tol=  0.10000D-05 Strict=F.
 There are   114 symmetry adapted cartesian basis functions of A   symmetry.
 There are   114 symmetry adapted basis functions of A   symmetry.
   114 basis functions,   228 primitive gaussians,   114 cartesian basis functions
    32 alpha electrons       32 beta electrons
       nuclear repulsion energy       403.6292503534 Hartrees.
 IExCor= 4639 DFT=T Ex+Corr=wB97XD ExCW=0 ScaHFX=  1.000000
 ScaDFX=  1.000000  1.000000  1.000000  1.000000 ScalE2=  1.000000  1.000000
 IRadAn=      0 IRanWt=     -1 IRanGd=            0 ICorTp=0 IEmpDi=121
  HFx wShort=  0.000000 wLong=  0.200000 cFull=  0.222036 cShort=  0.000000 cLong=  0.777964
  DFx wShort=  0.000000 wLong=  0.200000 cFull=  0.000000 cShort=  0.000000 cLong=  1.000000
 NAtoms=   13 NActive=   13 NUniq=   13 SFac= 1.00D+00 NAtFMM=   60 NAOKFM=F Big=F
 Integral buffers will be    131072 words long.
 Raffenetti 2 integral format.
 Two-electron integral symmetry is turned on.
 R6Disp:  Grimme-D2 Dispersion energy=       -0.0056643274 Hartrees.
 Nuclear repulsion after empirical dispersion term =      403.6235860259 Hartrees.
 Leave Link  301 at Wed May 26 09:20:49 2021, MaxMem=  2147483648 cpu:         0.3
 (Enter /opt/cluster/programs/g09_d.01/g09/l302.exe)
 NPDir=0 NMtPBC=     1 NCelOv=     1 NCel=       1 NClECP=     1 NCelD=      1
         NCelK=      1 NCelE2=     1 NClLst=     1 CellRange=     0.0.
 One-electron integrals computed using PRISM.
 NBasis=   114 RedAO= T EigKep=  7.81D-05  NBF=   114
 NBsUse=   114 1.00D-06 EigRej= -1.00D+00 NBFU=   114
 Precomputing XC quadrature grid using
 IXCGrd= 4 IRadAn=           0 IRanWt=          -1 IRanGd=           0 AccXCQ= 0.00D+00.
 Generated NRdTot=       0 NPtTot=           0 NUsed=           0 NTot=          32
 NSgBfM=   114   114   114   114   114 MxSgAt=    13 MxSgA2=    13.
 Leave Link  302 at Wed May 26 09:20:49 2021, MaxMem=  2147483648 cpu:         1.0
 (Enter /opt/cluster/programs/g09_d.01/g09/l303.exe)
 DipDrv:  MaxL=1.
 Leave Link  303 at Wed May 26 09:20:49 2021, MaxMem=  2147483648 cpu:         0.3
 (Enter /opt/cluster/programs/g09_d.01/g09/l401.exe)
 ExpMin= 4.38D-02 ExpMax= 7.00D+03 ExpMxC= 1.05D+03 IAcc=2 IRadAn=         4 AccDes= 0.00D+00
 Harris functional with IExCor= 4639 and IRadAn=       4 diagonalized for initial guess.
 HarFok:  IExCor= 4639 AccDes= 0.00D+00 IRadAn=         4 IDoV= 1 UseB2=F ITyADJ=14
 ICtDFT=  3500011 ScaDFX=  1.000000  1.000000  1.000000  1.000000
 FoFCou: FMM=F IPFlag=           0 FMFlag=      100000 FMFlg1=           0
         NFxFlg=           0 DoJE=T BraDBF=F KetDBF=T FulRan=T
         wScrn=  0.000000 ICntrl=     500 IOpCl=  0 I1Cent=   200000004 NGrid=           0
         NMat0=    1 NMatS0=      1 NMatT0=    0 NMatD0=    1 NMtDS0=    0 NMtDT0=    0
 Petite list used in FoFCou.
 Harris En= -511.187026956596    
 JPrj=0 DoOrth=F DoCkMO=F.
 Leave Link  401 at Wed May 26 09:20:49 2021, MaxMem=  2147483648 cpu:         2.0
 (Enter /opt/cluster/programs/g09_d.01/g09/l502.exe)
 Closed shell SCF:
 Using DIIS extrapolation, IDIIS=  1040.
 Integral symmetry usage will be decided dynamically.
 Keep R1 ints in memory in canonical form, NReq=43969700.
 IVT=       59316 IEndB=       59316 NGot=  2147483648 MDV=  2104449753
 LenX=  2104449753 LenY=  2104436316
 Requested convergence on RMS density matrix=1.00D-08 within 128 cycles.
 Requested convergence on MAX density matrix=1.00D-06.
 Requested convergence on             energy=1.00D-06.
 No special actions if energy rises.
 FoFCou: FMM=F IPFlag=           0 FMFlag=           0 FMFlg1=           0
         NFxFlg=           0 DoJE=F BraDBF=F KetDBF=F FulRan=T
         wScrn=  0.000000 ICntrl=     600 IOpCl=  0 I1Cent=           0 NGrid=           0
         NMat0=    1 NMatS0=   6555 NMatT0=    0 NMatD0=    1 NMtDS0=    0 NMtDT0=    0
 Symmetry not used in FoFCou.

 Cycle   1  Pass 1  IDiag  1:
 E= -529.587686877392    
 DIIS: error= 6.33D-02 at cycle   1 NSaved=   1.
 NSaved= 1 IEnMin= 1 EnMin= -529.587686877392     IErMin= 1 ErrMin= 6.33D-02
 ErrMax= 6.33D-02  0.00D+00 EMaxC= 1.00D-01 BMatC= 5.22D-01 BMatP= 5.22D-01
 IDIUse=3 WtCom= 3.67D-01 WtEn= 6.33D-01
 Coeff-Com:  0.100D+01
 Coeff-En:   0.100D+01
 Coeff:      0.100D+01
 Gap=     0.423 Goal=   None    Shift=    0.000
 GapD=    0.423 DampG=2.000 DampE=0.500 DampFc=1.0000 IDamp=-1.
 RMSDP=1.89D-02 MaxDP=9.21D-01              OVMax= 1.30D-01

 Cycle   2  Pass 1  IDiag  1:
 E= -529.733881960446     Delta-E=       -0.146195083055 Rises=F Damp=F
 DIIS: error= 5.28D-02 at cycle   2 NSaved=   2.
 NSaved= 2 IEnMin= 2 EnMin= -529.733881960446     IErMin= 2 ErrMin= 5.28D-02
 ErrMax= 5.28D-02  0.00D+00 EMaxC= 1.00D-01 BMatC= 3.10D-01 BMatP= 5.22D-01
 IDIUse=3 WtCom= 4.72D-01 WtEn= 5.28D-01
 Coeff-Com:  0.430D+00 0.570D+00
 Coeff-En:   0.324D+00 0.676D+00
 Coeff:      0.374D+00 0.626D+00
 Gap=     0.518 Goal=   None    Shift=    0.000
 RMSDP=4.39D-03 MaxDP=7.30D-02 DE=-1.46D-01 OVMax= 7.22D-02

 Cycle   3  Pass 1  IDiag  1:
 E= -529.907253526724     Delta-E=       -0.173371566278 Rises=F Damp=F
 DIIS: error= 1.23D-02 at cycle   3 NSaved=   3.
 NSaved= 3 IEnMin= 3 EnMin= -529.907253526724     IErMin= 3 ErrMin= 1.23D-02
 ErrMax= 1.23D-02  0.00D+00 EMaxC= 1.00D-01 BMatC= 2.37D-02 BMatP= 3.10D-01
 IDIUse=3 WtCom= 8.77D-01 WtEn= 1.23D-01
 Coeff-Com:  0.100D+00 0.261D+00 0.639D+00
 Coeff-En:   0.000D+00 0.000D+00 0.100D+01
 Coeff:      0.880D-01 0.229D+00 0.683D+00
 Gap=     0.390 Goal=   None    Shift=    0.000
 RMSDP=3.94D-03 MaxDP=1.56D-01 DE=-1.73D-01 OVMax= 3.22D-02

 Cycle   4  Pass 1  IDiag  1:
 E= -529.921003947254     Delta-E=       -0.013750420530 Rises=F Damp=F
 DIIS: error= 4.69D-03 at cycle   4 NSaved=   4.
 NSaved= 4 IEnMin= 4 EnMin= -529.921003947254     IErMin= 4 ErrMin= 4.69D-03
 ErrMax= 4.69D-03  0.00D+00 EMaxC= 1.00D-01 BMatC= 3.93D-03 BMatP= 2.37D-02
 IDIUse=3 WtCom= 9.53D-01 WtEn= 4.69D-02
 Coeff-Com: -0.181D-02 0.314D-01 0.337D+00 0.634D+00
 Coeff-En:   0.000D+00 0.000D+00 0.113D+00 0.887D+00
 Coeff:     -0.172D-02 0.300D-01 0.326D+00 0.646D+00
 Gap=     0.378 Goal=   None    Shift=    0.000
 RMSDP=8.98D-04 MaxDP=1.92D-02 DE=-1.38D-02 OVMax= 1.96D-02

 Cycle   5  Pass 1  IDiag  1:
 E= -529.923744085386     Delta-E=       -0.002740138132 Rises=F Damp=F
 DIIS: error= 1.76D-03 at cycle   5 NSaved=   5.
 NSaved= 5 IEnMin= 5 EnMin= -529.923744085386     IErMin= 5 ErrMin= 1.76D-03
 ErrMax= 1.76D-03  0.00D+00 EMaxC= 1.00D-01 BMatC= 3.25D-04 BMatP= 3.93D-03
 IDIUse=3 WtCom= 9.82D-01 WtEn= 1.76D-02
 Coeff-Com: -0.845D-02-0.291D-02 0.146D+00 0.368D+00 0.497D+00
 Coeff-En:   0.000D+00 0.000D+00 0.000D+00 0.000D+00 0.100D+01
 Coeff:     -0.831D-02-0.285D-02 0.143D+00 0.362D+00 0.506D+00
 Gap=     0.382 Goal=   None    Shift=    0.000
 RMSDP=6.33D-04 MaxDP=2.71D-02 DE=-2.74D-03 OVMax= 5.06D-03

 Cycle   6  Pass 1  IDiag  1:
 E= -529.923978514632     Delta-E=       -0.000234429246 Rises=F Damp=F
 DIIS: error= 3.49D-04 at cycle   6 NSaved=   6.
 NSaved= 6 IEnMin= 6 EnMin= -529.923978514632     IErMin= 6 ErrMin= 3.49D-04
 ErrMax= 3.49D-04  0.00D+00 EMaxC= 1.00D-01 BMatC= 7.82D-06 BMatP= 3.25D-04
 IDIUse=3 WtCom= 9.97D-01 WtEn= 3.49D-03
 Coeff-Com: -0.128D-02-0.458D-02-0.551D-02 0.526D-02 0.126D+00 0.880D+00
 Coeff-En:   0.000D+00 0.000D+00 0.000D+00 0.000D+00 0.000D+00 0.100D+01
 Coeff:     -0.127D-02-0.456D-02-0.549D-02 0.524D-02 0.126D+00 0.880D+00
 Gap=     0.381 Goal=   None    Shift=    0.000
 RMSDP=1.47D-04 MaxDP=5.88D-03 DE=-2.34D-04 OVMax= 1.48D-03

 Cycle   7  Pass 1  IDiag  1:
 E= -529.923987520361     Delta-E=       -0.000009005729 Rises=F Damp=F
 DIIS: error= 5.19D-05 at cycle   7 NSaved=   7.
 NSaved= 7 IEnMin= 7 EnMin= -529.923987520361     IErMin= 7 ErrMin= 5.19D-05
 ErrMax= 5.19D-05  0.00D+00 EMaxC= 1.00D-01 BMatC= 6.64D-07 BMatP= 7.82D-06
 IDIUse=1 WtCom= 1.00D+00 WtEn= 0.00D+00
 Coeff-Com:  0.313D-03-0.156D-02-0.158D-01-0.308D-01-0.893D-02 0.295D+00
 Coeff-Com:  0.762D+00
 Coeff:      0.313D-03-0.156D-02-0.158D-01-0.308D-01-0.893D-02 0.295D+00
 Coeff:      0.762D+00
 Gap=     0.382 Goal=   None    Shift=    0.000
 RMSDP=5.48D-05 MaxDP=2.25D-03 DE=-9.01D-06 OVMax= 3.27D-04

 Cycle   8  Pass 1  IDiag  1:
 E= -529.923988389369     Delta-E=       -0.000000869008 Rises=F Damp=F
 DIIS: error= 1.30D-05 at cycle   8 NSaved=   8.
 NSaved= 8 IEnMin= 8 EnMin= -529.923988389369     IErMin= 8 ErrMin= 1.30D-05
 ErrMax= 1.30D-05  0.00D+00 EMaxC= 1.00D-01 BMatC= 2.62D-08 BMatP= 6.64D-07
 IDIUse=1 WtCom= 1.00D+00 WtEn= 0.00D+00
 Coeff-Com:  0.106D-03 0.134D-03-0.117D-02-0.260D-02-0.130D-01-0.276D-01
 Coeff-Com:  0.647D-01 0.979D+00
 Coeff:      0.106D-03 0.134D-03-0.117D-02-0.260D-02-0.130D-01-0.276D-01
 Coeff:      0.647D-01 0.979D+00
 Gap=     0.382 Goal=   None    Shift=    0.000
 RMSDP=1.52D-05 MaxDP=5.09D-04 DE=-8.69D-07 OVMax= 1.36D-04

 Cycle   9  Pass 1  IDiag  1:
 E= -529.923988438986     Delta-E=       -0.000000049617 Rises=F Damp=F
 DIIS: error= 5.31D-06 at cycle   9 NSaved=   9.
 NSaved= 9 IEnMin= 9 EnMin= -529.923988438986     IErMin= 9 ErrMin= 5.31D-06
 ErrMax= 5.31D-06  0.00D+00 EMaxC= 1.00D-01 BMatC= 2.74D-09 BMatP= 2.62D-08
 IDIUse=1 WtCom= 1.00D+00 WtEn= 0.00D+00
 Coeff-Com:  0.103D-04 0.136D-03 0.659D-03 0.133D-02-0.324D-02-0.246D-01
 Coeff-Com: -0.244D-01 0.254D+00 0.796D+00
 Coeff:      0.103D-04 0.136D-03 0.659D-03 0.133D-02-0.324D-02-0.246D-01
 Coeff:     -0.244D-01 0.254D+00 0.796D+00
 Gap=     0.382 Goal=   None    Shift=    0.000
 RMSDP=2.31D-06 MaxDP=4.33D-05 DE=-4.96D-08 OVMax= 4.84D-05

 Cycle  10  Pass 1  IDiag  1:
 E= -529.923988443945     Delta-E=       -0.000000004959 Rises=F Damp=F
 DIIS: error= 3.51D-06 at cycle  10 NSaved=  10.
 NSaved=10 IEnMin=10 EnMin= -529.923988443945     IErMin=10 ErrMin= 3.51D-06
 ErrMax= 3.51D-06  0.00D+00 EMaxC= 1.00D-01 BMatC= 1.02D-09 BMatP= 2.74D-09
 IDIUse=1 WtCom= 1.00D+00 WtEn= 0.00D+00
 Coeff-Com: -0.169D-04 0.351D-04 0.552D-03 0.121D-02 0.128D-02-0.478D-02
 Coeff-Com: -0.243D-01-0.105D+00 0.394D+00 0.737D+00
 Coeff:     -0.169D-04 0.351D-04 0.552D-03 0.121D-02 0.128D-02-0.478D-02
 Coeff:     -0.243D-01-0.105D+00 0.394D+00 0.737D+00
 Gap=     0.382 Goal=   None    Shift=    0.000
 RMSDP=1.11D-06 MaxDP=1.85D-05 DE=-4.96D-09 OVMax= 3.31D-05

 Cycle  11  Pass 1  IDiag  1:
 E= -529.923988445824     Delta-E=       -0.000000001879 Rises=F Damp=F
 DIIS: error= 1.66D-06 at cycle  11 NSaved=  11.
 NSaved=11 IEnMin=11 EnMin= -529.923988445824     IErMin=11 ErrMin= 1.66D-06
 ErrMax= 1.66D-06  0.00D+00 EMaxC= 1.00D-01 BMatC= 6.36D-11 BMatP= 1.02D-09
 IDIUse=1 WtCom= 1.00D+00 WtEn= 0.00D+00
 Coeff-Com:  0.335D-06-0.169D-04-0.110D-03-0.216D-03 0.278D-03 0.339D-02
 Coeff-Com:  0.356D-02-0.283D-01-0.111D+00-0.291D-01 0.116D+01
 Coeff:      0.335D-06-0.169D-04-0.110D-03-0.216D-03 0.278D-03 0.339D-02
 Coeff:      0.356D-02-0.283D-01-0.111D+00-0.291D-01 0.116D+01
 Gap=     0.382 Goal=   None    Shift=    0.000
 RMSDP=5.52D-07 MaxDP=1.01D-05 DE=-1.88D-09 OVMax= 2.31D-05

 Cycle  12  Pass 1  IDiag  1:
 E= -529.923988446255     Delta-E=       -0.000000000431 Rises=F Damp=F
 DIIS: error= 6.67D-07 at cycle  12 NSaved=  12.
 NSaved=12 IEnMin=12 EnMin= -529.923988446255     IErMin=12 ErrMin= 6.67D-07
 ErrMax= 6.67D-07  0.00D+00 EMaxC= 1.00D-01 BMatC= 1.45D-11 BMatP= 6.36D-11
 IDIUse=1 WtCom= 1.00D+00 WtEn= 0.00D+00
 Coeff-Com:  0.261D-05-0.114D-04-0.124D-03-0.267D-03-0.146D-03 0.166D-02
 Coeff-Com:  0.509D-02 0.136D-01-0.105D+00-0.151D+00 0.308D+00 0.927D+00
 Coeff:      0.261D-05-0.114D-04-0.124D-03-0.267D-03-0.146D-03 0.166D-02
 Coeff:      0.509D-02 0.136D-01-0.105D+00-0.151D+00 0.308D+00 0.927D+00
 Gap=     0.382 Goal=   None    Shift=    0.000
 RMSDP=2.47D-07 MaxDP=4.96D-06 DE=-4.31D-10 OVMax= 1.06D-05

 Cycle  13  Pass 1  IDiag  1:
 E= -529.923988446338     Delta-E=       -0.000000000083 Rises=F Damp=F
 DIIS: error= 1.97D-07 at cycle  13 NSaved=  13.
 NSaved=13 IEnMin=13 EnMin= -529.923988446338     IErMin=13 ErrMin= 1.97D-07
 ErrMax= 1.97D-07  0.00D+00 EMaxC= 1.00D-01 BMatC= 1.59D-12 BMatP= 1.45D-11
 IDIUse=1 WtCom= 1.00D+00 WtEn= 0.00D+00
 Coeff-Com: -0.325D-06 0.290D-05 0.256D-04 0.466D-04-0.150D-04-0.694D-03
 Coeff-Com: -0.888D-03 0.429D-02 0.244D-01 0.144D-01-0.213D+00-0.871D-01
 Coeff-Com:  0.126D+01
 Coeff:     -0.325D-06 0.290D-05 0.256D-04 0.466D-04-0.150D-04-0.694D-03
 Coeff:     -0.888D-03 0.429D-02 0.244D-01 0.144D-01-0.213D+00-0.871D-01
 Coeff:      0.126D+01
 Gap=     0.382 Goal=   None    Shift=    0.000
 RMSDP=1.21D-07 MaxDP=2.72D-06 DE=-8.25D-11 OVMax= 4.54D-06

 Cycle  14  Pass 1  IDiag  1:
 E= -529.923988446346     Delta-E=       -0.000000000009 Rises=F Damp=F
 DIIS: error= 2.51D-08 at cycle  14 NSaved=  14.
 NSaved=14 IEnMin=14 EnMin= -529.923988446346     IErMin=14 ErrMin= 2.51D-08
 ErrMax= 2.51D-08  0.00D+00 EMaxC= 1.00D-01 BMatC= 8.66D-14 BMatP= 1.59D-12
 IDIUse=1 WtCom= 1.00D+00 WtEn= 0.00D+00
 Coeff-Com: -0.136D-06 0.995D-06 0.912D-05 0.171D-04 0.850D-05-0.187D-03
 Coeff-Com: -0.317D-03 0.143D-03 0.792D-02 0.827D-02-0.479D-01-0.552D-01
 Coeff-Com:  0.225D+00 0.862D+00
 Coeff:     -0.136D-06 0.995D-06 0.912D-05 0.171D-04 0.850D-05-0.187D-03
 Coeff:     -0.317D-03 0.143D-03 0.792D-02 0.827D-02-0.479D-01-0.552D-01
 Coeff:      0.225D+00 0.862D+00
 Gap=     0.382 Goal=   None    Shift=    0.000
 RMSDP=1.43D-08 MaxDP=4.89D-07 DE=-8.75D-12 OVMax= 3.83D-07

 Cycle  15  Pass 1  IDiag  1:
 E= -529.923988446350     Delta-E=       -0.000000000004 Rises=F Damp=F
 DIIS: error= 7.63D-09 at cycle  15 NSaved=  15.
 NSaved=15 IEnMin=15 EnMin= -529.923988446350     IErMin=15 ErrMin= 7.63D-09
 ErrMax= 7.63D-09  0.00D+00 EMaxC= 1.00D-01 BMatC= 1.41D-14 BMatP= 8.66D-14
 IDIUse=1 WtCom= 1.00D+00 WtEn= 0.00D+00
 Coeff-Com: -0.829D-08-0.136D-07-0.207D-06-0.266D-06 0.571D-05 0.228D-04
 Coeff-Com:  0.205D-04-0.451D-03-0.738D-03 0.728D-03 0.136D-01-0.725D-02
 Coeff-Com: -0.990D-01 0.270D+00 0.823D+00
 Coeff:     -0.829D-08-0.136D-07-0.207D-06-0.266D-06 0.571D-05 0.228D-04
 Coeff:      0.205D-04-0.451D-03-0.738D-03 0.728D-03 0.136D-01-0.725D-02
 Coeff:     -0.990D-01 0.270D+00 0.823D+00
 Gap=     0.382 Goal=   None    Shift=    0.000
 RMSDP=5.80D-09 MaxDP=2.21D-07 DE=-3.64D-12 OVMax= 8.80D-08

 SCF Done:  E(RwB97XD) =  -529.923988446     A.U. after   15 cycles
            NFock= 15  Conv=0.58D-08     -V/T= 2.0052
 KE= 5.271842755454D+02 PE=-2.057837821419D+03 EE= 5.971059714009D+02
 Leave Link  502 at Wed May 26 09:20:53 2021, MaxMem=  2147483648 cpu:        30.8
 (Enter /opt/cluster/programs/g09_d.01/g09/l601.exe)
 Copying SCF densities to generalized density rwf, IOpCl= 0 IROHF=0.

 **********************************************************************

            Population analysis using the SCF density.

 **********************************************************************

 Orbital symmetries:
       Occupied  (A) (A) (A) (A) (A) (A) (A) (A) (A) (A) (A) (A)
                 (A) (A) (A) (A) (A) (A) (A) (A) (A) (A) (A) (A)
                 (A) (A) (A) (A) (A) (A) (A) (A)
       Virtual   (A) (A) (A) (A) (A) (A) (A) (A) (A) (A) (A) (A)
                 (A) (A) (A) (A) (A) (A) (A) (A) (A) (A) (A) (A)
                 (A) (A) (A) (A) (A) (A) (A) (A) (A) (A) (A) (A)
                 (A) (A) (A) (A) (A) (A) (A) (A) (A) (A) (A) (A)
                 (A) (A) (A) (A) (A) (A) (A) (A) (A) (A) (A) (A)
                 (A) (A) (A) (A) (A) (A) (A) (A) (A) (A) (A) (A)
                 (A) (A) (A) (A) (A) (A) (A) (A) (A) (A)
 The electronic state is 1-A.
 Alpha  occ. eigenvalues --  -24.88158 -24.88040 -24.87938 -19.30290 -10.58716
 Alpha  occ. eigenvalues --  -10.43890 -10.36416 -10.32710  -1.42961  -1.34531
 Alpha  occ. eigenvalues --   -1.34293  -1.19562  -0.94921  -0.87907  -0.79241
 Alpha  occ. eigenvalues --   -0.70484  -0.69366  -0.68564  -0.63548  -0.59321
 Alpha  occ. eigenvalues --   -0.58882  -0.56287  -0.56222  -0.55479  -0.53699
 Alpha  occ. eigenvalues --   -0.53065  -0.51738  -0.51483  -0.50600  -0.49262
 Alpha  occ. eigenvalues --   -0.46426  -0.36818
 Alpha virt. eigenvalues --    0.01340   0.05307   0.07879   0.09185   0.09787
 Alpha virt. eigenvalues --    0.10202   0.11583   0.12184   0.12275   0.12995
 Alpha virt. eigenvalues --    0.14690   0.15388   0.16324   0.17207   0.18053
 Alpha virt. eigenvalues --    0.18555   0.18924   0.20338   0.22440   0.23341
 Alpha virt. eigenvalues --    0.25160   0.26816   0.28106   0.29867   0.31970
 Alpha virt. eigenvalues --    0.33039   0.33614   0.34958   0.35689   0.37249
 Alpha virt. eigenvalues --    0.37607   0.39009   0.40116   0.40678   0.42950
 Alpha virt. eigenvalues --    0.44093   0.44531   0.44935   0.45312   0.46253
 Alpha virt. eigenvalues --    0.47206   0.51187   0.52680   0.53151   0.57442
 Alpha virt. eigenvalues --    0.70276   0.70920   0.73162   0.75255   0.79363
 Alpha virt. eigenvalues --    0.83341   0.84891   0.86807   0.88874   0.90729
 Alpha virt. eigenvalues --    0.93910   1.05836   1.09520   1.15510   1.16399
 Alpha virt. eigenvalues --    1.19258   1.21755   1.24769   1.34105   1.39544
 Alpha virt. eigenvalues --    1.44736   1.45964   1.51865   1.57203   1.60274
 Alpha virt. eigenvalues --    1.65132   1.68144   1.69154   1.74174   1.79196
 Alpha virt. eigenvalues --    1.82261   1.84291   1.85655   2.00681   2.31449
 Alpha virt. eigenvalues --    2.33615   2.66854
          Condensed to atoms (all electrons):
               1          2          3          4          5          6
     1  C    7.641863  -0.260015   0.321771   0.353075   0.353738  -1.620900
     2  C   -0.260015   6.327946  -0.005186  -0.026619  -0.063478  -0.950616
     3  H    0.321771  -0.005186   0.462260  -0.017475  -0.025387   0.023273
     4  H    0.353075  -0.026619  -0.017475   0.439218  -0.020849   0.025790
     5  H    0.353738  -0.063478  -0.025387  -0.020849   0.485570   0.030470
     6  C   -1.620900  -0.950616   0.023273   0.025790   0.030470   9.024958
     7  O   -0.115295   0.380085   0.001377  -0.004626   0.004772  -0.192580
     8  C    0.062711  -0.001049  -0.010178  -0.002559   0.005432   0.018773
     9  H    0.044061  -0.020705  -0.000751   0.000105  -0.001395   0.313318
    10  H   -0.003727   0.006165   0.000154  -0.000104  -0.000162   0.309125
    11  F   -0.013540   0.050654   0.000150   0.000002   0.000031  -0.165295
    12  F    0.003006   0.019161  -0.000046   0.000011   0.000050  -0.130431
    13  F    0.022817  -0.004334  -0.000043   0.000008  -0.000050  -0.144206
               7          8          9         10         11         12
     1  C   -0.115295   0.062711   0.044061  -0.003727  -0.013540   0.003006
     2  C    0.380085  -0.001049  -0.020705   0.006165   0.050654   0.019161
     3  H    0.001377  -0.010178  -0.000751   0.000154   0.000150  -0.000046
     4  H   -0.004626  -0.002559   0.000105  -0.000104   0.000002   0.000011
     5  H    0.004772   0.005432  -0.001395  -0.000162   0.000031   0.000050
     6  C   -0.192580   0.018773   0.313318   0.309125  -0.165295  -0.130431
     7  O    8.295042   0.014809   0.006202  -0.003108  -0.008032  -0.001125
     8  C    0.014809   5.098711  -0.046325  -0.004119   0.145444   0.133336
     9  H    0.006202  -0.046325   0.459195  -0.021226  -0.004727  -0.002156
    10  H   -0.003108  -0.004119  -0.021226   0.421412   0.007048  -0.001383
    11  F   -0.008032   0.145444  -0.004727   0.007048   9.285940  -0.052180
    12  F   -0.001125   0.133336  -0.002156  -0.001383  -0.052180   9.303741
    13  F    0.011569   0.128787   0.007648  -0.004854  -0.052381  -0.057009
              13
     1  C    0.022817
     2  C   -0.004334
     3  H   -0.000043
     4  H    0.000008
     5  H   -0.000050
     6  C   -0.144206
     7  O    0.011569
     8  C    0.128787
     9  H    0.007648
    10  H   -0.004854
    11  F   -0.052381
    12  F   -0.057009
    13  F    9.264743
 Mulliken charges:
               1
     1  C   -0.789567
     2  C    0.547991
     3  H    0.250081
     4  H    0.254023
     5  H    0.231259
     6  C   -0.541679
     7  O   -0.389088
     8  C    0.456226
     9  H    0.266756
    10  H    0.294781
    11  F   -0.193113
    12  F   -0.214975
    13  F   -0.172695
 Sum of Mulliken charges =   0.00000
 Mulliken charges with hydrogens summed into heavy atoms:
               1
     1  C   -0.054204
     2  C    0.547991
     6  C    0.019858
     7  O   -0.389088
     8  C    0.456226
    11  F   -0.193113
    12  F   -0.214975
    13  F   -0.172695
 Electronic spatial extent (au):  <R**2>=           1000.0395
 Charge=              0.0000 electrons
 Dipole moment (field-independent basis, Debye):
    X=              2.8723    Y=             -3.9752    Z=             -1.4476  Tot=              5.1135
 Quadrupole moment (field-independent basis, Debye-Ang):
   XX=            -46.2460   YY=            -49.6103   ZZ=            -44.6587
   XY=             -5.8079   XZ=             -0.1624   YZ=              0.5332
 Traceless Quadrupole moment (field-independent basis, Debye-Ang):
   XX=              0.5923   YY=             -2.7720   ZZ=              2.1796
   XY=             -5.8079   XZ=             -0.1624   YZ=              0.5332
 Octapole moment (field-independent basis, Debye-Ang**2):
  XXX=             -3.1369  YYY=             -5.7317  ZZZ=             -2.1738  XYY=             -9.3469
  XXY=             -4.5231  XXZ=              3.2864  XZZ=             -4.4951  YZZ=              0.3063
  YYZ=              2.3396  XYZ=             -0.2670
 Hexadecapole moment (field-independent basis, Debye-Ang**3):
 XXXX=           -761.1844 YYYY=           -233.7036 ZZZZ=           -132.3304 XXXY=            -14.1732
 XXXZ=             -2.2809 YYYX=             -5.6421 YYYZ=             -1.5123 ZZZX=              2.4946
 ZZZY=             -1.1108 XXYY=           -182.9987 XXZZ=           -153.5931 YYZZ=            -59.4017
 XXYZ=             -0.9340 YYXZ=             -2.3590 ZZXY=             -0.2294
 N-N= 4.036235860259D+02 E-N=-2.057837821632D+03  KE= 5.271842755454D+02
 No NMR shielding tensors so no spin-rotation constants.
 Leave Link  601 at Wed May 26 09:20:54 2021, MaxMem=  2147483648 cpu:         0.6
 (Enter /opt/cluster/programs/g09_d.01/g09/l701.exe)
 Compute integral first derivatives.
 ... and contract with generalized density number  0.
 R6Disp: Adding Grimme-D2 dispersion energy 1st derivatives to the gradient.
 Leave Link  701 at Wed May 26 09:20:54 2021, MaxMem=  2147483648 cpu:         0.6
 (Enter /opt/cluster/programs/g09_d.01/g09/l702.exe)
 L702 exits ... SP integral derivatives will be done elsewhere.
 Leave Link  702 at Wed May 26 09:20:54 2021, MaxMem=  2147483648 cpu:         0.2
 (Enter /opt/cluster/programs/g09_d.01/g09/l703.exe)
 Compute integral first derivatives, UseDBF=F ICtDFT=           0.
 Integral derivatives from FoFJK, PRISM(SPDF).
 Calling FoFJK, ICntrl=      2127 FMM=F ISym2X=0 I1Cent= 0 IOpClX= 0 NMat=1 NMatS=1 NMatT=0.
 FoFJK:  IHMeth= 1 ICntrl=    2127 DoSepK=T KAlg= 0 I1Cent=   0 FoldK=F
 IRaf=         1 NMat=   1 IRICut=       1 DoRegI=T DoRafI=F ISym2E= 0.
 FoFCou: FMM=F IPFlag=           0 FMFlag=      100000 FMFlg1=         800
         NFxFlg=           0 DoJE=F BraDBF=F KetDBF=F FulRan=T
         wScrn=  0.000000 ICntrl=    2527 IOpCl=  0 I1Cent=           0 NGrid=           0
         NMat0=    1 NMatS0=      1 NMatT0=    0 NMatD0=    1 NMtDS0=    0 NMtDT0=    0
 Symmetry not used in FoFCou.
 Leave Link  703 at Wed May 26 09:20:55 2021, MaxMem=  2147483648 cpu:         8.3
 (Enter /opt/cluster/programs/g09_d.01/g09/l716.exe)
 Dipole        = 1.13004429D+00-1.56396143D+00-5.69530856D-01
 ***** Axes restored to original set *****
 -------------------------------------------------------------------
 Center     Atomic                   Forces (Hartrees/Bohr)
 Number     Number              X              Y              Z
 -------------------------------------------------------------------
      1        6           0.000092259    0.000019060    0.000301179
      2        6          -0.000175757   -0.000105263   -0.000375911
      3        1           0.000005510   -0.000024785   -0.000003074
      4        1           0.000013095    0.000007041    0.000001646
      5        1           0.000000898   -0.000003446    0.000003415
      6        6           0.000106267    0.000368226   -0.000203461
      7        8           0.000001205    0.000043024    0.000021019
      8        6          -0.000105010   -0.000217419    0.000312046
      9        1          -0.000015507   -0.000011498   -0.000028066
     10        1           0.000018388   -0.000012186   -0.000006151
     11        9           0.000011692   -0.000020238   -0.000022010
     12        9           0.000038911   -0.000037589   -0.000005573
     13        9           0.000008048   -0.000004927    0.000004941
 -------------------------------------------------------------------
 Cartesian Forces:  Max     0.000375911 RMS     0.000127681
 Leave Link  716 at Wed May 26 09:20:55 2021, MaxMem=  2147483648 cpu:         0.2
 (Enter /opt/cluster/programs/g09_d.01/g09/l103.exe)

 GradGradGradGradGradGradGradGradGradGradGradGradGradGradGradGradGradGrad
 Berny optimization.
 FormGI is forming the generalized inverse of G from B-inverse, IUseBI=4.
 Internal  Forces:  Max     0.000355798 RMS     0.000078884
 Search for a local minimum.
 Step number   1 out of a maximum of   64
 All quantities printed in internal units (Hartrees-Bohrs-Radians)
 RMS Force = .14186D-04 SwitMx=.10000D-02 MixMth= 2
 Mixed Optimization -- En-DIIS/RFO-DIIS
 Second derivative matrix not updated -- first step.
 ITU=  0
     Eigenvalues ---    0.00499   0.00710   0.00729   0.02950   0.05572
     Eigenvalues ---    0.07272   0.07487   0.08082   0.08779   0.09574
     Eigenvalues ---    0.11929   0.16000   0.16000   0.16000   0.22030
     Eigenvalues ---    0.24997   0.25000   0.25000   0.25000   0.25000
     Eigenvalues ---    0.29508   0.31936   0.32089   0.33986   0.34117
     Eigenvalues ---    0.34138   0.34503   0.34778   0.45890   0.47021
     Eigenvalues ---    0.48933   0.905721000.000001000.000001000.00000
     Eigenvalues --- 1000.000001000.000001000.000001000.000001000.00000
     Eigenvalues --- 1000.000001000.000001000.000001000.000001000.00000
     Eigenvalues --- 1000.000001000.000001000.000001000.000001000.00000
     Eigenvalues --- 1000.000001000.000001000.000001000.00000
 RFO step:  Lambda=-6.32406751D-08 EMin= 4.98876139D-03
 Linear search not attempted -- first point.
 Iteration  1 RMS(Cart)=  0.00030836 RMS(Int)=  0.00000006
 Iteration  2 RMS(Cart)=  0.00000007 RMS(Int)=  0.00000001
 Iteration  1 RMS(Cart)=  0.00000000 RMS(Int)=  0.00000000
 ITry= 1 IFail=0 DXMaxC= 8.94D-04 DCOld= 1.00D+10 DXMaxT= 3.00D-01 DXLimC= 3.00D+00 Rises=F
 Variable       Old X    -DE/DX   Delta X   Delta X   Delta X     New X
                                 (Linear)    (Quad)   (Total)
    R1        2.83981   0.00002   0.00000   0.00008   0.00008   2.83988
    R2        2.07353  -0.00002   0.00000  -0.00006  -0.00006   2.07347
    R3        2.06037   0.00001   0.00000   0.00003   0.00003   2.06040
    R4        2.07133   0.00000   0.00000   0.00001   0.00001   2.07133
    R5        2.88956   0.00000   0.00000   0.00001   0.00001   2.88957
    R6        2.32671  -0.00004   0.00000  -0.00005  -0.00005   2.32666
    R7        2.84261   0.00002   0.00000   0.00007   0.00007   2.84267
    R8        2.06490  -0.00001   0.00000  -0.00002  -0.00002   2.06487
    R9        2.07097  -0.00001   0.00000  -0.00002  -0.00002   2.07095
   R10        2.62996   0.00003   0.00000   0.00006   0.00006   2.63002
   R11        2.64256  -0.00005   0.00000  -0.00011  -0.00011   2.64245
   R12        2.60957   0.00000   0.00000  -0.00001  -0.00001   2.60956
    A1        1.91011   0.00001   0.00000   0.00009   0.00009   1.91020
    A2        1.91992   0.00001   0.00000   0.00000   0.00000   1.91992
    A3        1.93774  -0.00002   0.00000  -0.00011  -0.00011   1.93764
    A4        1.90526  -0.00001   0.00000  -0.00004  -0.00004   1.90522
    A5        1.87344   0.00002   0.00000   0.00018   0.00018   1.87362
    A6        1.91657  -0.00001   0.00000  -0.00012  -0.00012   1.91645
    A7        2.02045   0.00000   0.00000   0.00001   0.00001   2.02045
    A8        2.14295   0.00000   0.00000   0.00002   0.00002   2.14297
    A9        2.11970  -0.00001   0.00000  -0.00003  -0.00003   2.11967
   A10        2.00323  -0.00001   0.00000  -0.00011  -0.00011   2.00313
   A11        1.92628   0.00001   0.00000   0.00009   0.00009   1.92637
   A12        1.89588  -0.00001   0.00000  -0.00017  -0.00017   1.89571
   A13        1.87394   0.00014   0.00000  -0.00011  -0.00011   1.87383
   A14        1.88255  -0.00014   0.00000   0.00009   0.00009   1.88264
   A15        1.87775   0.00001   0.00000   0.00023   0.00023   1.87798
   A16        1.95254  -0.00002   0.00000  -0.00010  -0.00010   1.95244
   A17        1.92105   0.00000   0.00000   0.00000   0.00000   1.92106
   A18        1.99018   0.00001   0.00000   0.00004   0.00004   1.99022
   A19        1.85741   0.00001   0.00000   0.00006   0.00006   1.85748
   A20        1.87665   0.00000   0.00000  -0.00004  -0.00004   1.87661
   A21        1.85893   0.00000   0.00000   0.00004   0.00004   1.85897
    D1       -1.20903  -0.00009   0.00000  -0.00056  -0.00056  -1.20959
    D2        1.94642   0.00007   0.00000   0.00001   0.00001   1.94643
    D3        2.98097  -0.00009   0.00000  -0.00056  -0.00056   2.98041
    D4       -0.14676   0.00007   0.00000   0.00000   0.00000  -0.14676
    D5        0.85590  -0.00007   0.00000  -0.00035  -0.00035   0.85555
    D6       -2.27183   0.00009   0.00000   0.00022   0.00022  -2.27162
    D7        2.43968   0.00036   0.00000   0.00000   0.00000   2.43968
    D8        0.31960   0.00017   0.00000   0.00015   0.00015   0.31975
    D9       -1.73512   0.00016   0.00000  -0.00008  -0.00008  -1.73520
   D10       -0.71557   0.00020   0.00000  -0.00056  -0.00056  -0.71613
   D11       -2.83566   0.00002   0.00000  -0.00041  -0.00041  -2.83606
   D12        1.39282   0.00001   0.00000  -0.00063  -0.00063   1.39218
   D13       -0.94194  -0.00008   0.00000  -0.00025  -0.00025  -0.94219
   D14       -3.00315  -0.00008   0.00000  -0.00026  -0.00026  -3.00341
   D15        1.19244  -0.00008   0.00000  -0.00034  -0.00034   1.19209
   D16        1.20645   0.00003   0.00000  -0.00028  -0.00028   1.20617
   D17       -0.85475   0.00003   0.00000  -0.00030  -0.00030  -0.85505
   D18       -2.94235   0.00003   0.00000  -0.00038  -0.00038  -2.94273
   D19       -3.05764   0.00005   0.00000  -0.00003  -0.00003  -3.05766
   D20        1.16434   0.00005   0.00000  -0.00004  -0.00004   1.16430
   D21       -0.92326   0.00004   0.00000  -0.00012  -0.00012  -0.92338
         Item               Value     Threshold  Converged?
 Maximum Force            0.000050     0.000450     YES
 RMS     Force            0.000014     0.000300     YES
 Maximum Displacement     0.000894     0.001800     YES
 RMS     Displacement     0.000308     0.001200     YES
 Predicted change in Energy=-3.162451D-08
 Optimization completed.
    -- Stationary point found.
                           ----------------------------
                           !   Optimized Parameters   !
                           ! (Angstroms and Degrees)  !
 --------------------------                            --------------------------
 ! Name  Definition              Value          Derivative Info.                !
 --------------------------------------------------------------------------------
 ! R1    R(1,2)                  1.5028         -DE/DX =    0.0                 !
 ! R2    R(1,3)                  1.0973         -DE/DX =    0.0                 !
 ! R3    R(1,4)                  1.0903         -DE/DX =    0.0                 !
 ! R4    R(1,5)                  1.0961         -DE/DX =    0.0                 !
 ! R5    R(2,6)                  1.5291         -DE/DX =    0.0                 !
 ! R6    R(2,7)                  1.2312         -DE/DX =    0.0                 !
 ! R7    R(6,8)                  1.5042         -DE/DX =    0.0                 !
 ! R8    R(6,9)                  1.0927         -DE/DX =    0.0                 !
 ! R9    R(6,10)                 1.0959         -DE/DX =    0.0                 !
 ! R10   R(8,11)                 1.3917         -DE/DX =    0.0                 !
 ! R11   R(8,12)                 1.3984         -DE/DX =    0.0                 !
 ! R12   R(8,13)                 1.3809         -DE/DX =    0.0                 !
 ! A1    A(2,1,3)              109.4413         -DE/DX =    0.0                 !
 ! A2    A(2,1,4)              110.0034         -DE/DX =    0.0                 !
 ! A3    A(2,1,5)              111.0244         -DE/DX =    0.0                 !
 ! A4    A(3,1,4)              109.1634         -DE/DX =    0.0                 !
 ! A5    A(3,1,5)              107.3401         -DE/DX =    0.0                 !
 ! A6    A(4,1,5)              109.8113         -DE/DX =    0.0                 !
 ! A7    A(1,2,6)              115.7631         -DE/DX =    0.0                 !
 ! A8    A(1,2,7)              122.782          -DE/DX =    0.0                 !
 ! A9    A(6,2,7)              121.4501         -DE/DX =    0.0                 !
 ! A10   A(2,6,8)              114.7768         -DE/DX =    0.0                 !
 ! A11   A(2,6,9)              110.3675         -DE/DX =    0.0                 !
 ! A12   A(2,6,10)             108.6258         -DE/DX =    0.0                 !
 ! A13   A(8,6,9)              107.369          -DE/DX =    0.0001              !
 ! A14   A(8,6,10)             107.8624         -DE/DX =   -0.0001              !
 ! A15   A(9,6,10)             107.5874         -DE/DX =    0.0                 !
 ! A16   A(6,8,11)             111.8724         -DE/DX =    0.0                 !
 ! A17   A(6,8,12)             110.0683         -DE/DX =    0.0                 !
 ! A18   A(6,8,13)             114.0288         -DE/DX =    0.0                 !
 ! A19   A(11,8,12)            106.422          -DE/DX =    0.0                 !
 ! A20   A(11,8,13)            107.5239         -DE/DX =    0.0                 !
 ! A21   A(12,8,13)            106.5087         -DE/DX =    0.0                 !
 ! D1    D(3,1,2,6)            -69.2724         -DE/DX =   -0.0001              !
 ! D2    D(3,1,2,7)            111.5217         -DE/DX =    0.0001              !
 ! D3    D(4,1,2,6)            170.7969         -DE/DX =   -0.0001              !
 ! D4    D(4,1,2,7)             -8.409          -DE/DX =    0.0001              !
 ! D5    D(5,1,2,6)             49.0394         -DE/DX =   -0.0001              !
 ! D6    D(5,1,2,7)           -130.1665         -DE/DX =    0.0001              !
 ! D7    D(1,2,6,8)            139.7833         -DE/DX =    0.0004              !
 ! D8    D(1,2,6,9)             18.3115         -DE/DX =    0.0002              !
 ! D9    D(1,2,6,10)           -99.4149         -DE/DX =    0.0002              !
 ! D10   D(7,2,6,8)            -40.9994         -DE/DX =    0.0002              !
 ! D11   D(7,2,6,9)           -162.4711         -DE/DX =    0.0                 !
 ! D12   D(7,2,6,10)            79.8024         -DE/DX =    0.0                 !
 ! D13   D(2,6,8,11)           -53.9693         -DE/DX =   -0.0001              !
 ! D14   D(2,6,8,12)          -172.0676         -DE/DX =   -0.0001              !
 ! D15   D(2,6,8,13)            68.3216         -DE/DX =   -0.0001              !
 ! D16   D(9,6,8,11)            69.1247         -DE/DX =    0.0                 !
 ! D17   D(9,6,8,12)           -48.9736         -DE/DX =    0.0                 !
 ! D18   D(9,6,8,13)          -168.5844         -DE/DX =    0.0                 !
 ! D19   D(10,6,8,11)         -175.1898         -DE/DX =    0.0                 !
 ! D20   D(10,6,8,12)           66.712          -DE/DX =    0.0                 !
 ! D21   D(10,6,8,13)          -52.8988         -DE/DX =    0.0                 !
 --------------------------------------------------------------------------------
 Lowest energy point so far.  Saving SCF results.
 GradGradGradGradGradGradGradGradGradGradGradGradGradGradGradGradGradGrad

 Largest change from initial coordinates is atom    8       0.000 Angstoms.
 Leave Link  103 at Wed May 26 09:20:55 2021, MaxMem=  2147483648 cpu:         0.1
 (Enter /opt/cluster/programs/g09_d.01/g09/l202.exe)
                          Input orientation:                          
 ---------------------------------------------------------------------
 Center     Atomic      Atomic             Coordinates (Angstroms)
 Number     Number       Type             X           Y           Z
 ---------------------------------------------------------------------
      1          6           0        2.672215    0.738452   -0.112799
      2          6           0        1.475106   -0.131619    0.148346
      3          1           0        2.492948    1.347223   -1.007927
      4          1           0        3.555566    0.119482   -0.271937
      5          1           0        2.846910    1.427669    0.721404
      6          6           0        0.210749    0.597108    0.604940
      7          8           0        1.500499   -1.356043    0.021493
      8          6           0       -1.067192    0.079411    0.003603
      9          1           0        0.277026    1.660902    0.364242
     10          1           0        0.129748    0.508489    1.694254
     11          9           0       -1.012763    0.053606   -1.386809
     12          9           0       -2.131935    0.920400    0.342021
     13          9           0       -1.416574   -1.186843    0.429619
 ---------------------------------------------------------------------
                    Distance matrix (angstroms):
                    1          2          3          4          5
     1  C    0.000000
     2  C    1.502761   0.000000
     3  H    1.097266   2.135402   0.000000
     4  H    1.090302   2.137289   1.782747   0.000000
     5  H    1.096099   2.154442   1.767016   1.788931   0.000000
     6  C    2.567867   1.529091   2.893518   3.490679   2.766359
     7  O    2.403718   1.231239   3.058154   2.546876   3.170450
     8  C    3.798822   2.555144   3.912178   4.631136   4.201575
     9  H    2.610634   2.166827   2.625177   3.678250   2.605046
    10  H    3.127693   2.146988   3.686458   3.969063   3.028910
    11  F    3.958684   2.929249   3.755929   4.702862   4.607568
    12  F    4.829060   3.762313   4.836743   5.776338   5.018979
    13  F    4.551832   3.091023   4.875694   5.188530   5.009801
                    6          7          8          9         10
     6  C    0.000000
     7  O    2.412191   0.000000
     8  C    1.504244   2.941749   0.000000
     9  H    1.092697   3.273579   2.106679   0.000000
    10  H    1.095910   2.855445   2.115437   1.765978   0.000000
    11  F    2.399883   3.207321   1.391716   2.704281   3.317408
    12  F    2.379456   4.298780   1.398380   2.520304   2.667099
    13  F    2.421033   2.950341   1.380926   3.313941   2.620031
                   11         12         13
    11  F    0.000000
    12  F    2.234442   0.000000
    13  F    2.236334   2.227081   0.000000
 Stoichiometry    C4H5F3O
 Framework group  C1[X(C4H5F3O)]
 Deg. of freedom    33
 Full point group                 C1      NOp   1
 RotChk:  IX=0 Diff= 1.40D-15
 Largest Abelian subgroup         C1      NOp   1
 Largest concise Abelian subgroup C1      NOp   1
                         Standard orientation:                         
 ---------------------------------------------------------------------
 Center     Atomic      Atomic             Coordinates (Angstroms)
 Number     Number       Type             X           Y           Z
 ---------------------------------------------------------------------
      1          6           0        2.672215   -0.738452    0.112799
      2          6           0        1.475106    0.131619   -0.148346
      3          1           0        2.492948   -1.347223    1.007927
      4          1           0        3.555566   -0.119482    0.271937
      5          1           0        2.846910   -1.427669   -0.721404
      6          6           0        0.210749   -0.597108   -0.604940
      7          8           0        1.500499    1.356043   -0.021493
      8          6           0       -1.067192   -0.079411   -0.003603
      9          1           0        0.277026   -1.660902   -0.364242
     10          1           0        0.129748   -0.508489   -1.694254
     11          9           0       -1.012763   -0.053606    1.386809
     12          9           0       -2.131935   -0.920400   -0.342021
     13          9           0       -1.416574    1.186843   -0.429619
 ---------------------------------------------------------------------
 Rotational constants (GHZ):      3.5717484      1.3170300      1.1977607
 Leave Link  202 at Wed May 26 09:20:55 2021, MaxMem=  2147483648 cpu:         0.0
 (Enter /opt/cluster/programs/g09_d.01/g09/l9999.exe)
 1\1\GINC-NODE07\FOpt\RwB97XD\6-31+G\C4H5F3O1\BOITTIER\26-May-2021\0\\#
 p wB97XD/6-31+G Opt=ModRedun\\N.pdb\\0,1\C,2.672215,0.738452,-0.112799
 \C,1.475106,-0.131619,0.148346\H,2.492948,1.347223,-1.007927\H,3.55556
 6,0.119482,-0.271937\H,2.84691,1.427669,0.721404\C,0.210749,0.597108,0
 .60494\O,1.500499,-1.356043,0.021493\C,-1.067192,0.079411,0.003603\H,0
 .277026,1.660902,0.364242\H,0.129748,0.508489,1.694254\F,-1.012763,0.0
 53606,-1.386809\F,-2.131935,0.9204,0.342021\F,-1.416574,-1.186843,0.42
 9619\\Version=ES64L-G09RevD.01\State=1-A\HF=-529.9239884\RMSD=5.795e-0
 9\RMSF=1.277e-04\Dipole=1.1300443,1.5639614,0.5695309\Quadrupole=0.440
 3812,-2.0608931,1.6205119,4.3180438,0.1207238,0.3964445\PG=C01 [X(C4H5
 F3O1)]\\@


 YOU SHOULDN'T LET PEOPLE DRIVE YOU CRAZY
 WHEN YOU KNOW IT'S WITHIN WALKING DISTANCE.
 Job cpu time:       0 days  0 hours  0 minutes 49.3 seconds.
 File lengths (MBytes):  RWF=      7 Int=      0 D2E=      0 Chk=      3 Scr=      1
 Normal termination of Gaussian 09 at Wed May 26 09:20:55 2021.
