N.pdb                                                                   
FOpt      RwB97XD                                                     6-31+G              
Number of atoms                            I               13
Info1-9                                    I   N=           9
          24          24           0           0           0         100
           2          18        -802
Charge                                     I                0
Multiplicity                               I                1
Number of electrons                        I               64
Number of alpha electrons                  I               32
Number of beta electrons                   I               32
Number of basis functions                  I              114
Number of independent functions            I              114
Number of point charges in /Mol/           I                0
Number of translation vectors              I                0
Atomic numbers                             I   N=          13
           6           6           1           1           1           6
           8           6           1           1           9           9
           9
Nuclear charges                            R   N=          13
  6.00000000E+00  6.00000000E+00  1.00000000E+00  1.00000000E+00  1.00000000E+00
  6.00000000E+00  8.00000000E+00  6.00000000E+00  1.00000000E+00  1.00000000E+00
  9.00000000E+00  9.00000000E+00  9.00000000E+00
Current cartesian coordinates              R   N=          39
  5.04975422E+00 -1.39547207E+00  2.13159189E-01  2.78754606E+00  2.48723851E-01
 -2.80333342E-01  4.71098868E+00 -2.54588253E+00  1.90470596E+00  6.71904569E+00
 -2.25788289E-01  5.13886426E-01  5.37987992E+00 -2.69790344E+00 -1.36325602E+00
  3.98257592E-01 -1.12837059E+00 -1.14317096E+00  2.83553189E+00  2.56254988E+00
 -4.06159133E-02 -2.01670091E+00 -1.50065033E-01 -6.80871278E-03  5.23502962E-01
 -3.13864992E+00 -6.88317656E-01  2.45187887E-01 -9.60904953E-01 -3.20167609E+00
 -1.91384500E+00 -1.01300650E-01  2.62068918E+00 -4.02877359E+00 -1.73930391E+00
 -6.46326051E-01 -2.67693719E+00  2.24280825E+00 -8.11862281E-01
Force Field                                I                0
Int Atom Types                             I   N=          13
           0           0           0           0           0           0
           0           0           0           0           0           0
           0
MM charges                                 R   N=          13
  0.00000000E+00  0.00000000E+00  0.00000000E+00  0.00000000E+00  0.00000000E+00
  0.00000000E+00  0.00000000E+00  0.00000000E+00  0.00000000E+00  0.00000000E+00
  0.00000000E+00  0.00000000E+00  0.00000000E+00
Integer atomic weights                     I   N=          13
          12          12           1           1           1          12
          16          12           1           1          19          19
          19
Real atomic weights                        R   N=          13
  1.20000000E+01  1.20000000E+01  1.00782504E+00  1.00782504E+00  1.00782504E+00
  1.20000000E+01  1.59949146E+01  1.20000000E+01  1.00782504E+00  1.00782504E+00
  1.89984032E+01  1.89984032E+01  1.89984032E+01
Atom fragment info                         I   N=          13
           0           0           0           0           0           0
           0           0           0           0           0           0
           0
Atom residue num                           I   N=          13
           0           0           0           0           0           0
           0           0           0           0           0           0
           0
Nuclear spins                              I   N=          13
           0           0           1           1           1           0
           0           0           1           1           1           1
           1
Nuclear ZEff                               R   N=          13
 -3.60000000E+00 -3.60000000E+00 -1.00000000E+00 -1.00000000E+00 -1.00000000E+00
 -3.60000000E+00 -5.60000000E+00 -3.60000000E+00 -1.00000000E+00 -1.00000000E+00
 -6.75000000E+00 -6.75000000E+00 -6.75000000E+00
Nuclear ZNuc                               R   N=          13
  6.00000000E+00  6.00000000E+00  1.00000000E+00  1.00000000E+00  1.00000000E+00
  6.00000000E+00  8.00000000E+00  6.00000000E+00  1.00000000E+00  1.00000000E+00
  9.00000000E+00  9.00000000E+00  9.00000000E+00
Nuclear QMom                               R   N=          13
  0.00000000E+00  0.00000000E+00  0.00000000E+00  0.00000000E+00  0.00000000E+00
  0.00000000E+00  0.00000000E+00  0.00000000E+00  0.00000000E+00  0.00000000E+00
  0.00000000E+00  0.00000000E+00  0.00000000E+00
Nuclear GFac                               R   N=          13
  0.00000000E+00  0.00000000E+00  2.79284600E+00  2.79284600E+00  2.79284600E+00
  0.00000000E+00  0.00000000E+00  0.00000000E+00  2.79284600E+00  2.79284600E+00
  2.62886700E+00  2.62886700E+00  2.62886700E+00
MicOpt                                     I   N=          13
          -1          -1          -1          -1          -1          -1
          -1          -1          -1          -1          -1          -1
          -1
Number of contracted shells                I               42
Number of primitive shells                 I              108
Pure/Cartesian d shells                    I                1
Pure/Cartesian f shells                    I                0
Highest angular momentum                   I                1
Largest degree of contraction              I                6
Shell types                                I   N=          42
           0          -1          -1          -1           0          -1
          -1          -1           0           0           0           0
           0           0           0          -1          -1          -1
           0          -1          -1          -1           0          -1
          -1          -1           0           0           0           0
           0          -1          -1          -1           0          -1
          -1          -1           0          -1          -1          -1
Number of primitives per shell             I   N=          42
           6           3           1           1           6           3
           1           1           3           1           3           1
           3           1           6           3           1           1
           6           3           1           1           6           3
           1           1           3           1           3           1
           6           3           1           1           6           3
           1           1           6           3           1           1
Shell to atom map                          I   N=          42
           1           1           1           1           2           2
           2           2           3           3           4           4
           5           5           6           6           6           6
           7           7           7           7           8           8
           8           8           9           9          10          10
          11          11          11          11          12          12
          12          12          13          13          13          13
Primitive exponents                        R   N=         108
  3.04752488E+03  4.57369518E+02  1.03948685E+02  2.92101553E+01  9.28666296E+00
  3.16392696E+00  7.86827235E+00  1.88128854E+00  5.44249258E-01  1.68714478E-01
  4.38000000E-02  3.04752488E+03  4.57369518E+02  1.03948685E+02  2.92101553E+01
  9.28666296E+00  3.16392696E+00  7.86827235E+00  1.88128854E+00  5.44249258E-01
  1.68714478E-01  4.38000000E-02  1.87311370E+01  2.82539436E+00  6.40121692E-01
  1.61277759E-01  1.87311370E+01  2.82539436E+00  6.40121692E-01  1.61277759E-01
  1.87311370E+01  2.82539436E+00  6.40121692E-01  1.61277759E-01  3.04752488E+03
  4.57369518E+02  1.03948685E+02  2.92101553E+01  9.28666296E+00  3.16392696E+00
  7.86827235E+00  1.88128854E+00  5.44249258E-01  1.68714478E-01  4.38000000E-02
  5.48467166E+03  8.25234946E+02  1.88046958E+02  5.29645000E+01  1.68975704E+01
  5.79963534E+00  1.55396162E+01  3.59993359E+00  1.01376175E+00  2.70005823E-01
  8.45000000E-02  3.04752488E+03  4.57369518E+02  1.03948685E+02  2.92101553E+01
  9.28666296E+00  3.16392696E+00  7.86827235E+00  1.88128854E+00  5.44249258E-01
  1.68714478E-01  4.38000000E-02  1.87311370E+01  2.82539436E+00  6.40121692E-01
  1.61277759E-01  1.87311370E+01  2.82539436E+00  6.40121692E-01  1.61277759E-01
  7.00171309E+03  1.05136609E+03  2.39285690E+02  6.73974453E+01  2.15199573E+01
  7.40310130E+00  2.08479528E+01  4.80830834E+00  1.34406986E+00  3.58151393E-01
  1.07600000E-01  7.00171309E+03  1.05136609E+03  2.39285690E+02  6.73974453E+01
  2.15199573E+01  7.40310130E+00  2.08479528E+01  4.80830834E+00  1.34406986E+00
  3.58151393E-01  1.07600000E-01  7.00171309E+03  1.05136609E+03  2.39285690E+02
  6.73974453E+01  2.15199573E+01  7.40310130E+00  2.08479528E+01  4.80830834E+00
  1.34406986E+00  3.58151393E-01  1.07600000E-01
Contraction coefficients                   R   N=         108
  1.83473713E-03  1.40373228E-02  6.88426223E-02  2.32184443E-01  4.67941348E-01
  3.62311985E-01 -1.19332420E-01 -1.60854152E-01  1.14345644E+00  1.00000000E+00
  1.00000000E+00  1.83473713E-03  1.40373228E-02  6.88426223E-02  2.32184443E-01
  4.67941348E-01  3.62311985E-01 -1.19332420E-01 -1.60854152E-01  1.14345644E+00
  1.00000000E+00  1.00000000E+00  3.34946043E-02  2.34726953E-01  8.13757326E-01
  1.00000000E+00  3.34946043E-02  2.34726953E-01  8.13757326E-01  1.00000000E+00
  3.34946043E-02  2.34726953E-01  8.13757326E-01  1.00000000E+00  1.83473713E-03
  1.40373228E-02  6.88426223E-02  2.32184443E-01  4.67941348E-01  3.62311985E-01
 -1.19332420E-01 -1.60854152E-01  1.14345644E+00  1.00000000E+00  1.00000000E+00
  1.83107443E-03  1.39501722E-02  6.84450781E-02  2.32714336E-01  4.70192898E-01
  3.58520853E-01 -1.10777550E-01 -1.48026263E-01  1.13076702E+00  1.00000000E+00
  1.00000000E+00  1.83473713E-03  1.40373228E-02  6.88426223E-02  2.32184443E-01
  4.67941348E-01  3.62311985E-01 -1.19332420E-01 -1.60854152E-01  1.14345644E+00
  1.00000000E+00  1.00000000E+00  3.34946043E-02  2.34726953E-01  8.13757326E-01
  1.00000000E+00  3.34946043E-02  2.34726953E-01  8.13757326E-01  1.00000000E+00
  1.81961690E-03  1.39160796E-02  6.84053245E-02  2.33185760E-01  4.71267439E-01
  3.56618546E-01 -1.08506975E-01 -1.46451658E-01  1.12868858E+00  1.00000000E+00
  1.00000000E+00  1.81961690E-03  1.39160796E-02  6.84053245E-02  2.33185760E-01
  4.71267439E-01  3.56618546E-01 -1.08506975E-01 -1.46451658E-01  1.12868858E+00
  1.00000000E+00  1.00000000E+00  1.81961690E-03  1.39160796E-02  6.84053245E-02
  2.33185760E-01  4.71267439E-01  3.56618546E-01 -1.08506975E-01 -1.46451658E-01
  1.12868858E+00  1.00000000E+00  1.00000000E+00
P(S=P) Contraction coefficients            R   N=         108
  0.00000000E+00  0.00000000E+00  0.00000000E+00  0.00000000E+00  0.00000000E+00
  0.00000000E+00  6.89990666E-02  3.16423961E-01  7.44308291E-01  1.00000000E+00
  1.00000000E+00  0.00000000E+00  0.00000000E+00  0.00000000E+00  0.00000000E+00
  0.00000000E+00  0.00000000E+00  6.89990666E-02  3.16423961E-01  7.44308291E-01
  1.00000000E+00  1.00000000E+00  0.00000000E+00  0.00000000E+00  0.00000000E+00
  0.00000000E+00  0.00000000E+00  0.00000000E+00  0.00000000E+00  0.00000000E+00
  0.00000000E+00  0.00000000E+00  0.00000000E+00  0.00000000E+00  0.00000000E+00
  0.00000000E+00  0.00000000E+00  0.00000000E+00  0.00000000E+00  0.00000000E+00
  6.89990666E-02  3.16423961E-01  7.44308291E-01  1.00000000E+00  1.00000000E+00
  0.00000000E+00  0.00000000E+00  0.00000000E+00  0.00000000E+00  0.00000000E+00
  0.00000000E+00  7.08742682E-02  3.39752839E-01  7.27158577E-01  1.00000000E+00
  1.00000000E+00  0.00000000E+00  0.00000000E+00  0.00000000E+00  0.00000000E+00
  0.00000000E+00  0.00000000E+00  6.89990666E-02  3.16423961E-01  7.44308291E-01
  1.00000000E+00  1.00000000E+00  0.00000000E+00  0.00000000E+00  0.00000000E+00
  0.00000000E+00  0.00000000E+00  0.00000000E+00  0.00000000E+00  0.00000000E+00
  0.00000000E+00  0.00000000E+00  0.00000000E+00  0.00000000E+00  0.00000000E+00
  0.00000000E+00  7.16287242E-02  3.45912103E-01  7.22469956E-01  1.00000000E+00
  1.00000000E+00  0.00000000E+00  0.00000000E+00  0.00000000E+00  0.00000000E+00
  0.00000000E+00  0.00000000E+00  7.16287242E-02  3.45912103E-01  7.22469956E-01
  1.00000000E+00  1.00000000E+00  0.00000000E+00  0.00000000E+00  0.00000000E+00
  0.00000000E+00  0.00000000E+00  0.00000000E+00  7.16287242E-02  3.45912103E-01
  7.22469956E-01  1.00000000E+00  1.00000000E+00
Coordinates of each shell                  R   N=         126
  5.04975422E+00 -1.39547207E+00  2.13159189E-01  5.04975422E+00 -1.39547207E+00
  2.13159189E-01  5.04975422E+00 -1.39547207E+00  2.13159189E-01  5.04975422E+00
 -1.39547207E+00  2.13159189E-01  2.78754606E+00  2.48723851E-01 -2.80333342E-01
  2.78754606E+00  2.48723851E-01 -2.80333342E-01  2.78754606E+00  2.48723851E-01
 -2.80333342E-01  2.78754606E+00  2.48723851E-01 -2.80333342E-01  4.71098868E+00
 -2.54588253E+00  1.90470596E+00  4.71098868E+00 -2.54588253E+00  1.90470596E+00
  6.71904569E+00 -2.25788289E-01  5.13886426E-01  6.71904569E+00 -2.25788289E-01
  5.13886426E-01  5.37987992E+00 -2.69790344E+00 -1.36325602E+00  5.37987992E+00
 -2.69790344E+00 -1.36325602E+00  3.98257592E-01 -1.12837059E+00 -1.14317096E+00
  3.98257592E-01 -1.12837059E+00 -1.14317096E+00  3.98257592E-01 -1.12837059E+00
 -1.14317096E+00  3.98257592E-01 -1.12837059E+00 -1.14317096E+00  2.83553189E+00
  2.56254988E+00 -4.06159133E-02  2.83553189E+00  2.56254988E+00 -4.06159133E-02
  2.83553189E+00  2.56254988E+00 -4.06159133E-02  2.83553189E+00  2.56254988E+00
 -4.06159133E-02 -2.01670091E+00 -1.50065033E-01 -6.80871278E-03 -2.01670091E+00
 -1.50065033E-01 -6.80871278E-03 -2.01670091E+00 -1.50065033E-01 -6.80871278E-03
 -2.01670091E+00 -1.50065033E-01 -6.80871278E-03  5.23502962E-01 -3.13864992E+00
 -6.88317656E-01  5.23502962E-01 -3.13864992E+00 -6.88317656E-01  2.45187887E-01
 -9.60904953E-01 -3.20167609E+00  2.45187887E-01 -9.60904953E-01 -3.20167609E+00
 -1.91384500E+00 -1.01300650E-01  2.62068918E+00 -1.91384500E+00 -1.01300650E-01
  2.62068918E+00 -1.91384500E+00 -1.01300650E-01  2.62068918E+00 -1.91384500E+00
 -1.01300650E-01  2.62068918E+00 -4.02877359E+00 -1.73930391E+00 -6.46326051E-01
 -4.02877359E+00 -1.73930391E+00 -6.46326051E-01 -4.02877359E+00 -1.73930391E+00
 -6.46326051E-01 -4.02877359E+00 -1.73930391E+00 -6.46326051E-01 -2.67693719E+00
  2.24280825E+00 -8.11862281E-01 -2.67693719E+00  2.24280825E+00 -8.11862281E-01
 -2.67693719E+00  2.24280825E+00 -8.11862281E-01 -2.67693719E+00  2.24280825E+00
 -8.11862281E-01
Constraint Structure                       R   N=          39
  5.04975422E+00 -1.39547207E+00  2.13159189E-01  2.78754606E+00  2.48723851E-01
 -2.80333342E-01  4.71098868E+00 -2.54588253E+00  1.90470596E+00  6.71904569E+00
 -2.25788289E-01  5.13886426E-01  5.37987992E+00 -2.69790344E+00 -1.36325602E+00
  3.98257592E-01 -1.12837059E+00 -1.14317096E+00  2.83553189E+00  2.56254988E+00
 -4.06159133E-02 -2.01670091E+00 -1.50065033E-01 -6.80871278E-03  5.23502962E-01
 -3.13864992E+00 -6.88317656E-01  2.45187887E-01 -9.60904953E-01 -3.20167609E+00
 -1.91384500E+00 -1.01300650E-01  2.62068918E+00 -4.02877359E+00 -1.73930391E+00
 -6.46326051E-01 -2.67693719E+00  2.24280825E+00 -8.11862281E-01
Num ILSW                                   I              100
ILSW                                       I   N=         100
           0           1           0           0           2           0
           0           0           0           0        4639          -1
           0           0           0           0           2           0
           0           0           0           0           1           0
           1           0           0           0           0           0
           0           0      100000           0          -1           0
           0           0           0           0           0           0
           0           0           0           1           0           0
           0           0           1           0           0           0
           0           0         121          41           0           0
           0           0          58           0           0           0
           0           0           0          13           0           0
           0           0           0           0           0           0
           0           0           0           0           0           0
           0           0           0           0           0           0
           0           0           0           0           0           0
           0           0           0           0
Num RLSW                                   I               41
RLSW                                       R   N=          41
  1.00000000E+00  1.00000000E+00  1.00000000E+00  1.00000000E+00  1.00000000E+00
  0.00000000E+00  2.00000000E-01  2.22036000E-01  0.00000000E+00  7.77964000E-01
  0.00000000E+00  2.00000000E-01  0.00000000E+00  0.00000000E+00  1.00000000E+00
  0.00000000E+00  0.00000000E+00  1.00000000E+00  0.00000000E+00  0.00000000E+00
  0.00000000E+00  0.00000000E+00  1.00000000E+00  0.00000000E+00  0.00000000E+00
  0.00000000E+00  0.00000000E+00  1.00000000E+00  0.00000000E+00  0.00000000E+00
  0.00000000E+00  0.00000000E+00  1.00000000E+00  0.00000000E+00  0.00000000E+00
  0.00000000E+00  0.00000000E+00  0.00000000E+00  1.00000000E+00  1.00000000E+00
  0.00000000E+00
MxBond                                     I                4
NBond                                      I   N=          13
           4           3           1           1           1           4
           1           4           1           1           1           1
           1
IBond                                      I   N=          52
           2           3           4           5           1           6
           7           0           1           0           0           0
           1           0           0           0           1           0
           0           0           2           8           9          10
           2           0           0           0           6          11
          12          13           6           0           0           0
           6           0           0           0           8           0
           0           0           8           0           0           0
           8           0           0           0
RBond                                      R   N=          52
  1.00000000E+00  1.00000000E+00  1.00000000E+00  1.00000000E+00  1.00000000E+00
  1.00000000E+00  2.00000000E+00  0.00000000E+00  1.00000000E+00  0.00000000E+00
  0.00000000E+00  0.00000000E+00  1.00000000E+00  0.00000000E+00  0.00000000E+00
  0.00000000E+00  1.00000000E+00  0.00000000E+00  0.00000000E+00  0.00000000E+00
  1.00000000E+00  1.00000000E+00  1.00000000E+00  1.00000000E+00  2.00000000E+00
  0.00000000E+00  0.00000000E+00  0.00000000E+00  1.00000000E+00  1.00000000E+00
  1.00000000E+00  1.00000000E+00  1.00000000E+00  0.00000000E+00  0.00000000E+00
  0.00000000E+00  1.00000000E+00  0.00000000E+00  0.00000000E+00  0.00000000E+00
  1.00000000E+00  0.00000000E+00  0.00000000E+00  0.00000000E+00  1.00000000E+00
  0.00000000E+00  0.00000000E+00  0.00000000E+00  1.00000000E+00  0.00000000E+00
  0.00000000E+00  0.00000000E+00
Virial Ratio                               R      2.005196879019411E+00
SCF Energy                                 R     -5.299239884463499E+02
Total Energy                               R     -5.299239884463499E+02
RMS Force                                  R      1.276812576791183E-04
RMS Density                                R      5.795264138902734E-09
External E-field                           R   N=          35
  0.00000000E+00  0.00000000E+00  0.00000000E+00  0.00000000E+00  0.00000000E+00
  0.00000000E+00  0.00000000E+00  0.00000000E+00  0.00000000E+00  0.00000000E+00
  0.00000000E+00  0.00000000E+00  0.00000000E+00  0.00000000E+00  0.00000000E+00
  0.00000000E+00  0.00000000E+00  0.00000000E+00  0.00000000E+00  0.00000000E+00
  0.00000000E+00  0.00000000E+00  0.00000000E+00  0.00000000E+00  0.00000000E+00
  0.00000000E+00  0.00000000E+00  0.00000000E+00  0.00000000E+00  0.00000000E+00
  0.00000000E+00  0.00000000E+00  0.00000000E+00  0.00000000E+00  0.00000000E+00
IOpCl                                      I                0
IROHF                                      I                0
Alpha Orbital Energies                     R   N=         114
 -2.48815814E+01 -2.48803991E+01 -2.48793766E+01 -1.93028961E+01 -1.05871616E+01
 -1.04388997E+01 -1.03641640E+01 -1.03270982E+01 -1.42960861E+00 -1.34531149E+00
 -1.34292809E+00 -1.19562334E+00 -9.49208203E-01 -8.79073534E-01 -7.92411786E-01
 -7.04835846E-01 -6.93658141E-01 -6.85643562E-01 -6.35483132E-01 -5.93211995E-01
 -5.88815167E-01 -5.62872931E-01 -5.62216114E-01 -5.54789848E-01 -5.36992391E-01
 -5.30649542E-01 -5.17376546E-01 -5.14828608E-01 -5.05995668E-01 -4.92623329E-01
 -4.64256320E-01 -3.68179185E-01  1.34000699E-02  5.30717231E-02  7.87875490E-02
  9.18534124E-02  9.78672936E-02  1.02023374E-01  1.15832979E-01  1.21840253E-01
  1.22745702E-01  1.29945298E-01  1.46904002E-01  1.53883450E-01  1.63242893E-01
  1.72065030E-01  1.80526602E-01  1.85550559E-01  1.89238771E-01  2.03383710E-01
  2.24397983E-01  2.33410971E-01  2.51598356E-01  2.68158576E-01  2.81059394E-01
  2.98667377E-01  3.19700136E-01  3.30385291E-01  3.36139976E-01  3.49581822E-01
  3.56893922E-01  3.72485007E-01  3.76074124E-01  3.90088878E-01  4.01162646E-01
  4.06777492E-01  4.29496277E-01  4.40931075E-01  4.45314792E-01  4.49347394E-01
  4.53123743E-01  4.62530708E-01  4.72061607E-01  5.11873963E-01  5.26797640E-01
  5.31506819E-01  5.74418959E-01  7.02755386E-01  7.09198103E-01  7.31624681E-01
  7.52545703E-01  7.93626219E-01  8.33412039E-01  8.48909517E-01  8.68068323E-01
  8.88738908E-01  9.07290768E-01  9.39097940E-01  1.05835635E+00  1.09519938E+00
  1.15509807E+00  1.16398655E+00  1.19257997E+00  1.21755386E+00  1.24768813E+00
  1.34104657E+00  1.39543542E+00  1.44736469E+00  1.45964333E+00  1.51864514E+00
  1.57203075E+00  1.60273833E+00  1.65132059E+00  1.68143652E+00  1.69153871E+00
  1.74173797E+00  1.79195727E+00  1.82260533E+00  1.84290867E+00  1.85654692E+00
  2.00680528E+00  2.31448606E+00  2.33615334E+00  2.66853689E+00
Alpha MO coefficients                      R   N=       12996
 -7.13544183E-06 -1.16748776E-04  1.07222358E-04 -1.90507754E-05 -5.79784454E-07
 -4.42778269E-04  6.41774489E-06 -8.94965229E-05  2.25163889E-04  1.34039607E-02
 -2.93049660E-03  1.75674479E-03 -7.24780486E-04  1.97822899E-05  2.39995803E-04
 -2.33185437E-04  2.26903943E-05  3.93151853E-05 -4.79493578E-04  8.10177069E-04
 -1.67638273E-03 -1.04811114E-04 -8.63791092E-03 -4.69783159E-03  2.96126416E-03
 -8.94542497E-04 -8.12452844E-06 -2.11345612E-04  3.29150328E-05 -1.33822012E-04
  4.89377252E-05 -1.36962375E-04  5.74647419E-05  2.41768525E-04  2.63569941E-04
 -1.46193188E-04 -2.84881398E-05 -1.79645080E-03 -3.20528912E-05  9.06274324E-04
 -1.77736307E-03  8.89781776E-03 -3.95169138E-03  4.25634259E-04  6.28633205E-04
 -1.56515426E-05 -1.90358825E-04 -3.78603720E-05  7.17554175E-07  5.12884705E-05
  1.40284972E-03 -1.01019926E-04 -4.20506563E-04 -1.98195984E-04  4.56244762E-04
 -2.38357109E-05 -1.08221748E-04  2.95469053E-05 -1.76406065E-04 -8.25052647E-04
 -1.16437191E-04  3.59949496E-05  7.57377793E-04  6.43198225E-03 -3.62536603E-04
  1.80079206E-04  1.93225194E-03 -1.75985756E-02 -4.57667636E-03  8.79117147E-04
  1.19314764E-03  2.65700206E-04  1.10307449E-03 -1.76881522E-04  3.52579126E-05
  9.95013244E-01  2.79494609E-02 -2.25403057E-05 -4.53570269E-05 -1.45186964E-03
 -1.66128972E-02  3.54203411E-05  4.69390398E-05  2.88323924E-03  1.02253168E-02
  4.97744032E-04 -8.73945852E-05 -2.69808929E-03  5.83747137E-03  4.48764277E-04
  2.30069323E-05  1.54304352E-05  3.36476494E-05 -1.30383334E-03 -5.56122669E-04
 -4.56422077E-04 -6.16644322E-04 -8.25745478E-04 -2.73990354E-04 -3.58323816E-04
 -9.78175091E-04  4.59714385E-03  4.65986958E-04  1.11586186E-05 -2.64442351E-05
  2.75123885E-05 -1.42406623E-03 -1.86344774E-04  6.47917988E-04 -6.36501925E-04
 -6.27861622E-04 -1.76135311E-04  6.37998326E-04 -1.14354082E-03 -1.07218413E-05
 -7.36708147E-05 -7.49839725E-05  4.41523297E-06 -2.83457351E-08  1.30496922E-03
 -1.52112826E-04  3.84449133E-04 -3.17437334E-04  8.00896221E-04 -2.91685371E-04
 -1.20461890E-05 -1.15650455E-04  3.17886047E-06  1.61181487E-05  1.55300948E-04
 -9.15587371E-06 -1.92653901E-05 -7.01858704E-04 -1.05761660E-03  1.35899870E-03
  3.61361993E-04 -7.79982626E-03  2.02391031E-03  6.14693651E-04  3.29636434E-04
 -5.53097200E-06  4.44013619E-05 -4.68451840E-05 -2.59144575E-04 -6.16098026E-07
 -3.17920665E-04  7.32111158E-05  2.97585069E-04  9.47234189E-05 -3.78638612E-05
 -1.02871123E-04 -2.58958609E-03  2.57762388E-03 -2.19013392E-04  2.69859588E-06
  1.90141979E-02 -1.54362503E-03  2.35168286E-03  2.10896050E-03  1.03674483E-05
  1.41155812E-04 -1.02579586E-05 -1.29655589E-05  1.14333882E-05 -9.24147739E-04
  2.16871297E-04  2.87737346E-04 -3.71821782E-05  4.18064408E-04 -1.55560705E-04
 -9.02652712E-05  5.89607315E-05 -2.12098739E-04 -1.03924432E-03 -5.57973747E-04
 -3.71026485E-04 -1.32313429E-04  8.92441222E-03 -1.69458537E-03 -1.05004895E-03
 -6.34382162E-04 -1.41339595E-02 -2.27990015E-03  2.17370561E-03  1.83125252E-03
  2.10665356E-04 -5.90937865E-04  3.05976326E-04 -2.15349984E-04 -5.82874779E-03
  1.18405474E-04 -2.01263662E-05 -2.27738667E-05 -1.84746720E-05 -1.07164725E-03
  4.08724347E-04  3.01100090E-04  8.46283317E-04 -1.80909093E-03  5.19830363E-04
  3.78313617E-04  1.15922601E-03  9.94991118E-01  2.79109647E-02  1.11194217E-03
  8.60704621E-04  3.35110053E-04 -1.64995182E-02 -2.27654203E-03 -1.85108263E-03
 -7.06904186E-04  8.66268655E-03  1.66283316E-03  1.20763649E-03  5.18854697E-04
  7.91153964E-03  5.34340615E-04 -1.87512816E-05 -5.31627982E-05 -3.35111075E-06
 -1.49765715E-03  1.89786415E-04  1.06851761E-03 -1.17048798E-04 -1.63154288E-03
  3.17088754E-04  1.11966558E-03 -4.85865838E-05  2.06290362E-05  2.09883581E-04
 -2.62507095E-05 -2.02533145E-06 -2.84294335E-05 -5.47477690E-04  1.14872800E-04
 -8.89604458E-05  1.99855151E-04  5.14016725E-04  4.09320400E-04  8.72454874E-06
 -3.91625696E-04 -1.66169665E-05 -3.01942608E-05 -1.04909685E-04  4.12228245E-05
  3.48152153E-05  2.46503467E-03 -4.27151594E-04  8.58526208E-04 -3.70204602E-04
  1.41538557E-02 -5.05782459E-03 -3.20470052E-04 -3.95171728E-04  1.26673856E-05
  1.19002316E-05  1.05125308E-05  1.61500383E-04  6.79214545E-05  9.07769818E-05
  8.59097234E-05  4.62597122E-04  1.56446449E-04 -2.41886164E-05 -1.41122995E-04
 -3.04292251E-03  7.52900075E-04 -1.99880562E-03  4.45675170E-04  3.70865185E-04
 -5.03458802E-03 -8.32311747E-04  6.65858771E-05  9.24126259E-06  1.56025210E-04
 -8.21125254E-05 -5.40647913E-05 -5.20858419E-06 -6.08076177E-04  2.68169687E-04
  6.55239959E-04  1.24024719E-04 -3.24471911E-03  6.93807641E-04  4.07599237E-04
  2.42657170E-04 -1.68043758E-04 -7.55830391E-04 -2.71925994E-04  7.21525712E-04
 -2.09335096E-04  6.92450306E-03 -5.53603516E-04  1.25407931E-03 -2.48282642E-04
 -1.68959837E-02 -4.34070790E-03  5.22937132E-05  1.80758765E-03 -1.10360909E-04
 -1.13016454E-04  3.05010275E-04  5.81543168E-04 -4.50244555E-03  2.09912636E-04
 -6.52801176E-06  1.43096047E-05 -3.00769688E-05 -1.29280476E-03  1.61863861E-04
 -3.23994292E-04  8.82619505E-04 -1.04885139E-03  2.08791753E-04 -8.43375664E-04
  9.85793774E-04 -7.88978053E-03  8.88834345E-05  1.54902108E-05  2.92732584E-05
 -1.26033093E-06 -1.19023194E-03 -5.13979977E-04 -8.36176952E-04 -8.26114285E-05
 -1.14380984E-03 -6.02784501E-05 -9.89754462E-04  3.54359913E-05  9.94998544E-01
  2.79649339E-02  3.76727421E-04 -1.36473776E-03  4.47624534E-04 -1.66376376E-02
 -7.87353975E-04  2.60941088E-03 -9.11955839E-04  1.06100373E-02  1.23213654E-03
 -2.49797931E-03  8.57807528E-04 -1.63019498E-05 -2.93110328E-04 -7.64707122E-06
 -1.08556545E-04 -3.34537860E-06  3.03774300E-03 -2.02605195E-03 -9.28381673E-04
 -7.73434772E-04  1.71732642E-03 -3.33010394E-04  7.90861774E-04  2.89465068E-04
  2.46520495E-04  4.58204740E-04  1.80837558E-04 -1.25787604E-04 -1.81577570E-05
  6.12590350E-03 -9.49992411E-04  1.08755228E-02  8.33538986E-04 -1.70238824E-02
  3.63818869E-03 -1.46745045E-03  2.05097696E-04 -7.90216447E-05 -1.99096005E-04
  1.26839570E-04  2.36904220E-04 -1.67270245E-04 -4.13698323E-04 -2.89085493E-06
 -2.95234543E-04 -1.91764821E-04 -5.61500340E-05 -1.66179858E-04  1.24478148E-03
  2.73448278E-03 -2.60914501E-03  1.41764197E-03  4.45698612E-03  2.79543499E-03
  1.36190748E-03  1.23232543E-04  9.95248960E-01  2.99398873E-02 -1.20372269E-04
 -2.26885137E-03 -2.48236199E-04 -2.42922098E-02  5.92259574E-04  5.96790888E-03
  6.95840854E-04  7.91811499E-03 -6.88959243E-04 -5.91180350E-04 -9.73075788E-05
 -5.71419221E-06  1.56894870E-05  1.08726571E-04  2.36476910E-05  9.74720866E-05
  2.05373607E-03 -9.50187822E-04 -3.92250475E-04 -2.20295519E-03  8.14386199E-03
  2.37010458E-03 -3.25673453E-05 -4.67934593E-04 -3.34626779E-04 -1.34558642E-03
  2.90361262E-04  1.45990265E-04 -1.12527834E-05 -1.83499165E-04  5.79311392E-05
  1.67960984E-05 -9.19753958E-06  1.06976660E-03 -7.67666660E-05 -2.30194574E-05
 -1.88229374E-04 -9.76804807E-04 -1.78435478E-04 -1.38744456E-04  3.22838336E-04
  6.11299997E-06  1.23490958E-04  2.08337522E-05  5.02406211E-05 -3.33364656E-05
 -5.71213916E-04 -2.62688048E-04 -3.73111922E-04  1.69934957E-04 -1.60135030E-03
 -4.53168116E-04 -4.50335015E-04 -2.08572693E-05  5.65967317E-06  1.62355925E-04
  3.07831667E-05 -4.43965591E-05 -2.17774221E-05 -5.43463611E-04 -9.58673206E-05
  3.71306321E-04  1.36574969E-04 -7.48900240E-04 -1.85471542E-06 -2.34011893E-04