 Entering Gaussian System, Link 0=/opt/cluster/programs/g09_d.01/g09//g09
 Input=/home/unibas/boittier/RDKit_G2/L.pdb/SCAN_1_2_3_4_S_17_20.0/2_SCAN_1_2_3_4_F/2_SCAN_L.pdb.com
 Output=/scratch/boittier/2_SCAN_L.pdb/2_SCAN_L.pdb.out
 Initial command:
 /opt/cluster/programs/g09_d.01/g09/l1.exe "/scratch/boittier/2_SCAN_L.pdb/Gau-193483.inp" -scrdir="/scratch/boittier/2_SCAN_L.pdb/"
 Entering Link 1 = /opt/cluster/programs/g09_d.01/g09/l1.exe PID=    193484.
  
 Copyright (c) 1988,1990,1992,1993,1995,1998,2003,2009,2013,
            Gaussian, Inc.  All Rights Reserved.
  
 This is part of the Gaussian(R) 09 program.  It is based on
 the Gaussian(R) 03 system (copyright 2003, Gaussian, Inc.),
 the Gaussian(R) 98 system (copyright 1998, Gaussian, Inc.),
 the Gaussian(R) 94 system (copyright 1995, Gaussian, Inc.),
 the Gaussian 92(TM) system (copyright 1992, Gaussian, Inc.),
 the Gaussian 90(TM) system (copyright 1990, Gaussian, Inc.),
 the Gaussian 88(TM) system (copyright 1988, Gaussian, Inc.),
 the Gaussian 86(TM) system (copyright 1986, Carnegie Mellon
 University), and the Gaussian 82(TM) system (copyright 1983,
 Carnegie Mellon University). Gaussian is a federally registered
 trademark of Gaussian, Inc.
  
 This software contains proprietary and confidential information,
 including trade secrets, belonging to Gaussian, Inc.
  
 This software is provided under written license and may be
 used, copied, transmitted, or stored only in accord with that
 written license.
  
 The following legend is applicable only to US Government
 contracts under FAR:
  
                    RESTRICTED RIGHTS LEGEND
  
 Use, reproduction and disclosure by the US Government is
 subject to restrictions as set forth in subparagraphs (a)
 and (c) of the Commercial Computer Software - Restricted
 Rights clause in FAR 52.227-19.
  
 Gaussian, Inc.
 340 Quinnipiac St., Bldg. 40, Wallingford CT 06492
  
  
 ---------------------------------------------------------------
 Warning -- This program may not be used in any manner that
 competes with the business of Gaussian, Inc. or will provide
 assistance to any competitor of Gaussian, Inc.  The licensee
 of this program is prohibited from giving any competitor of
 Gaussian, Inc. access to this program.  By using this program,
 the user acknowledges that Gaussian, Inc. is engaged in the
 business of creating and licensing software in the field of
 computational chemistry and represents and warrants to the
 licensee that it is not a competitor of Gaussian, Inc. and that
 it will not use this program in any manner prohibited above.
 ---------------------------------------------------------------
  

 Cite this work as:
 Gaussian 09, Revision D.01,
 M. J. Frisch, G. W. Trucks, H. B. Schlegel, G. E. Scuseria, 
 M. A. Robb, J. R. Cheeseman, G. Scalmani, V. Barone, B. Mennucci, 
 G. A. Petersson, H. Nakatsuji, M. Caricato, X. Li, H. P. Hratchian, 
 A. F. Izmaylov, J. Bloino, G. Zheng, J. L. Sonnenberg, M. Hada, 
 M. Ehara, K. Toyota, R. Fukuda, J. Hasegawa, M. Ishida, T. Nakajima, 
 Y. Honda, O. Kitao, H. Nakai, T. Vreven, J. A. Montgomery, Jr., 
 J. E. Peralta, F. Ogliaro, M. Bearpark, J. J. Heyd, E. Brothers, 
 K. N. Kudin, V. N. Staroverov, T. Keith, R. Kobayashi, J. Normand, 
 K. Raghavachari, A. Rendell, J. C. Burant, S. S. Iyengar, J. Tomasi, 
 M. Cossi, N. Rega, J. M. Millam, M. Klene, J. E. Knox, J. B. Cross, 
 V. Bakken, C. Adamo, J. Jaramillo, R. Gomperts, R. E. Stratmann, 
 O. Yazyev, A. J. Austin, R. Cammi, C. Pomelli, J. W. Ochterski, 
 R. L. Martin, K. Morokuma, V. G. Zakrzewski, G. A. Voth, 
 P. Salvador, J. J. Dannenberg, S. Dapprich, A. D. Daniels, 
 O. Farkas, J. B. Foresman, J. V. Ortiz, J. Cioslowski, 
 and D. J. Fox, Gaussian, Inc., Wallingford CT, 2013.
 
 ******************************************
 Gaussian 09:  ES64L-G09RevD.01 24-Apr-2013
                12-May-2021 
 ******************************************
 %chk=/home/unibas/boittier/RDKit_G2/L.pdb/SCAN_1_2_3_4_S_17_20.0/2_SCAN_1_2_3_4_
 F/L.pdb.chk
 %nproc=8
 Will use up to    8 processors via shared memory.
 %mem=16GB
 -----------------------------
 #p wB97XD/6-31+G Opt=ModRedun
 -----------------------------
 1/14=-1,18=120,19=15,26=3,38=1/1,3;
 2/9=110,12=2,17=6,18=5,40=1/2;
 3/5=1,6=6,7=10,11=2,16=1,25=1,30=1,71=1,74=-58/1,2,3;
 4//1;
 5/5=2,38=5/2;
 6/7=2,8=2,9=2,10=2,28=1/1;
 7//1,2,3,16;
 1/14=-1,18=20,19=15,26=3/3(2);
 2/9=110/2;
 99//99;
 2/9=110/2;
 3/5=1,6=6,7=10,11=2,16=1,25=1,30=1,71=1,74=-58/1,2,3;
 4/5=5,16=3,69=1/1;
 5/5=2,38=5/2;
 7//1,2,3,16;
 1/14=-1,18=20,19=15,26=3/3(-5);
 2/9=110/2;
 6/7=2,8=2,9=2,10=2,19=2,28=1/1;
 99/9=1/99;
 Leave Link    1 at Wed May 12 11:58:23 2021, MaxMem=  2147483648 cpu:         0.3
 (Enter /opt/cluster/programs/g09_d.01/g09/l101.exe)
 -----
 L.pdb
 -----
 Symbolic Z-matrix:
 Charge =  0 Multiplicity = 1
 C                     1.74114   0.15121   0.13957 
 C                     0.5752   -0.43163  -0.19123 
 C                    -0.68596   0.33337  -0.19611 
 O                    -1.76577  -0.12546   0.21405 
 H                    -0.61648   1.39409  -0.49751 
 H                     2.65185  -0.42331   0.27518 
 H                     1.8192    1.22647   0.28855 
 H                     0.4893   -1.5113   -0.29205 
 
 The following ModRedundant input section has been read:
 D       1       2       3       4 F                                           
 
 NAtoms=      8 NQM=        8 NQMF=       0 NMMI=      0 NMMIF=      0
                NMic=       0 NMicF=      0.
                    Isotopes and Nuclear Properties:
 (Nuclear quadrupole moments (NQMom) in fm**2, nuclear magnetic moments (NMagM)
  in nuclear magnetons)

  Atom         1           2           3           4           5           6           7           8
 IAtWgt=          12          12          12          16           1           1           1           1
 AtmWgt=  12.0000000  12.0000000  12.0000000  15.9949146   1.0078250   1.0078250   1.0078250   1.0078250
 NucSpn=           0           0           0           0           1           1           1           1
 AtZEff=   0.0000000   0.0000000   0.0000000   0.0000000   0.0000000   0.0000000   0.0000000   0.0000000
 NQMom=    0.0000000   0.0000000   0.0000000   0.0000000   0.0000000   0.0000000   0.0000000   0.0000000
 NMagM=    0.0000000   0.0000000   0.0000000   0.0000000   2.7928460   2.7928460   2.7928460   2.7928460
 AtZNuc=   6.0000000   6.0000000   6.0000000   8.0000000   1.0000000   1.0000000   1.0000000   1.0000000
 Leave Link  101 at Wed May 12 11:58:24 2021, MaxMem=  2147483648 cpu:         5.2
 (Enter /opt/cluster/programs/g09_d.01/g09/l103.exe)

 GradGradGradGradGradGradGradGradGradGradGradGradGradGradGradGradGradGrad
 Berny optimization.
 Initialization pass.
                           ----------------------------
                           !    Initial Parameters    !
                           ! (Angstroms and Degrees)  !
 --------------------------                            --------------------------
 ! Name  Definition              Value          Derivative Info.                !
 --------------------------------------------------------------------------------
 ! R1    R(1,2)                  1.3448         estimate D2E/DX2                !
 ! R2    R(1,6)                  1.0853         estimate D2E/DX2                !
 ! R3    R(1,7)                  1.0883         estimate D2E/DX2                !
 ! R4    R(2,3)                  1.475          estimate D2E/DX2                !
 ! R5    R(2,8)                  1.0878         estimate D2E/DX2                !
 ! R6    R(3,4)                  1.2429         estimate D2E/DX2                !
 ! R7    R(3,5)                  1.1049         estimate D2E/DX2                !
 ! A1    A(2,1,6)              121.926          estimate D2E/DX2                !
 ! A2    A(2,1,7)              121.6034         estimate D2E/DX2                !
 ! A3    A(6,1,7)              116.4704         estimate D2E/DX2                !
 ! A4    A(1,2,3)              121.1523         estimate D2E/DX2                !
 ! A5    A(1,2,8)              121.4283         estimate D2E/DX2                !
 ! A6    A(3,2,8)              116.5476         estimate D2E/DX2                !
 ! A7    A(2,3,4)              123.3858         estimate D2E/DX2                !
 ! A8    A(2,3,5)              116.4248         estimate D2E/DX2                !
 ! A9    A(4,3,5)              119.9377         estimate D2E/DX2                !
 ! D1    D(6,1,2,3)            171.7642         estimate D2E/DX2                !
 ! D2    D(6,1,2,8)              2.8227         estimate D2E/DX2                !
 ! D3    D(7,1,2,3)             -8.0396         estimate D2E/DX2                !
 ! D4    D(7,1,2,8)           -176.9811         estimate D2E/DX2                !
 ! D5    D(1,2,3,4)           -139.9991         Frozen                          !
 ! D6    D(1,2,3,5)             34.2213         estimate D2E/DX2                !
 ! D7    D(8,2,3,4)             29.4585         estimate D2E/DX2                !
 ! D8    D(8,2,3,5)           -156.3211         estimate D2E/DX2                !
 --------------------------------------------------------------------------------
 Trust Radius=3.00D-01 FncErr=1.00D-07 GrdErr=1.00D-06
 Number of steps in this run=     34 maximum allowed number of steps=    100.
 GradGradGradGradGradGradGradGradGradGradGradGradGradGradGradGradGradGrad

 Leave Link  103 at Wed May 12 11:58:24 2021, MaxMem=  2147483648 cpu:         0.1
 (Enter /opt/cluster/programs/g09_d.01/g09/l202.exe)
                          Input orientation:                          
 ---------------------------------------------------------------------
 Center     Atomic      Atomic             Coordinates (Angstroms)
 Number     Number       Type             X           Y           Z
 ---------------------------------------------------------------------
      1          6           0        1.741144    0.151214    0.139574
      2          6           0        0.575197   -0.431626   -0.191230
      3          6           0       -0.685961    0.333365   -0.196105
      4          8           0       -1.765767   -0.125458    0.214051
      5          1           0       -0.616482    1.394093   -0.497513
      6          1           0        2.651845   -0.423312    0.275177
      7          1           0        1.819196    1.226469    0.288547
      8          1           0        0.489300   -1.511300   -0.292054
 ---------------------------------------------------------------------
                    Distance matrix (angstroms):
                    1          2          3          4          5
     1  C    0.000000
     2  C    1.344829   0.000000
     3  C    2.456969   1.475044   0.000000
     4  O    3.518596   2.395434   1.242871   0.000000
     5  H    2.740261   2.201626   1.104906   2.033769   0.000000
     6  H    1.085285   2.128396   3.454796   4.428064   3.818635
     7  H    1.088328   2.127674   2.703393   3.832129   2.564862
     8  H    2.125410   1.087768   2.189345   2.694815   3.115490
                    6          7          8
     6  H    0.000000
     7  H    1.848042   0.000000
     8  H    2.486377   3.098564   0.000000
 Stoichiometry    C3H4O
 Framework group  C1[X(C3H4O)]
 Deg. of freedom    18
 Full point group                 C1      NOp   1
 Largest Abelian subgroup         C1      NOp   1
 Largest concise Abelian subgroup C1      NOp   1
                         Standard orientation:                         
 ---------------------------------------------------------------------
 Center     Atomic      Atomic             Coordinates (Angstroms)
 Number     Number       Type             X           Y           Z
 ---------------------------------------------------------------------
      1          6           0       -1.741144    0.151214   -0.139574
      2          6           0       -0.575197   -0.431626    0.191230
      3          6           0        0.685961    0.333365    0.196105
      4          8           0        1.765767   -0.125458   -0.214051
      5          1           0        0.616482    1.394093    0.497513
      6          1           0       -2.651845   -0.423312   -0.275177
      7          1           0       -1.819196    1.226469   -0.288547
      8          1           0       -0.489300   -1.511300    0.292054
 ---------------------------------------------------------------------
 Rotational constants (GHZ):     40.8039235      4.6387522      4.3325700
 Leave Link  202 at Wed May 12 11:58:24 2021, MaxMem=  2147483648 cpu:         0.0
 (Enter /opt/cluster/programs/g09_d.01/g09/l301.exe)
 Standard basis: 6-31+G (6D, 7F)
 Ernie: Thresh=  0.10000D-02 Tol=  0.10000D-05 Strict=F.
 There are    60 symmetry adapted cartesian basis functions of A   symmetry.
 There are    60 symmetry adapted basis functions of A   symmetry.
    60 basis functions,   120 primitive gaussians,    60 cartesian basis functions
    15 alpha electrons       15 beta electrons
       nuclear repulsion energy       102.2498384631 Hartrees.
 IExCor= 4639 DFT=T Ex+Corr=wB97XD ExCW=0 ScaHFX=  1.000000
 ScaDFX=  1.000000  1.000000  1.000000  1.000000 ScalE2=  1.000000  1.000000
 IRadAn=      0 IRanWt=     -1 IRanGd=            0 ICorTp=0 IEmpDi=121
  HFx wShort=  0.000000 wLong=  0.200000 cFull=  0.222036 cShort=  0.000000 cLong=  0.777964
  DFx wShort=  0.000000 wLong=  0.200000 cFull=  0.000000 cShort=  0.000000 cLong=  1.000000
 NAtoms=    8 NActive=    8 NUniq=    8 SFac= 1.00D+00 NAtFMM=   60 NAOKFM=F Big=F
 Integral buffers will be    131072 words long.
 Raffenetti 2 integral format.
 Two-electron integral symmetry is turned on.
 R6Disp:  Grimme-D2 Dispersion energy=       -0.0018189164 Hartrees.
 Nuclear repulsion after empirical dispersion term =      102.2480195466 Hartrees.
 Leave Link  301 at Wed May 12 11:58:24 2021, MaxMem=  2147483648 cpu:         0.2
 (Enter /opt/cluster/programs/g09_d.01/g09/l302.exe)
 NPDir=0 NMtPBC=     1 NCelOv=     1 NCel=       1 NClECP=     1 NCelD=      1
         NCelK=      1 NCelE2=     1 NClLst=     1 CellRange=     0.0.
 One-electron integrals computed using PRISM.
 NBasis=    60 RedAO= T EigKep=  1.39D-04  NBF=    60
 NBsUse=    60 1.00D-06 EigRej= -1.00D+00 NBFU=    60
 Precomputing XC quadrature grid using
 IXCGrd= 4 IRadAn=           0 IRanWt=          -1 IRanGd=           0 AccXCQ= 0.00D+00.
 Generated NRdTot=       0 NPtTot=           0 NUsed=           0 NTot=          32
 NSgBfM=    60    60    60    60    60 MxSgAt=     8 MxSgA2=     8.
 Leave Link  302 at Wed May 12 11:58:24 2021, MaxMem=  2147483648 cpu:         0.7
 (Enter /opt/cluster/programs/g09_d.01/g09/l303.exe)
 DipDrv:  MaxL=1.
 Leave Link  303 at Wed May 12 11:58:24 2021, MaxMem=  2147483648 cpu:         0.1
 (Enter /opt/cluster/programs/g09_d.01/g09/l401.exe)
 ExpMin= 4.38D-02 ExpMax= 5.48D+03 ExpMxC= 8.25D+02 IAcc=2 IRadAn=         4 AccDes= 0.00D+00
 Harris functional with IExCor= 4639 and IRadAn=       4 diagonalized for initial guess.
 HarFok:  IExCor= 4639 AccDes= 0.00D+00 IRadAn=         4 IDoV= 1 UseB2=F ITyADJ=14
 ICtDFT=  3500011 ScaDFX=  1.000000  1.000000  1.000000  1.000000
 FoFCou: FMM=F IPFlag=           0 FMFlag=      100000 FMFlg1=           0
         NFxFlg=           0 DoJE=T BraDBF=F KetDBF=T FulRan=T
         wScrn=  0.000000 ICntrl=     500 IOpCl=  0 I1Cent=   200000004 NGrid=           0
         NMat0=    1 NMatS0=      1 NMatT0=    0 NMatD0=    1 NMtDS0=    0 NMtDT0=    0
 Petite list used in FoFCou.
 Harris En= -183.746369389894    
 JPrj=0 DoOrth=F DoCkMO=F.
 Leave Link  401 at Wed May 12 11:58:24 2021, MaxMem=  2147483648 cpu:         1.0
 (Enter /opt/cluster/programs/g09_d.01/g09/l502.exe)
 Closed shell SCF:
 Using DIIS extrapolation, IDIIS=  1040.
 Integral symmetry usage will be decided dynamically.
 Keep R1 ints in memory in canonical form, NReq=4262490.
 IVT=       30290 IEndB=       30290 NGot=  2147483648 MDV=  2144102629
 LenX=  2144102629 LenY=  2144098588
 Requested convergence on RMS density matrix=1.00D-08 within 128 cycles.
 Requested convergence on MAX density matrix=1.00D-06.
 Requested convergence on             energy=1.00D-06.
 No special actions if energy rises.
 FoFCou: FMM=F IPFlag=           0 FMFlag=           0 FMFlg1=           0
         NFxFlg=           0 DoJE=F BraDBF=F KetDBF=F FulRan=T
         wScrn=  0.000000 ICntrl=     600 IOpCl=  0 I1Cent=           0 NGrid=           0
         NMat0=    1 NMatS0=   1830 NMatT0=    0 NMatD0=    1 NMtDS0=    0 NMtDT0=    0
 Symmetry not used in FoFCou.

 Cycle   1  Pass 1  IDiag  1:
 E= -191.752172323678    
 DIIS: error= 2.91D-02 at cycle   1 NSaved=   1.
 NSaved= 1 IEnMin= 1 EnMin= -191.752172323678     IErMin= 1 ErrMin= 2.91D-02
 ErrMax= 2.91D-02  0.00D+00 EMaxC= 1.00D-01 BMatC= 7.24D-02 BMatP= 7.24D-02
 IDIUse=3 WtCom= 7.09D-01 WtEn= 2.91D-01
 Coeff-Com:  0.100D+01
 Coeff-En:   0.100D+01
 Coeff:      0.100D+01
 Gap=     0.400 Goal=   None    Shift=    0.000
 GapD=    0.400 DampG=2.000 DampE=0.500 DampFc=1.0000 IDamp=-1.
 RMSDP=1.79D-02 MaxDP=4.07D-01              OVMax= 8.73D-02

 Cycle   2  Pass 1  IDiag  1:
 E= -191.759360052933     Delta-E=       -0.007187729254 Rises=F Damp=F
 DIIS: error= 2.55D-02 at cycle   2 NSaved=   2.
 NSaved= 2 IEnMin= 2 EnMin= -191.759360052933     IErMin= 2 ErrMin= 2.55D-02
 ErrMax= 2.55D-02  0.00D+00 EMaxC= 1.00D-01 BMatC= 3.82D-02 BMatP= 7.24D-02
 IDIUse=3 WtCom= 7.45D-01 WtEn= 2.55D-01
 Coeff-Com:  0.403D+00 0.597D+00
 Coeff-En:   0.437D+00 0.563D+00
 Coeff:      0.411D+00 0.589D+00
 Gap=     0.391 Goal=   None    Shift=    0.000
 RMSDP=4.71D-03 MaxDP=6.20D-02 DE=-7.19D-03 OVMax= 9.13D-02

 Cycle   3  Pass 1  IDiag  1:
 E= -191.784337592768     Delta-E=       -0.024977539836 Rises=F Damp=F
 DIIS: error= 1.20D-02 at cycle   3 NSaved=   3.
 NSaved= 3 IEnMin= 3 EnMin= -191.784337592768     IErMin= 3 ErrMin= 1.20D-02
 ErrMax= 1.20D-02  0.00D+00 EMaxC= 1.00D-01 BMatC= 8.28D-03 BMatP= 3.82D-02
 IDIUse=3 WtCom= 8.80D-01 WtEn= 1.20D-01
 Coeff-Com:  0.599D-01 0.322D+00 0.618D+00
 Coeff-En:   0.000D+00 0.152D+00 0.848D+00
 Coeff:      0.527D-01 0.301D+00 0.646D+00
 Gap=     0.347 Goal=   None    Shift=    0.000
 RMSDP=2.78D-03 MaxDP=3.74D-02 DE=-2.50D-02 OVMax= 2.83D-02

 Cycle   4  Pass 1  IDiag  1:
 E= -191.790208758998     Delta-E=       -0.005871166230 Rises=F Damp=F
 DIIS: error= 3.38D-03 at cycle   4 NSaved=   4.
 NSaved= 4 IEnMin= 4 EnMin= -191.790208758998     IErMin= 4 ErrMin= 3.38D-03
 ErrMax= 3.38D-03  0.00D+00 EMaxC= 1.00D-01 BMatC= 7.91D-04 BMatP= 8.28D-03
 IDIUse=3 WtCom= 9.66D-01 WtEn= 3.38D-02
 Coeff-Com: -0.620D-02 0.833D-01 0.319D+00 0.604D+00
 Coeff-En:   0.000D+00 0.000D+00 0.327D-01 0.967D+00
 Coeff:     -0.599D-02 0.805D-01 0.309D+00 0.616D+00
 Gap=     0.345 Goal=   None    Shift=    0.000
 RMSDP=6.97D-04 MaxDP=8.51D-03 DE=-5.87D-03 OVMax= 7.22D-03

 Cycle   5  Pass 1  IDiag  1:
 E= -191.790878003121     Delta-E=       -0.000669244123 Rises=F Damp=F
 DIIS: error= 6.06D-04 at cycle   5 NSaved=   5.
 NSaved= 5 IEnMin= 5 EnMin= -191.790878003121     IErMin= 5 ErrMin= 6.06D-04
 ErrMax= 6.06D-04  0.00D+00 EMaxC= 1.00D-01 BMatC= 1.71D-05 BMatP= 7.91D-04
 IDIUse=3 WtCom= 9.94D-01 WtEn= 6.06D-03
 Coeff-Com: -0.442D-02 0.142D-01 0.830D-01 0.218D+00 0.689D+00
 Coeff-En:   0.000D+00 0.000D+00 0.000D+00 0.000D+00 0.100D+01
 Coeff:     -0.440D-02 0.141D-01 0.825D-01 0.217D+00 0.691D+00
 Gap=     0.345 Goal=   None    Shift=    0.000
 RMSDP=2.65D-04 MaxDP=4.25D-03 DE=-6.69D-04 OVMax= 2.58D-03

 Cycle   6  Pass 1  IDiag  1:
 E= -191.790899076254     Delta-E=       -0.000021073133 Rises=F Damp=F
 DIIS: error= 2.96D-04 at cycle   6 NSaved=   6.
 NSaved= 6 IEnMin= 6 EnMin= -191.790899076254     IErMin= 6 ErrMin= 2.96D-04
 ErrMax= 2.96D-04  0.00D+00 EMaxC= 1.00D-01 BMatC= 2.50D-06 BMatP= 1.71D-05
 IDIUse=3 WtCom= 9.97D-01 WtEn= 2.96D-03
 Coeff-Com:  0.551D-05-0.129D-01-0.367D-01-0.490D-01 0.242D+00 0.857D+00
 Coeff-En:   0.000D+00 0.000D+00 0.000D+00 0.000D+00 0.000D+00 0.100D+01
 Coeff:      0.549D-05-0.129D-01-0.366D-01-0.488D-01 0.241D+00 0.857D+00
 Gap=     0.345 Goal=   None    Shift=    0.000
 RMSDP=1.87D-04 MaxDP=2.86D-03 DE=-2.11D-05 OVMax= 1.33D-03

 Cycle   7  Pass 1  IDiag  1:
 E= -191.790903627321     Delta-E=       -0.000004551066 Rises=F Damp=F
 DIIS: error= 5.55D-05 at cycle   7 NSaved=   7.
 NSaved= 7 IEnMin= 7 EnMin= -191.790903627321     IErMin= 7 ErrMin= 5.55D-05
 ErrMax= 5.55D-05  0.00D+00 EMaxC= 1.00D-01 BMatC= 1.43D-07 BMatP= 2.50D-06
 IDIUse=1 WtCom= 1.00D+00 WtEn= 0.00D+00
 Coeff-Com:  0.394D-03-0.464D-02-0.178D-01-0.303D-01 0.185D-01 0.217D+00
 Coeff-Com:  0.817D+00
 Coeff:      0.394D-03-0.464D-02-0.178D-01-0.303D-01 0.185D-01 0.217D+00
 Coeff:      0.817D+00
 Gap=     0.345 Goal=   None    Shift=    0.000
 RMSDP=3.81D-05 MaxDP=5.70D-04 DE=-4.55D-06 OVMax= 4.06D-04

 Cycle   8  Pass 1  IDiag  1:
 E= -191.790904047523     Delta-E=       -0.000000420202 Rises=F Damp=F
 DIIS: error= 3.07D-05 at cycle   8 NSaved=   8.
 NSaved= 8 IEnMin= 8 EnMin= -191.790904047523     IErMin= 8 ErrMin= 3.07D-05
 ErrMax= 3.07D-05  0.00D+00 EMaxC= 1.00D-01 BMatC= 1.79D-08 BMatP= 1.43D-07
 IDIUse=1 WtCom= 1.00D+00 WtEn= 0.00D+00
 Coeff-Com: -0.437D-04 0.227D-02 0.573D-02 0.848D-02-0.378D-01-0.151D+00
 Coeff-Com: -0.148D-02 0.117D+01
 Coeff:     -0.437D-04 0.227D-02 0.573D-02 0.848D-02-0.378D-01-0.151D+00
 Coeff:     -0.148D-02 0.117D+01
 Gap=     0.345 Goal=   None    Shift=    0.000
 RMSDP=1.61D-05 MaxDP=2.07D-04 DE=-4.20D-07 OVMax= 3.30D-04

 Cycle   9  Pass 1  IDiag  1:
 E= -191.790904151689     Delta-E=       -0.000000104166 Rises=F Damp=F
 DIIS: error= 1.06D-05 at cycle   9 NSaved=   9.
 NSaved= 9 IEnMin= 9 EnMin= -191.790904151689     IErMin= 9 ErrMin= 1.06D-05
 ErrMax= 1.06D-05  0.00D+00 EMaxC= 1.00D-01 BMatC= 1.29D-09 BMatP= 1.79D-08
 IDIUse=1 WtCom= 1.00D+00 WtEn= 0.00D+00
 Coeff-Com: -0.202D-04-0.109D-03 0.249D-03 0.886D-03 0.953D-02 0.189D-01
 Coeff-Com: -0.750D-01-0.282D+00 0.133D+01
 Coeff:     -0.202D-04-0.109D-03 0.249D-03 0.886D-03 0.953D-02 0.189D-01
 Coeff:     -0.750D-01-0.282D+00 0.133D+01
 Gap=     0.345 Goal=   None    Shift=    0.000
 RMSDP=5.12D-06 MaxDP=5.76D-05 DE=-1.04D-07 OVMax= 1.40D-04

 Cycle  10  Pass 1  IDiag  1:
 E= -191.790904164614     Delta-E=       -0.000000012925 Rises=F Damp=F
 DIIS: error= 3.48D-06 at cycle  10 NSaved=  10.
 NSaved=10 IEnMin=10 EnMin= -191.790904164614     IErMin=10 ErrMin= 3.48D-06
 ErrMax= 3.48D-06  0.00D+00 EMaxC= 1.00D-01 BMatC= 1.58D-10 BMatP= 1.29D-09
 IDIUse=1 WtCom= 1.00D+00 WtEn= 0.00D+00
 Coeff-Com:  0.100D-04-0.180D-03-0.637D-03-0.107D-02-0.448D-04 0.702D-02
 Coeff-Com:  0.300D-01-0.497D-02-0.549D+00 0.152D+01
 Coeff:      0.100D-04-0.180D-03-0.637D-03-0.107D-02-0.448D-04 0.702D-02
 Coeff:      0.300D-01-0.497D-02-0.549D+00 0.152D+01
 Gap=     0.345 Goal=   None    Shift=    0.000
 RMSDP=1.65D-06 MaxDP=1.54D-05 DE=-1.29D-08 OVMax= 6.32D-05

 Cycle  11  Pass 1  IDiag  1:
 E= -191.790904166427     Delta-E=       -0.000000001813 Rises=F Damp=F
 DIIS: error= 7.13D-07 at cycle  11 NSaved=  11.
 NSaved=11 IEnMin=11 EnMin= -191.790904166427     IErMin=11 ErrMin= 7.13D-07
 ErrMax= 7.13D-07  0.00D+00 EMaxC= 1.00D-01 BMatC= 1.58D-11 BMatP= 1.58D-10
 IDIUse=1 WtCom= 1.00D+00 WtEn= 0.00D+00
 Coeff-Com: -0.806D-06 0.440D-04 0.143D-03 0.135D-03-0.110D-02-0.335D-02
 Coeff-Com: -0.606D-03 0.268D-01-0.434D-02-0.304D+00 0.129D+01
 Coeff:     -0.806D-06 0.440D-04 0.143D-03 0.135D-03-0.110D-02-0.335D-02
 Coeff:     -0.606D-03 0.268D-01-0.434D-02-0.304D+00 0.129D+01
 Gap=     0.345 Goal=   None    Shift=    0.000
 RMSDP=6.26D-07 MaxDP=7.60D-06 DE=-1.81D-09 OVMax= 1.38D-05

 Cycle  12  Pass 1  IDiag  1:
 E= -191.790904166511     Delta-E=       -0.000000000084 Rises=F Damp=F
 DIIS: error= 1.05D-07 at cycle  12 NSaved=  12.
 NSaved=12 IEnMin=12 EnMin= -191.790904166511     IErMin=12 ErrMin= 1.05D-07
 ErrMax= 1.05D-07  0.00D+00 EMaxC= 1.00D-01 BMatC= 4.46D-13 BMatP= 1.58D-11
 IDIUse=1 WtCom= 1.00D+00 WtEn= 0.00D+00
 Coeff-Com: -0.282D-06 0.696D-06 0.103D-04 0.289D-04 0.161D-03 0.345D-03
 Coeff-Com: -0.106D-02-0.388D-02 0.230D-01-0.126D-01-0.227D+00 0.122D+01
 Coeff:     -0.282D-06 0.696D-06 0.103D-04 0.289D-04 0.161D-03 0.345D-03
 Coeff:     -0.106D-02-0.388D-02 0.230D-01-0.126D-01-0.227D+00 0.122D+01
 Gap=     0.345 Goal=   None    Shift=    0.000
 RMSDP=7.43D-08 MaxDP=9.35D-07 DE=-8.44D-11 OVMax= 1.23D-06

 Cycle  13  Pass 1  IDiag  1:
 E= -191.790904166512     Delta-E=       -0.000000000001 Rises=F Damp=F
 DIIS: error= 1.27D-08 at cycle  13 NSaved=  13.
 NSaved=13 IEnMin=13 EnMin= -191.790904166512     IErMin=13 ErrMin= 1.27D-08
 ErrMax= 1.27D-08  0.00D+00 EMaxC= 1.00D-01 BMatC= 1.08D-14 BMatP= 4.46D-13
 IDIUse=1 WtCom= 1.00D+00 WtEn= 0.00D+00
 Coeff-Com:  0.802D-07-0.154D-05-0.653D-05-0.924D-05 0.246D-05 0.834D-04
 Coeff-Com:  0.160D-03-0.267D-03-0.362D-02 0.133D-01-0.103D-01-0.192D+00
 Coeff-Com:  0.119D+01
 Coeff:      0.802D-07-0.154D-05-0.653D-05-0.924D-05 0.246D-05 0.834D-04
 Coeff:      0.160D-03-0.267D-03-0.362D-02 0.133D-01-0.103D-01-0.192D+00
 Coeff:      0.119D+01
 Gap=     0.345 Goal=   None    Shift=    0.000
 RMSDP=9.51D-09 MaxDP=8.84D-08 DE=-1.02D-12 OVMax= 1.03D-07

 SCF Done:  E(RwB97XD) =  -191.790904167     A.U. after   13 cycles
            NFock= 13  Conv=0.95D-08     -V/T= 2.0061
 KE= 1.906363506689D+02 PE=-6.518546597518D+02 EE= 1.671793853697D+02
 Leave Link  502 at Wed May 12 11:58:25 2021, MaxMem=  2147483648 cpu:         8.6
 (Enter /opt/cluster/programs/g09_d.01/g09/l601.exe)
 Copying SCF densities to generalized density rwf, IOpCl= 0 IROHF=0.

 **********************************************************************

            Population analysis using the SCF density.

 **********************************************************************

 Orbital symmetries:
       Occupied  (A) (A) (A) (A) (A) (A) (A) (A) (A) (A) (A) (A)
                 (A) (A) (A)
       Virtual   (A) (A) (A) (A) (A) (A) (A) (A) (A) (A) (A) (A)
                 (A) (A) (A) (A) (A) (A) (A) (A) (A) (A) (A) (A)
                 (A) (A) (A) (A) (A) (A) (A) (A) (A) (A) (A) (A)
                 (A) (A) (A) (A) (A) (A) (A) (A) (A)
 The electronic state is 1-A.
 Alpha  occ. eigenvalues --  -19.29094 -10.40920 -10.33824 -10.33442  -1.16981
 Alpha  occ. eigenvalues --   -0.91809  -0.76053  -0.68077  -0.58497  -0.57474
 Alpha  occ. eigenvalues --   -0.52250  -0.49394  -0.48035  -0.38041  -0.35446
 Alpha virt. eigenvalues --   -0.00932   0.06856   0.07775   0.08862   0.09079
 Alpha virt. eigenvalues --    0.11428   0.12657   0.12865   0.14725   0.15884
 Alpha virt. eigenvalues --    0.17401   0.18024   0.20089   0.22611   0.26713
 Alpha virt. eigenvalues --    0.28181   0.28897   0.30849   0.33145   0.35445
 Alpha virt. eigenvalues --    0.36861   0.38709   0.42991   0.46407   0.49641
 Alpha virt. eigenvalues --    0.70417   0.71811   0.75016   0.79233   0.80177
 Alpha virt. eigenvalues --    0.84862   0.87831   0.95953   1.01041   1.06441
 Alpha virt. eigenvalues --    1.09661   1.12602   1.17675   1.23058   1.28176
 Alpha virt. eigenvalues --    1.33936   1.36414   1.38790   1.40616   1.88813
          Condensed to atoms (all electrons):
               1          2          3          4          5          6
     1  C    5.447166   0.063390   0.104199   0.017369   0.069097   0.350867
     2  C    0.063390   5.835733   0.170206  -0.155216  -0.178003  -0.002959
     3  C    0.104199   0.170206   5.032315   0.289627   0.372513   0.006371
     4  O    0.017369  -0.155216   0.289627   8.322454  -0.059650  -0.000517
     5  H    0.069097  -0.178003   0.372513  -0.059650   0.611437   0.000023
     6  H    0.350867  -0.002959   0.006371  -0.000517   0.000023   0.459741
     7  H    0.387094  -0.057661   0.010485   0.000617   0.001009  -0.022389
     8  H   -0.012270   0.350999  -0.013408  -0.003949   0.001569  -0.003046
               7          8
     1  C    0.387094  -0.012270
     2  C   -0.057661   0.350999
     3  C    0.010485  -0.013408
     4  O    0.000617  -0.003949
     5  H    0.001009   0.001569
     6  H   -0.022389  -0.003046
     7  H    0.473102   0.002401
     8  H    0.002401   0.440509
 Mulliken charges:
               1
     1  C   -0.426913
     2  C   -0.026489
     3  C    0.027691
     4  O   -0.410735
     5  H    0.182004
     6  H    0.211907
     7  H    0.205342
     8  H    0.237193
 Sum of Mulliken charges =   0.00000
 Mulliken charges with hydrogens summed into heavy atoms:
               1
     1  C   -0.009663
     2  C    0.210704
     3  C    0.209695
     4  O   -0.410735
 Electronic spatial extent (au):  <R**2>=            299.6609
 Charge=              0.0000 electrons
 Dipole moment (field-independent basis, Debye):
    X=             -3.4808    Y=              0.8409    Z=              0.6738  Tot=              3.6438
 Quadrupole moment (field-independent basis, Debye-Ang):
   XX=            -27.9897   YY=            -21.7007   ZZ=            -25.3693
   XY=              1.2072   XZ=              2.2164   YZ=             -0.3547
 Traceless Quadrupole moment (field-independent basis, Debye-Ang):
   XX=             -2.9698   YY=              3.3192   ZZ=             -0.3494
   XY=              1.2072   XZ=              2.2164   YZ=             -0.3547
 Octapole moment (field-independent basis, Debye-Ang**2):
  XXX=            -16.4400  YYY=              0.0623  ZZZ=             -0.7912  XYY=             -0.1835
  XXY=              0.8508  XXZ=             -0.1114  XZZ=              3.9628  YZZ=              0.3351
  YYZ=              0.4977  XYZ=              0.2439
 Hexadecapole moment (field-independent basis, Debye-Ang**3):
 XXXX=           -304.3230 YYYY=            -53.4143 ZZZZ=            -34.3070 XXXY=              3.8933
 XXXZ=              8.5107 YYYX=              0.2872 YYYZ=             -0.8331 ZZZX=             -0.2563
 ZZZY=             -0.0088 XXYY=            -57.2670 XXZZ=            -58.1225 YYZZ=            -15.8534
 XXYZ=             -0.4555 YYXZ=              0.9480 ZZXY=             -0.1120
 N-N= 1.022480195466D+02 E-N=-6.518546597761D+02  KE= 1.906363506689D+02
 No NMR shielding tensors so no spin-rotation constants.
 Leave Link  601 at Wed May 12 11:58:25 2021, MaxMem=  2147483648 cpu:         0.5
 (Enter /opt/cluster/programs/g09_d.01/g09/l701.exe)
 Compute integral first derivatives.
 ... and contract with generalized density number  0.
 R6Disp: Adding Grimme-D2 dispersion energy 1st derivatives to the gradient.
 Leave Link  701 at Wed May 12 11:58:25 2021, MaxMem=  2147483648 cpu:         0.5
 (Enter /opt/cluster/programs/g09_d.01/g09/l702.exe)
 L702 exits ... SP integral derivatives will be done elsewhere.
 Leave Link  702 at Wed May 12 11:58:25 2021, MaxMem=  2147483648 cpu:         0.1
 (Enter /opt/cluster/programs/g09_d.01/g09/l703.exe)
 Compute integral first derivatives, UseDBF=F ICtDFT=           0.
 Integral derivatives from FoFJK, PRISM(SPDF).
 Calling FoFJK, ICntrl=      2127 FMM=F ISym2X=0 I1Cent= 0 IOpClX= 0 NMat=1 NMatS=1 NMatT=0.
 FoFJK:  IHMeth= 1 ICntrl=    2127 DoSepK=T KAlg= 0 I1Cent=   0 FoldK=F
 IRaf=         1 NMat=   1 IRICut=       1 DoRegI=T DoRafI=F ISym2E= 0.
 FoFCou: FMM=F IPFlag=           0 FMFlag=      100000 FMFlg1=         800
         NFxFlg=           0 DoJE=F BraDBF=F KetDBF=F FulRan=T
         wScrn=  0.000000 ICntrl=    2527 IOpCl=  0 I1Cent=           0 NGrid=           0
         NMat0=    1 NMatS0=      1 NMatT0=    0 NMatD0=    1 NMtDS0=    0 NMtDT0=    0
 Symmetry not used in FoFCou.
 Leave Link  703 at Wed May 12 11:58:26 2021, MaxMem=  2147483648 cpu:         2.4
 (Enter /opt/cluster/programs/g09_d.01/g09/l716.exe)
 Dipole        =-1.36945901D+00 3.30841637D-01 2.65083646D-01
 ***** Axes restored to original set *****
 -------------------------------------------------------------------
 Center     Atomic                   Forces (Hartrees/Bohr)
 Number     Number              X              Y              Z
 -------------------------------------------------------------------
      1        6          -0.004209700   -0.000432158   -0.007075319
      2        6           0.002628655   -0.002640385    0.008066757
      3        6          -0.005009388    0.002882627    0.008775436
      4        8           0.007902301    0.001128438   -0.009285847
      5        1          -0.000456189   -0.001361200    0.000220411
      6        1          -0.000721659    0.000027950   -0.000404754
      7        1          -0.000320925   -0.000297360    0.000063100
      8        1           0.000186906    0.000692086   -0.000359784
 -------------------------------------------------------------------
 Cartesian Forces:  Max     0.009285847 RMS     0.004137807
 Leave Link  716 at Wed May 12 11:58:26 2021, MaxMem=  2147483648 cpu:         0.2
 (Enter /opt/cluster/programs/g09_d.01/g09/l103.exe)

 GradGradGradGradGradGradGradGradGradGradGradGradGradGradGradGradGradGrad
 Berny optimization.
 FormGI is forming the generalized inverse of G from B-inverse, IUseBI=4.
 Internal  Forces:  Max     0.010345650 RMS     0.003332032
 Search for a local minimum.
 Step number   1 out of a maximum of   34
 All quantities printed in internal units (Hartrees-Bohrs-Radians)
 RMS Force = .26414D-02 SwitMx=.10000D-02 MixMth= 1
 Mixed Optimization -- RFO/linear search
 Second derivative matrix not updated -- first step.
 ITU=  0
     Eigenvalues ---    0.01118   0.01885   0.02819   0.02819   0.15814
     Eigenvalues ---    0.16000   0.16000   0.16000   0.22014   0.22040
     Eigenvalues ---    0.33145   0.35007   0.35072   0.35143   0.35363
     Eigenvalues ---    0.56136   0.859281000.000001000.000001000.00000
     Eigenvalues --- 1000.000001000.000001000.000001000.00000
 RFO step:  Lambda=-2.63550682D-04 EMin= 1.11750471D-02
 Linear search not attempted -- first point.
 Iteration  1 RMS(Cart)=  0.01047148 RMS(Int)=  0.00006540
 Iteration  2 RMS(Cart)=  0.00006262 RMS(Int)=  0.00001464
 Iteration  3 RMS(Cart)=  0.00000000 RMS(Int)=  0.00001464
 Iteration  1 RMS(Cart)=  0.00000058 RMS(Int)=  0.00000042
 ITry= 1 IFail=0 DXMaxC= 2.16D-02 DCOld= 1.00D+10 DXMaxT= 3.00D-01 DXLimC= 3.00D+00 Rises=F
 Variable       Old X    -DE/DX   Delta X   Delta X   Delta X     New X
                                 (Linear)    (Quad)   (Total)
    R1        2.54136  -0.00667   0.00000  -0.01188  -0.01188   2.52948
    R2        2.05089  -0.00067   0.00000  -0.00191  -0.00191   2.04899
    R3        2.05664  -0.00030   0.00000  -0.00086  -0.00086   2.05578
    R4        2.78743  -0.00072   0.00000  -0.00203  -0.00203   2.78539
    R5        2.05558  -0.00067   0.00000  -0.00190  -0.00190   2.05368
    R6        2.34869  -0.01035   0.00000  -0.01204  -0.01204   2.33665
    R7        2.08797  -0.00140   0.00000  -0.00422  -0.00422   2.08375
    A1        2.12801  -0.00037   0.00000  -0.00230  -0.00230   2.12571
    A2        2.12238  -0.00010   0.00000  -0.00063  -0.00064   2.12174
    A3        2.03279   0.00047   0.00000   0.00294   0.00294   2.03573
    A4        2.11451  -0.00116   0.00000  -0.00534  -0.00538   2.10913
    A5        2.11932   0.00109   0.00000   0.00337   0.00333   2.12265
    A6        2.03414   0.00062   0.00000   0.00460   0.00457   2.03871
    A7        2.15349  -0.00089   0.00000  -0.00465  -0.00467   2.14882
    A8        2.03200   0.00108   0.00000   0.00504   0.00502   2.03702
    A9        2.09331   0.00038   0.00000   0.00062   0.00061   2.09391
    D1        2.99785   0.00197   0.00000   0.01549   0.01549   3.01334
    D2        0.04927  -0.00157   0.00000  -0.00151  -0.00151   0.04775
    D3       -0.14032   0.00190   0.00000   0.01310   0.01310  -0.12722
    D4       -3.08890  -0.00164   0.00000  -0.00391  -0.00391  -3.09281
    D5       -2.44344  -0.00810   0.00000   0.00000   0.00000  -2.44345
    D6        0.59727  -0.00151   0.00000   0.01165   0.01165   0.60892
    D7        0.51415  -0.00467   0.00000   0.01615   0.01615   0.53030
    D8       -2.72832   0.00193   0.00000   0.02780   0.02780  -2.70052
         Item               Value     Threshold  Converged?
 Maximum Force            0.010346     0.000450     NO 
 RMS     Force            0.002641     0.000300     NO 
 Maximum Displacement     0.021577     0.001800     NO 
 RMS     Displacement     0.010482     0.001200     NO 
 Predicted change in Energy=-1.320062D-04
 Lowest energy point so far.  Saving SCF results.
 GradGradGradGradGradGradGradGradGradGradGradGradGradGradGradGradGradGrad

 Leave Link  103 at Wed May 12 11:58:26 2021, MaxMem=  2147483648 cpu:         0.0
 (Enter /opt/cluster/programs/g09_d.01/g09/l202.exe)
                          Input orientation:                          
 ---------------------------------------------------------------------
 Center     Atomic      Atomic             Coordinates (Angstroms)
 Number     Number       Type             X           Y           Z
 ---------------------------------------------------------------------
      1          6           0        1.735421    0.149968    0.141889
      2          6           0        0.575985   -0.433431   -0.185287
      3          6           0       -0.681310    0.335807   -0.193136
      4          8           0       -1.754561   -0.119670    0.218702
      5          1           0       -0.615307    1.390228   -0.508931
      6          1           0        2.647727   -0.422509    0.266881
      7          1           0        1.808630    1.224272    0.296741
      8          1           0        0.491888   -1.511221   -0.296411
 ---------------------------------------------------------------------
                    Distance matrix (angstroms):
                    1          2          3          4          5
     1  C    0.000000
     2  C    1.338541   0.000000
     3  C    2.446910   1.473967   0.000000
     4  O    3.501225   2.386020   1.236501   0.000000
     5  H    2.736372   2.202193   1.102673   2.026608   0.000000
     6  H    1.084277   2.120540   3.445163   4.412954   3.812517
     7  H    1.087873   2.121260   2.688708   3.809015   2.559710
     8  H    2.120857   1.086763   2.190565   2.692264   3.112789
                    6          7          8
     6  H    0.000000
     7  H    1.848476   0.000000
     8  H    2.479966   3.093309   0.000000
 Stoichiometry    C3H4O
 Framework group  C1[X(C3H4O)]
 Deg. of freedom    18
 Full point group                 C1      NOp   1
 RotChk:  IX=0 Diff= 3.83D-03
 Largest Abelian subgroup         C1      NOp   1
 Largest concise Abelian subgroup C1      NOp   1
                         Standard orientation:                         
 ---------------------------------------------------------------------
 Center     Atomic      Atomic             Coordinates (Angstroms)
 Number     Number       Type             X           Y           Z
 ---------------------------------------------------------------------
      1          6           0       -1.732376    0.153314   -0.139888
      2          6           0       -0.574667   -0.433221    0.187796
      3          6           0        0.684642    0.332705    0.196576
      4          8           0        1.756928   -0.125482   -0.214768
      5          1           0        0.621231    1.387211    0.512620
      6          1           0       -2.646112   -0.416728   -0.265560
      7          1           0       -1.802670    1.227848   -0.294490
      8          1           0       -0.493469   -1.511259    0.298674
 ---------------------------------------------------------------------
 Rotational constants (GHZ):     40.7791053      4.6799861      4.3690053
 Leave Link  202 at Wed May 12 11:58:26 2021, MaxMem=  2147483648 cpu:         0.0
 (Enter /opt/cluster/programs/g09_d.01/g09/l301.exe)
 Standard basis: 6-31+G (6D, 7F)
 Ernie: Thresh=  0.10000D-02 Tol=  0.10000D-05 Strict=F.
 There are    60 symmetry adapted cartesian basis functions of A   symmetry.
 There are    60 symmetry adapted basis functions of A   symmetry.
    60 basis functions,   120 primitive gaussians,    60 cartesian basis functions
    15 alpha electrons       15 beta electrons
       nuclear repulsion energy       102.5961705104 Hartrees.
 IExCor= 4639 DFT=T Ex+Corr=wB97XD ExCW=0 ScaHFX=  1.000000
 ScaDFX=  1.000000  1.000000  1.000000  1.000000 ScalE2=  1.000000  1.000000
 IRadAn=      0 IRanWt=     -1 IRanGd=            0 ICorTp=0 IEmpDi=121
  HFx wShort=  0.000000 wLong=  0.200000 cFull=  0.222036 cShort=  0.000000 cLong=  0.777964
  DFx wShort=  0.000000 wLong=  0.200000 cFull=  0.000000 cShort=  0.000000 cLong=  1.000000
 NAtoms=    8 NActive=    8 NUniq=    8 SFac= 1.00D+00 NAtFMM=   60 NAOKFM=F Big=F
 Integral buffers will be    131072 words long.
 Raffenetti 2 integral format.
 Two-electron integral symmetry is turned on.
 R6Disp:  Grimme-D2 Dispersion energy=       -0.0018183116 Hartrees.
 Nuclear repulsion after empirical dispersion term =      102.5943521988 Hartrees.
 Leave Link  301 at Wed May 12 11:58:26 2021, MaxMem=  2147483648 cpu:         0.2
 (Enter /opt/cluster/programs/g09_d.01/g09/l302.exe)
 NPDir=0 NMtPBC=     1 NCelOv=     1 NCel=       1 NClECP=     1 NCelD=      1
         NCelK=      1 NCelE2=     1 NClLst=     1 CellRange=     0.0.
 One-electron integrals computed using PRISM.
 NBasis=    60 RedAO= T EigKep=  1.36D-04  NBF=    60
 NBsUse=    60 1.00D-06 EigRej= -1.00D+00 NBFU=    60
 Precomputing XC quadrature grid using
 IXCGrd= 4 IRadAn=           0 IRanWt=          -1 IRanGd=           0 AccXCQ= 0.00D+00.
 Generated NRdTot=       0 NPtTot=           0 NUsed=           0 NTot=          32
 NSgBfM=    60    60    60    60    60 MxSgAt=     8 MxSgA2=     8.
 Leave Link  302 at Wed May 12 11:58:26 2021, MaxMem=  2147483648 cpu:         0.7
 (Enter /opt/cluster/programs/g09_d.01/g09/l303.exe)
 DipDrv:  MaxL=1.
 Leave Link  303 at Wed May 12 11:58:26 2021, MaxMem=  2147483648 cpu:         0.1
 (Enter /opt/cluster/programs/g09_d.01/g09/l401.exe)
 Initial guess from the checkpoint file:  "/home/unibas/boittier/RDKit_G2/L.pdb/SCAN_1_2_3_4_S_17_20.0/2_SCAN_1_2_3_4_F/L.pdb.chk"
 B after Tr=     0.000000    0.000000    0.000000
         Rot=    0.999999   -0.001061   -0.000028    0.000655 Ang=  -0.14 deg.
 Guess basis will be translated and rotated to current coordinates.
 JPrj=2 DoOrth=T DoCkMO=T.
 Generating alternative initial guess.
 ExpMin= 4.38D-02 ExpMax= 5.48D+03 ExpMxC= 8.25D+02 IAcc=2 IRadAn=         4 AccDes= 0.00D+00
 Harris functional with IExCor= 4639 and IRadAn=       4 diagonalized for initial guess.
 HarFok:  IExCor= 4639 AccDes= 0.00D+00 IRadAn=         4 IDoV= 1 UseB2=F ITyADJ=14
 ICtDFT=  3500011 ScaDFX=  1.000000  1.000000  1.000000  1.000000
 FoFCou: FMM=F IPFlag=           0 FMFlag=      100000 FMFlg1=           0
         NFxFlg=           0 DoJE=T BraDBF=F KetDBF=T FulRan=T
         wScrn=  0.000000 ICntrl=     500 IOpCl=  0 I1Cent=   200000004 NGrid=           0
         NMat0=    1 NMatS0=      1 NMatT0=    0 NMatD0=    1 NMtDS0=    0 NMtDT0=    0
 Petite list used in FoFCou.
 Harris En= -183.743917773315    
 Leave Link  401 at Wed May 12 11:58:26 2021, MaxMem=  2147483648 cpu:         1.3
 (Enter /opt/cluster/programs/g09_d.01/g09/l502.exe)
 Closed shell SCF:
 Using DIIS extrapolation, IDIIS=  1040.
 Integral symmetry usage will be decided dynamically.
 Keep R1 ints in memory in canonical form, NReq=4262490.
 IVT=       30290 IEndB=       30290 NGot=  2147483648 MDV=  2144102629
 LenX=  2144102629 LenY=  2144098588
 Requested convergence on RMS density matrix=1.00D-08 within 128 cycles.
 Requested convergence on MAX density matrix=1.00D-06.
 Requested convergence on             energy=1.00D-06.
 No special actions if energy rises.
 FoFCou: FMM=F IPFlag=           0 FMFlag=           0 FMFlg1=           0
         NFxFlg=           0 DoJE=F BraDBF=F KetDBF=F FulRan=T
         wScrn=  0.000000 ICntrl=     600 IOpCl=  0 I1Cent=           0 NGrid=           0
         NMat0=    1 NMatS0=   1830 NMatT0=    0 NMatD0=    1 NMtDS0=    0 NMtDT0=    0
 Symmetry not used in FoFCou.

 Cycle   1  Pass 1  IDiag  1:
 E= -191.790937039679    
 DIIS: error= 5.09D-04 at cycle   1 NSaved=   1.
 NSaved= 1 IEnMin= 1 EnMin= -191.790937039679     IErMin= 1 ErrMin= 5.09D-04
 ErrMax= 5.09D-04  0.00D+00 EMaxC= 1.00D-01 BMatC= 4.74D-05 BMatP= 4.74D-05
 IDIUse=3 WtCom= 9.95D-01 WtEn= 5.09D-03
 Coeff-Com:  0.100D+01
 Coeff-En:   0.100D+01
 Coeff:      0.100D+01
 Gap=     0.616 Goal=   None    Shift=    0.000
 RMSDP=2.92D-04 MaxDP=3.82D-03              OVMax= 2.80D-03

 Cycle   2  Pass 1  IDiag  1:
 E= -191.791017533303     Delta-E=       -0.000080493624 Rises=F Damp=F
 DIIS: error= 2.01D-04 at cycle   2 NSaved=   2.
 NSaved= 2 IEnMin= 2 EnMin= -191.791017533303     IErMin= 2 ErrMin= 2.01D-04
 ErrMax= 2.01D-04  0.00D+00 EMaxC= 1.00D-01 BMatC= 3.75D-06 BMatP= 4.74D-05
 IDIUse=3 WtCom= 9.98D-01 WtEn= 2.01D-03
 Coeff-Com:  0.171D-01 0.983D+00
 Coeff-En:   0.000D+00 0.100D+01
 Coeff:      0.170D-01 0.983D+00
 Gap=     0.347 Goal=   None    Shift=    0.000
 RMSDP=9.60D-05 MaxDP=1.08D-03 DE=-8.05D-05 OVMax= 1.14D-03

 Cycle   3  Pass 1  IDiag  1:
 E= -191.791024950241     Delta-E=       -0.000007416938 Rises=F Damp=F
 DIIS: error= 1.34D-04 at cycle   3 NSaved=   3.
 NSaved= 3 IEnMin= 3 EnMin= -191.791024950241     IErMin= 3 ErrMin= 1.34D-04
 ErrMax= 1.34D-04  0.00D+00 EMaxC= 1.00D-01 BMatC= 1.14D-06 BMatP= 3.75D-06
 IDIUse=3 WtCom= 9.99D-01 WtEn= 1.34D-03
 Coeff-Com: -0.674D-01 0.305D+00 0.763D+00
 Coeff-En:   0.000D+00 0.000D+00 0.100D+01
 Coeff:     -0.673D-01 0.304D+00 0.763D+00
 Gap=     0.347 Goal=   None    Shift=    0.000
 RMSDP=3.78D-05 MaxDP=3.05D-04 DE=-7.42D-06 OVMax= 5.80D-04

 Cycle   4  Pass 1  IDiag  1:
 E= -191.791026695867     Delta-E=       -0.000001745626 Rises=F Damp=F
 DIIS: error= 6.75D-05 at cycle   4 NSaved=   4.
 NSaved= 4 IEnMin= 4 EnMin= -191.791026695867     IErMin= 4 ErrMin= 6.75D-05
 ErrMax= 6.75D-05  0.00D+00 EMaxC= 1.00D-01 BMatC= 4.07D-07 BMatP= 1.14D-06
 IDIUse=1 WtCom= 1.00D+00 WtEn= 0.00D+00
 Coeff-Com: -0.398D-01 0.830D-01 0.410D+00 0.547D+00
 Coeff:     -0.398D-01 0.830D-01 0.410D+00 0.547D+00
 Gap=     0.347 Goal=   None    Shift=    0.000
 RMSDP=1.70D-05 MaxDP=2.21D-04 DE=-1.75D-06 OVMax= 3.03D-04

 Cycle   5  Pass 1  IDiag  1:
 E= -191.791027166880     Delta-E=       -0.000000471013 Rises=F Damp=F
 DIIS: error= 3.48D-05 at cycle   5 NSaved=   5.
 NSaved= 5 IEnMin= 5 EnMin= -191.791027166880     IErMin= 5 ErrMin= 3.48D-05
 ErrMax= 3.48D-05  0.00D+00 EMaxC= 1.00D-01 BMatC= 4.68D-08 BMatP= 4.07D-07
 IDIUse=1 WtCom= 1.00D+00 WtEn= 0.00D+00
 Coeff-Com:  0.129D-01-0.919D-01-0.134D+00 0.168D+00 0.104D+01
 Coeff:      0.129D-01-0.919D-01-0.134D+00 0.168D+00 0.104D+01
 Gap=     0.347 Goal=   None    Shift=    0.000
 RMSDP=1.43D-05 MaxDP=1.43D-04 DE=-4.71D-07 OVMax= 3.91D-04

 Cycle   6  Pass 1  IDiag  1:
 E= -191.791027350155     Delta-E=       -0.000000183274 Rises=F Damp=F
 DIIS: error= 1.67D-05 at cycle   6 NSaved=   6.
 NSaved= 6 IEnMin= 6 EnMin= -191.791027350155     IErMin= 6 ErrMin= 1.67D-05
 ErrMax= 1.67D-05  0.00D+00 EMaxC= 1.00D-01 BMatC= 3.14D-09 BMatP= 4.68D-08
 IDIUse=1 WtCom= 1.00D+00 WtEn= 0.00D+00
 Coeff-Com:  0.212D-02 0.886D-03-0.197D-01-0.750D-01-0.742D-01 0.117D+01
 Coeff:      0.212D-02 0.886D-03-0.197D-01-0.750D-01-0.742D-01 0.117D+01
 Gap=     0.347 Goal=   None    Shift=    0.000
 RMSDP=5.71D-06 MaxDP=6.42D-05 DE=-1.83D-07 OVMax= 1.81D-04

 Cycle   7  Pass 1  IDiag  1:
 E= -191.791027375197     Delta-E=       -0.000000025042 Rises=F Damp=F
 DIIS: error= 6.79D-06 at cycle   7 NSaved=   7.
 NSaved= 7 IEnMin= 7 EnMin= -191.791027375197     IErMin= 7 ErrMin= 6.79D-06
 ErrMax= 6.79D-06  0.00D+00 EMaxC= 1.00D-01 BMatC= 8.28D-10 BMatP= 3.14D-09
 IDIUse=1 WtCom= 1.00D+00 WtEn= 0.00D+00
 Coeff-Com: -0.211D-02 0.180D-01 0.210D-01-0.514D-01-0.231D+00 0.324D+00
 Coeff-Com:  0.921D+00
 Coeff:     -0.211D-02 0.180D-01 0.210D-01-0.514D-01-0.231D+00 0.324D+00
 Coeff:      0.921D+00
 Gap=     0.347 Goal=   None    Shift=    0.000
 RMSDP=2.65D-06 MaxDP=2.30D-05 DE=-2.50D-08 OVMax= 8.63D-05

 Cycle   8  Pass 1  IDiag  1:
 E= -191.791027380113     Delta-E=       -0.000000004916 Rises=F Damp=F
 DIIS: error= 2.16D-06 at cycle   8 NSaved=   8.
 NSaved= 8 IEnMin= 8 EnMin= -191.791027380113     IErMin= 8 ErrMin= 2.16D-06
 ErrMax= 2.16D-06  0.00D+00 EMaxC= 1.00D-01 BMatC= 1.37D-10 BMatP= 8.28D-10
 IDIUse=1 WtCom= 1.00D+00 WtEn= 0.00D+00
 Coeff-Com: -0.569D-03 0.171D-02 0.571D-02 0.138D-01-0.147D-01-0.196D+00
 Coeff-Com:  0.137D+00 0.105D+01
 Coeff:     -0.569D-03 0.171D-02 0.571D-02 0.138D-01-0.147D-01-0.196D+00
 Coeff:      0.137D+00 0.105D+01
 Gap=     0.347 Goal=   None    Shift=    0.000
 RMSDP=1.14D-06 MaxDP=1.26D-05 DE=-4.92D-09 OVMax= 3.47D-05

 Cycle   9  Pass 1  IDiag  1:
 E= -191.791027380833     Delta-E=       -0.000000000720 Rises=F Damp=F
 DIIS: error= 7.47D-07 at cycle   9 NSaved=   9.
 NSaved= 9 IEnMin= 9 EnMin= -191.791027380833     IErMin= 9 ErrMin= 7.47D-07
 ErrMax= 7.47D-07  0.00D+00 EMaxC= 1.00D-01 BMatC= 3.23D-11 BMatP= 1.37D-10
 IDIUse=1 WtCom= 1.00D+00 WtEn= 0.00D+00
 Coeff-Com:  0.163D-04-0.176D-02-0.239D-03 0.143D-01 0.261D-01-0.145D+00
 Coeff-Com: -0.654D-01 0.482D+00 0.690D+00
 Coeff:      0.163D-04-0.176D-02-0.239D-03 0.143D-01 0.261D-01-0.145D+00
 Coeff:     -0.654D-01 0.482D+00 0.690D+00
 Gap=     0.347 Goal=   None    Shift=    0.000
 RMSDP=3.37D-07 MaxDP=4.28D-06 DE=-7.20D-10 OVMax= 8.94D-06

 Cycle  10  Pass 1  IDiag  1:
 E= -191.791027380910     Delta-E=       -0.000000000076 Rises=F Damp=F
 DIIS: error= 1.78D-07 at cycle  10 NSaved=  10.
 NSaved=10 IEnMin=10 EnMin= -191.791027380910     IErMin=10 ErrMin= 1.78D-07
 ErrMax= 1.78D-07  0.00D+00 EMaxC= 1.00D-01 BMatC= 1.36D-12 BMatP= 3.23D-11
 IDIUse=1 WtCom= 1.00D+00 WtEn= 0.00D+00
 Coeff-Com:  0.786D-04-0.260D-03-0.827D-03-0.214D-02 0.322D-02 0.250D-01
 Coeff-Com: -0.151D-01-0.148D+00 0.175D-01 0.112D+01
 Coeff:      0.786D-04-0.260D-03-0.827D-03-0.214D-02 0.322D-02 0.250D-01
 Coeff:     -0.151D-01-0.148D+00 0.175D-01 0.112D+01
 Gap=     0.347 Goal=   None    Shift=    0.000
 RMSDP=1.38D-07 MaxDP=1.98D-06 DE=-7.65D-11 OVMax= 2.02D-06

 Cycle  11  Pass 1  IDiag  1:
 E= -191.791027380914     Delta-E=       -0.000000000005 Rises=F Damp=F
 DIIS: error= 3.15D-08 at cycle  11 NSaved=  11.
 NSaved=11 IEnMin=11 EnMin= -191.791027380914     IErMin=11 ErrMin= 3.15D-08
 ErrMax= 3.15D-08  0.00D+00 EMaxC= 1.00D-01 BMatC= 2.44D-14 BMatP= 1.36D-12
 IDIUse=1 WtCom= 1.00D+00 WtEn= 0.00D+00
 Coeff-Com: -0.109D-04 0.965D-04 0.105D-03-0.148D-03-0.142D-02 0.158D-02
 Coeff-Com:  0.533D-02-0.392D-04-0.210D-01-0.165D+00 0.118D+01
 Coeff:     -0.109D-04 0.965D-04 0.105D-03-0.148D-03-0.142D-02 0.158D-02
 Coeff:      0.533D-02-0.392D-04-0.210D-01-0.165D+00 0.118D+01
 Gap=     0.347 Goal=   None    Shift=    0.000
 RMSDP=2.15D-08 MaxDP=2.09D-07 DE=-4.77D-12 OVMax= 2.60D-07

 Cycle  12  Pass 1  IDiag  1:
 E= -191.791027380914     Delta-E=        0.000000000000 Rises=F Damp=F
 DIIS: error= 5.12D-09 at cycle  12 NSaved=  12.
 NSaved=12 IEnMin=12 EnMin= -191.791027380914     IErMin=12 ErrMin= 5.12D-09
 ErrMax= 5.12D-09  0.00D+00 EMaxC= 1.00D-01 BMatC= 7.52D-16 BMatP= 2.44D-14
 IDIUse=1 WtCom= 1.00D+00 WtEn= 0.00D+00
 Coeff-Com:  0.281D-06-0.126D-04-0.447D-05 0.904D-04 0.215D-03-0.101D-02
 Coeff-Com: -0.534D-03 0.345D-02 0.520D-02 0.329D-02-0.249D+00 0.124D+01
 Coeff:      0.281D-06-0.126D-04-0.447D-05 0.904D-04 0.215D-03-0.101D-02
 Coeff:     -0.534D-03 0.345D-02 0.520D-02 0.329D-02-0.249D+00 0.124D+01
 Gap=     0.347 Goal=   None    Shift=    0.000
 RMSDP=4.47D-09 MaxDP=7.65D-08 DE=-5.68D-14 OVMax= 5.17D-08

 SCF Done:  E(RwB97XD) =  -191.791027381     A.U. after   12 cycles
            NFock= 12  Conv=0.45D-08     -V/T= 2.0058
 KE= 1.906885363051D+02 PE=-6.525887506494D+02 EE= 1.675148347646D+02
 Leave Link  502 at Wed May 12 11:58:27 2021, MaxMem=  2147483648 cpu:         8.0
 (Enter /opt/cluster/programs/g09_d.01/g09/l701.exe)
 Compute integral first derivatives.
 ... and contract with generalized density number  0.
 R6Disp: Adding Grimme-D2 dispersion energy 1st derivatives to the gradient.
 Leave Link  701 at Wed May 12 11:58:27 2021, MaxMem=  2147483648 cpu:         0.5
 (Enter /opt/cluster/programs/g09_d.01/g09/l702.exe)
 L702 exits ... SP integral derivatives will be done elsewhere.
 Leave Link  702 at Wed May 12 11:58:27 2021, MaxMem=  2147483648 cpu:         0.1
 (Enter /opt/cluster/programs/g09_d.01/g09/l703.exe)
 Compute integral first derivatives, UseDBF=F ICtDFT=           0.
 Integral derivatives from FoFJK, PRISM(SPDF).
 Calling FoFJK, ICntrl=      2127 FMM=F ISym2X=0 I1Cent= 0 IOpClX= 0 NMat=1 NMatS=1 NMatT=0.
 FoFJK:  IHMeth= 1 ICntrl=    2127 DoSepK=T KAlg= 0 I1Cent=   0 FoldK=F
 IRaf=         1 NMat=   1 IRICut=       1 DoRegI=T DoRafI=F ISym2E= 0.
 FoFCou: FMM=F IPFlag=           0 FMFlag=      100000 FMFlg1=         800
         NFxFlg=           0 DoJE=F BraDBF=F KetDBF=F FulRan=T
         wScrn=  0.000000 ICntrl=    2527 IOpCl=  0 I1Cent=           0 NGrid=           0
         NMat0=    1 NMatS0=      1 NMatT0=    0 NMatD0=    1 NMtDS0=    0 NMtDT0=    0
 Symmetry not used in FoFCou.
 Leave Link  703 at Wed May 12 11:58:28 2021, MaxMem=  2147483648 cpu:         2.3
 (Enter /opt/cluster/programs/g09_d.01/g09/l716.exe)
 Dipole        =-1.34897673D+00 3.28633303D-01 2.74287128D-01
 ***** Axes restored to original set *****
 -------------------------------------------------------------------
 Center     Atomic                   Forces (Hartrees/Bohr)
 Number     Number              X              Y              Z
 -------------------------------------------------------------------
      1        6           0.001646731    0.001638156   -0.005555906
      2        6          -0.001371060   -0.003580088    0.005432969
      3        6          -0.000014409    0.003193688    0.005960119
      4        8          -0.000605006   -0.001654912   -0.005997921
      5        1           0.000331124    0.000206854    0.000114469
      6        1           0.000160410    0.000076310    0.000152555
      7        1           0.000070938   -0.000013443    0.000034615
      8        1          -0.000218728    0.000133436   -0.000140900
 -------------------------------------------------------------------
 Cartesian Forces:  Max     0.005997921 RMS     0.002626724
 Leave Link  716 at Wed May 12 11:58:28 2021, MaxMem=  2147483648 cpu:         0.1
 (Enter /opt/cluster/programs/g09_d.01/g09/l103.exe)

 GradGradGradGradGradGradGradGradGradGradGradGradGradGradGradGradGradGrad
 Berny optimization.
 Using GEDIIS/GDIIS optimizer.
 FormGI is forming the generalized inverse of G from B-inverse, IUseBI=4.
 Internal  Forces:  Max     0.007584048 RMS     0.002010924
 Search for a local minimum.
 Step number   2 out of a maximum of   34
 All quantities printed in internal units (Hartrees-Bohrs-Radians)
 RMS Force = .42667D-03 SwitMx=.10000D-02 MixMth= 2
 Mixed Optimization -- En-DIIS/RFO-DIIS
 Update second derivatives using D2CorX and points    1    2
 DE= -1.23D-04 DEPred=-1.32D-04 R= 9.33D-01
 TightC=F SS=  1.41D+00  RLast= 4.51D-02 DXNew= 5.0454D-01 1.3541D-01
 Trust test= 9.33D-01 RLast= 4.51D-02 DXMaxT set to 3.00D-01
 ITU=  1  0
 Use linear search instead of GDIIS.
     Eigenvalues ---    0.01170   0.01805   0.02815   0.02846   0.15844
     Eigenvalues ---    0.15989   0.16000   0.16242   0.21967   0.22797
     Eigenvalues ---    0.33124   0.34868   0.35018   0.35278   0.35922
     Eigenvalues ---    0.61232   0.776581000.000001000.000001000.00000
     Eigenvalues --- 1000.000001000.000001000.000001000.00000
 RFO step:  Lambda=-1.64523197D-05 EMin= 1.17007686D-02
 Quartic linear search produced a step of -0.06238.
 Iteration  1 RMS(Cart)=  0.00424671 RMS(Int)=  0.00003312
 Iteration  2 RMS(Cart)=  0.00002629 RMS(Int)=  0.00001602
 Iteration  3 RMS(Cart)=  0.00000000 RMS(Int)=  0.00001602
 Iteration  1 RMS(Cart)=  0.00000007 RMS(Int)=  0.00000005
 ITry= 1 IFail=0 DXMaxC= 1.31D-02 DCOld= 1.00D+10 DXMaxT= 3.00D-01 DXLimC= 3.00D+00 Rises=F
 Variable       Old X    -DE/DX   Delta X   Delta X   Delta X     New X
                                 (Linear)    (Quad)   (Total)
    R1        2.52948   0.00106   0.00074   0.00029   0.00103   2.53051
    R2        2.04899   0.00011   0.00012   0.00005   0.00017   2.04915
    R3        2.05578   0.00000   0.00005  -0.00010  -0.00005   2.05574
    R4        2.78539   0.00115   0.00013   0.00281   0.00294   2.78833
    R5        2.05368  -0.00010   0.00012  -0.00051  -0.00039   2.05330
    R6        2.33665  -0.00086   0.00075  -0.00244  -0.00169   2.33496
    R7        2.08375   0.00018   0.00026  -0.00002   0.00025   2.08400
    A1        2.12571   0.00021   0.00014   0.00094   0.00109   2.12680
    A2        2.12174  -0.00003   0.00004  -0.00028  -0.00024   2.12150
    A3        2.03573  -0.00018  -0.00018  -0.00067  -0.00085   2.03488
    A4        2.10913   0.00036   0.00034   0.00048   0.00081   2.10994
    A5        2.12265   0.00061  -0.00021   0.00181   0.00160   2.12425
    A6        2.03871  -0.00051  -0.00028  -0.00114  -0.00143   2.03728
    A7        2.14882   0.00064   0.00029   0.00113   0.00138   2.15020
    A8        2.03702  -0.00039  -0.00031  -0.00271  -0.00307   2.03394
    A9        2.09391   0.00021  -0.00004   0.00026   0.00018   2.09409
    D1        3.01334   0.00145  -0.00097   0.00154   0.00057   3.01392
    D2        0.04775  -0.00165   0.00009  -0.00628  -0.00619   0.04156
    D3       -0.12722   0.00156  -0.00082   0.00474   0.00393  -0.12329
    D4       -3.09281  -0.00155   0.00024  -0.00308  -0.00283  -3.09565
    D5       -2.44345  -0.00758   0.00000   0.00000   0.00000  -2.44344
    D6        0.60892  -0.00173  -0.00073  -0.01707  -0.01779   0.59113
    D7        0.53030  -0.00452  -0.00101   0.00773   0.00672   0.53702
    D8       -2.70052   0.00134  -0.00173  -0.00933  -0.01107  -2.71158
         Item               Value     Threshold  Converged?
 Maximum Force            0.001149     0.000450     NO 
 RMS     Force            0.000427     0.000300     NO 
 Maximum Displacement     0.013079     0.001800     NO 
 RMS     Displacement     0.004249     0.001200     NO 
 Predicted change in Energy=-8.792981D-06
 Lowest energy point so far.  Saving SCF results.
 GradGradGradGradGradGradGradGradGradGradGradGradGradGradGradGradGradGrad

 Leave Link  103 at Wed May 12 11:58:28 2021, MaxMem=  2147483648 cpu:         0.1
 (Enter /opt/cluster/programs/g09_d.01/g09/l202.exe)
                          Input orientation:                          
 ---------------------------------------------------------------------
 Center     Atomic      Atomic             Coordinates (Angstroms)
 Number     Number       Type             X           Y           Z
 ---------------------------------------------------------------------
      1          6           0        1.735752    0.150232    0.140517
      2          6           0        0.575920   -0.435146   -0.183947
      3          6           0       -0.683289    0.333878   -0.196607
      4          8           0       -1.756368   -0.118353    0.216563
      5          1           0       -0.611860    1.391139   -0.502010
      6          1           0        2.648790   -0.420567    0.268573
      7          1           0        1.807913    1.224909    0.293078
      8          1           0        0.491615   -1.512647   -0.295720
 ---------------------------------------------------------------------
                    Distance matrix (angstroms):
                    1          2          3          4          5
     1  C    0.000000
     2  C    1.339087   0.000000
     3  C    2.449313   1.475522   0.000000
     4  O    3.503258   2.387536   1.235605   0.000000
     5  H    2.732027   2.201659   1.102803   2.026034   0.000000
     6  H    1.084366   2.121740   3.447946   4.415818   3.808926
     7  H    1.087848   2.121591   2.690691   3.809765   2.552470
     8  H    2.122109   1.086558   2.190863   2.694423   3.113228
                    6          7          8
     6  H    0.000000
     7  H    1.848044   0.000000
     8  H    2.482836   3.094114   0.000000
 Stoichiometry    C3H4O
 Framework group  C1[X(C3H4O)]
 Deg. of freedom    18
 Full point group                 C1      NOp   1
 RotChk:  IX=0 Diff= 7.31D-04
 Largest Abelian subgroup         C1      NOp   1
 Largest concise Abelian subgroup C1      NOp   1
                         Standard orientation:                         
 ---------------------------------------------------------------------
 Center     Atomic      Atomic             Coordinates (Angstroms)
 Number     Number       Type             X           Y           Z
 ---------------------------------------------------------------------
      1          6           0       -1.733458    0.154082   -0.138762
      2          6           0       -0.575280   -0.434638    0.185562
      3          6           0        0.686043    0.330905    0.198704
      4          8           0        1.757915   -0.124097   -0.214555
      5          1           0        0.617497    1.388221    0.504576
      6          1           0       -2.648053   -0.414139   -0.267173
      7          1           0       -1.802639    1.229023   -0.290847
      8          1           0       -0.493959   -1.512418    0.296858
 ---------------------------------------------------------------------
 Rotational constants (GHZ):     40.8140971      4.6747310      4.3636603
 Leave Link  202 at Wed May 12 11:58:28 2021, MaxMem=  2147483648 cpu:         0.0
 (Enter /opt/cluster/programs/g09_d.01/g09/l301.exe)
 Standard basis: 6-31+G (6D, 7F)
 Ernie: Thresh=  0.10000D-02 Tol=  0.10000D-05 Strict=F.
 There are    60 symmetry adapted cartesian basis functions of A   symmetry.
 There are    60 symmetry adapted basis functions of A   symmetry.
    60 basis functions,   120 primitive gaussians,    60 cartesian basis functions
    15 alpha electrons       15 beta electrons
       nuclear repulsion energy       102.5704422014 Hartrees.
 IExCor= 4639 DFT=T Ex+Corr=wB97XD ExCW=0 ScaHFX=  1.000000
 ScaDFX=  1.000000  1.000000  1.000000  1.000000 ScalE2=  1.000000  1.000000
 IRadAn=      0 IRanWt=     -1 IRanGd=            0 ICorTp=0 IEmpDi=121
  HFx wShort=  0.000000 wLong=  0.200000 cFull=  0.222036 cShort=  0.000000 cLong=  0.777964
  DFx wShort=  0.000000 wLong=  0.200000 cFull=  0.000000 cShort=  0.000000 cLong=  1.000000
 NAtoms=    8 NActive=    8 NUniq=    8 SFac= 1.00D+00 NAtFMM=   60 NAOKFM=F Big=F
 Integral buffers will be    131072 words long.
 Raffenetti 2 integral format.
 Two-electron integral symmetry is turned on.
 R6Disp:  Grimme-D2 Dispersion energy=       -0.0018190842 Hartrees.
 Nuclear repulsion after empirical dispersion term =      102.5686231171 Hartrees.
 Leave Link  301 at Wed May 12 11:58:28 2021, MaxMem=  2147483648 cpu:         0.2
 (Enter /opt/cluster/programs/g09_d.01/g09/l302.exe)
 NPDir=0 NMtPBC=     1 NCelOv=     1 NCel=       1 NClECP=     1 NCelD=      1
         NCelK=      1 NCelE2=     1 NClLst=     1 CellRange=     0.0.
 One-electron integrals computed using PRISM.
 NBasis=    60 RedAO= T EigKep=  1.36D-04  NBF=    60
 NBsUse=    60 1.00D-06 EigRej= -1.00D+00 NBFU=    60
 Precomputing XC quadrature grid using
 IXCGrd= 4 IRadAn=           0 IRanWt=          -1 IRanGd=           0 AccXCQ= 0.00D+00.
 Generated NRdTot=       0 NPtTot=           0 NUsed=           0 NTot=          32
 NSgBfM=    60    60    60    60    60 MxSgAt=     8 MxSgA2=     8.
 Leave Link  302 at Wed May 12 11:58:28 2021, MaxMem=  2147483648 cpu:         0.7
 (Enter /opt/cluster/programs/g09_d.01/g09/l303.exe)
 DipDrv:  MaxL=1.
 Leave Link  303 at Wed May 12 11:58:28 2021, MaxMem=  2147483648 cpu:         0.1
 (Enter /opt/cluster/programs/g09_d.01/g09/l401.exe)
 Initial guess from the checkpoint file:  "/home/unibas/boittier/RDKit_G2/L.pdb/SCAN_1_2_3_4_S_17_20.0/2_SCAN_1_2_3_4_F/L.pdb.chk"
 B after Tr=     0.000000    0.000000    0.000000
         Rot=    1.000000   -0.000811    0.000023   -0.000018 Ang=  -0.09 deg.
 Guess basis will be translated and rotated to current coordinates.
 JPrj=2 DoOrth=T DoCkMO=T.
 Leave Link  401 at Wed May 12 11:58:28 2021, MaxMem=  2147483648 cpu:         0.5
 (Enter /opt/cluster/programs/g09_d.01/g09/l502.exe)
 Closed shell SCF:
 Using DIIS extrapolation, IDIIS=  1040.
 Integral symmetry usage will be decided dynamically.
 Keep R1 ints in memory in canonical form, NReq=4262490.
 IVT=       30290 IEndB=       30290 NGot=  2147483648 MDV=  2144102629
 LenX=  2144102629 LenY=  2144098588
 Requested convergence on RMS density matrix=1.00D-08 within 128 cycles.
 Requested convergence on MAX density matrix=1.00D-06.
 Requested convergence on             energy=1.00D-06.
 No special actions if energy rises.
 FoFCou: FMM=F IPFlag=           0 FMFlag=           0 FMFlg1=           0
         NFxFlg=           0 DoJE=F BraDBF=F KetDBF=F FulRan=T
         wScrn=  0.000000 ICntrl=     600 IOpCl=  0 I1Cent=           0 NGrid=           0
         NMat0=    1 NMatS0=   1830 NMatT0=    0 NMatD0=    1 NMtDS0=    0 NMtDT0=    0
 Symmetry not used in FoFCou.

 Cycle   1  Pass 1  IDiag  1:
 E= -191.791011124320    
 DIIS: error= 3.23D-04 at cycle   1 NSaved=   1.
 NSaved= 1 IEnMin= 1 EnMin= -191.791011124320     IErMin= 1 ErrMin= 3.23D-04
 ErrMax= 3.23D-04  0.00D+00 EMaxC= 1.00D-01 BMatC= 7.48D-06 BMatP= 7.48D-06
 IDIUse=3 WtCom= 9.97D-01 WtEn= 3.23D-03
 Coeff-Com:  0.100D+01
 Coeff-En:   0.100D+01
 Coeff:      0.100D+01
 Gap=     0.617 Goal=   None    Shift=    0.000
 RMSDP=1.23D-04 MaxDP=9.06D-04              OVMax= 1.26D-03

 Cycle   2  Pass 1  IDiag  1:
 E= -191.791025399458     Delta-E=       -0.000014275138 Rises=F Damp=F
 DIIS: error= 8.97D-05 at cycle   2 NSaved=   2.
 NSaved= 2 IEnMin= 2 EnMin= -191.791025399458     IErMin= 2 ErrMin= 8.97D-05
 ErrMax= 8.97D-05  0.00D+00 EMaxC= 1.00D-01 BMatC= 7.94D-07 BMatP= 7.48D-06
 IDIUse=1 WtCom= 1.00D+00 WtEn= 0.00D+00
 Coeff-Com: -0.180D-01 0.102D+01
 Coeff:     -0.180D-01 0.102D+01
 Gap=     0.347 Goal=   None    Shift=    0.000
 RMSDP=4.45D-05 MaxDP=4.69D-04 DE=-1.43D-05 OVMax= 7.34D-04

 Cycle   3  Pass 1  IDiag  1:
 E= -191.791026070198     Delta-E=       -0.000000670740 Rises=F Damp=F
 DIIS: error= 1.17D-04 at cycle   3 NSaved=   3.
 NSaved= 3 IEnMin= 3 EnMin= -191.791026070198     IErMin= 2 ErrMin= 8.97D-05
 ErrMax= 1.17D-04  0.00D+00 EMaxC= 1.00D-01 BMatC= 1.21D-06 BMatP= 7.94D-07
 IDIUse=3 WtCom= 4.80D-01 WtEn= 5.20D-01
 Coeff-Com: -0.119D+00 0.634D+00 0.486D+00
 Coeff-En:   0.000D+00 0.196D+00 0.804D+00
 Coeff:     -0.572D-01 0.406D+00 0.651D+00
 Gap=     0.347 Goal=   None    Shift=    0.000
 RMSDP=3.04D-05 MaxDP=3.42D-04 DE=-6.71D-07 OVMax= 3.57D-04

 Cycle   4  Pass 1  IDiag  1:
 E= -191.791026807329     Delta-E=       -0.000000737131 Rises=F Damp=F
 DIIS: error= 7.20D-05 at cycle   4 NSaved=   4.
 NSaved= 4 IEnMin= 4 EnMin= -191.791026807329     IErMin= 4 ErrMin= 7.20D-05
 ErrMax= 7.20D-05  0.00D+00 EMaxC= 1.00D-01 BMatC= 4.54D-07 BMatP= 7.94D-07
 IDIUse=1 WtCom= 1.00D+00 WtEn= 0.00D+00
 Coeff-Com: -0.155D-01-0.742D-01 0.388D+00 0.702D+00
 Coeff:     -0.155D-01-0.742D-01 0.388D+00 0.702D+00
 Gap=     0.347 Goal=   None    Shift=    0.000
 RMSDP=1.40D-05 MaxDP=1.71D-04 DE=-7.37D-07 OVMax= 2.76D-04

 Cycle   5  Pass 1  IDiag  1:
 E= -191.791027221504     Delta-E=       -0.000000414175 Rises=F Damp=F
 DIIS: error= 1.79D-05 at cycle   5 NSaved=   5.
 NSaved= 5 IEnMin= 5 EnMin= -191.791027221504     IErMin= 5 ErrMin= 1.79D-05
 ErrMax= 1.79D-05  0.00D+00 EMaxC= 1.00D-01 BMatC= 8.01D-09 BMatP= 4.54D-07
 IDIUse=1 WtCom= 1.00D+00 WtEn= 0.00D+00
 Coeff-Com:  0.178D-01-0.150D+00 0.417D-01 0.247D+00 0.844D+00
 Coeff:      0.178D-01-0.150D+00 0.417D-01 0.247D+00 0.844D+00
 Gap=     0.347 Goal=   None    Shift=    0.000
 RMSDP=5.23D-06 MaxDP=4.22D-05 DE=-4.14D-07 OVMax= 1.78D-04

 Cycle   6  Pass 1  IDiag  1:
 E= -191.791027256597     Delta-E=       -0.000000035093 Rises=F Damp=F
 DIIS: error= 9.50D-06 at cycle   6 NSaved=   6.
 NSaved= 6 IEnMin= 6 EnMin= -191.791027256597     IErMin= 6 ErrMin= 9.50D-06
 ErrMax= 9.50D-06  0.00D+00 EMaxC= 1.00D-01 BMatC= 1.28D-09 BMatP= 8.01D-09
 IDIUse=1 WtCom= 1.00D+00 WtEn= 0.00D+00
 Coeff-Com:  0.535D-02-0.232D-02-0.785D-01-0.113D+00 0.779D-01 0.111D+01
 Coeff:      0.535D-02-0.232D-02-0.785D-01-0.113D+00 0.779D-01 0.111D+01
 Gap=     0.347 Goal=   None    Shift=    0.000
 RMSDP=3.46D-06 MaxDP=3.00D-05 DE=-3.51D-08 OVMax= 1.24D-04

 Cycle   7  Pass 1  IDiag  1:
 E= -191.791027266273     Delta-E=       -0.000000009676 Rises=F Damp=F
 DIIS: error= 3.19D-06 at cycle   7 NSaved=   7.
 NSaved= 7 IEnMin= 7 EnMin= -191.791027266273     IErMin= 7 ErrMin= 3.19D-06
 ErrMax= 3.19D-06  0.00D+00 EMaxC= 1.00D-01 BMatC= 4.00D-10 BMatP= 1.28D-09
 IDIUse=1 WtCom= 1.00D+00 WtEn= 0.00D+00
 Coeff-Com: -0.204D-02 0.347D-01-0.441D-01-0.107D+00-0.165D+00 0.487D+00
 Coeff-Com:  0.795D+00
 Coeff:     -0.204D-02 0.347D-01-0.441D-01-0.107D+00-0.165D+00 0.487D+00
 Coeff:      0.795D+00
 Gap=     0.347 Goal=   None    Shift=    0.000
 RMSDP=1.35D-06 MaxDP=1.23D-05 DE=-9.68D-09 OVMax= 4.97D-05

 Cycle   8  Pass 1  IDiag  1:
 E= -191.791027267849     Delta-E=       -0.000000001576 Rises=F Damp=F
 DIIS: error= 8.86D-07 at cycle   8 NSaved=   8.
 NSaved= 8 IEnMin= 8 EnMin= -191.791027267849     IErMin= 8 ErrMin= 8.86D-07
 ErrMax= 8.86D-07  0.00D+00 EMaxC= 1.00D-01 BMatC= 1.82D-11 BMatP= 4.00D-10
 IDIUse=1 WtCom= 1.00D+00 WtEn= 0.00D+00
 Coeff-Com: -0.499D-03-0.197D-02 0.133D-01 0.208D-01 0.454D-02-0.192D+00
 Coeff-Com: -0.421D-01 0.120D+01
 Coeff:     -0.499D-03-0.197D-02 0.133D-01 0.208D-01 0.454D-02-0.192D+00
 Coeff:     -0.421D-01 0.120D+01
 Gap=     0.347 Goal=   None    Shift=    0.000
 RMSDP=4.80D-07 MaxDP=4.02D-06 DE=-1.58D-09 OVMax= 1.52D-05

 Cycle   9  Pass 1  IDiag  1:
 E= -191.791027267970     Delta-E=       -0.000000000121 Rises=F Damp=F
 DIIS: error= 1.82D-07 at cycle   9 NSaved=   9.
 NSaved= 9 IEnMin= 9 EnMin= -191.791027267970     IErMin= 9 ErrMin= 1.82D-07
 ErrMax= 1.82D-07  0.00D+00 EMaxC= 1.00D-01 BMatC= 7.41D-13 BMatP= 1.82D-11
 IDIUse=1 WtCom= 1.00D+00 WtEn= 0.00D+00
 Coeff-Com:  0.778D-04-0.182D-02 0.272D-02 0.605D-02 0.818D-02-0.281D-01
 Coeff-Com: -0.478D-01 0.355D-01 0.103D+01
 Coeff:      0.778D-04-0.182D-02 0.272D-02 0.605D-02 0.818D-02-0.281D-01
 Coeff:     -0.478D-01 0.355D-01 0.103D+01
 Gap=     0.347 Goal=   None    Shift=    0.000
 RMSDP=6.74D-08 MaxDP=6.74D-07 DE=-1.21D-10 OVMax= 1.47D-06

 Cycle  10  Pass 1  IDiag  1:
 E= -191.791027267973     Delta-E=       -0.000000000004 Rises=F Damp=F
 DIIS: error= 5.13D-08 at cycle  10 NSaved=  10.
 NSaved=10 IEnMin=10 EnMin= -191.791027267973     IErMin=10 ErrMin= 5.13D-08
 ErrMax= 5.13D-08  0.00D+00 EMaxC= 1.00D-01 BMatC= 8.03D-14 BMatP= 7.41D-13
 IDIUse=1 WtCom= 1.00D+00 WtEn= 0.00D+00
 Coeff-Com:  0.592D-04-0.210D-03-0.582D-03-0.520D-03 0.137D-02 0.108D-01
 Coeff-Com: -0.713D-02-0.907D-01 0.199D+00 0.888D+00
 Coeff:      0.592D-04-0.210D-03-0.582D-03-0.520D-03 0.137D-02 0.108D-01
 Coeff:     -0.713D-02-0.907D-01 0.199D+00 0.888D+00
 Gap=     0.347 Goal=   None    Shift=    0.000
 RMSDP=1.74D-08 MaxDP=2.02D-07 DE=-3.52D-12 OVMax= 2.76D-07

 Cycle  11  Pass 1  IDiag  1:
 E= -191.791027267973     Delta-E=        0.000000000000 Rises=F Damp=F
 DIIS: error= 1.31D-08 at cycle  11 NSaved=  11.
 NSaved=11 IEnMin=10 EnMin= -191.791027267973     IErMin=11 ErrMin= 1.31D-08
 ErrMax= 1.31D-08  0.00D+00 EMaxC= 1.00D-01 BMatC= 3.91D-15 BMatP= 8.03D-14
 IDIUse=1 WtCom= 1.00D+00 WtEn= 0.00D+00
 Coeff-Com: -0.367D-05 0.125D-03-0.218D-03-0.492D-03-0.492D-03 0.241D-02
 Coeff-Com:  0.305D-02-0.508D-02-0.738D-01 0.336D-01 0.104D+01
 Coeff:     -0.367D-05 0.125D-03-0.218D-03-0.492D-03-0.492D-03 0.241D-02
 Coeff:      0.305D-02-0.508D-02-0.738D-01 0.336D-01 0.104D+01
 Gap=     0.347 Goal=   None    Shift=    0.000
 RMSDP=9.80D-09 MaxDP=1.42D-07 DE= 3.41D-13 OVMax= 7.41D-08

 SCF Done:  E(RwB97XD) =  -191.791027268     A.U. after   11 cycles
            NFock= 11  Conv=0.98D-08     -V/T= 2.0058
 KE= 1.906866004759D+02 PE=-6.525334356761D+02 EE= 1.674871848151D+02
 Leave Link  502 at Wed May 12 11:58:29 2021, MaxMem=  2147483648 cpu:         7.4
 (Enter /opt/cluster/programs/g09_d.01/g09/l701.exe)
 Compute integral first derivatives.
 ... and contract with generalized density number  0.
 R6Disp: Adding Grimme-D2 dispersion energy 1st derivatives to the gradient.
 Leave Link  701 at Wed May 12 11:58:29 2021, MaxMem=  2147483648 cpu:         0.5
 (Enter /opt/cluster/programs/g09_d.01/g09/l702.exe)
 L702 exits ... SP integral derivatives will be done elsewhere.
 Leave Link  702 at Wed May 12 11:58:29 2021, MaxMem=  2147483648 cpu:         0.1
 (Enter /opt/cluster/programs/g09_d.01/g09/l703.exe)
 Compute integral first derivatives, UseDBF=F ICtDFT=           0.
 Integral derivatives from FoFJK, PRISM(SPDF).
 Calling FoFJK, ICntrl=      2127 FMM=F ISym2X=0 I1Cent= 0 IOpClX= 0 NMat=1 NMatS=1 NMatT=0.
 FoFJK:  IHMeth= 1 ICntrl=    2127 DoSepK=T KAlg= 0 I1Cent=   0 FoldK=F
 IRaf=         1 NMat=   1 IRICut=       1 DoRegI=T DoRafI=F ISym2E= 0.
 FoFCou: FMM=F IPFlag=           0 FMFlag=      100000 FMFlg1=         800
         NFxFlg=           0 DoJE=F BraDBF=F KetDBF=F FulRan=T
         wScrn=  0.000000 ICntrl=    2527 IOpCl=  0 I1Cent=           0 NGrid=           0
         NMat0=    1 NMatS0=      1 NMatT0=    0 NMatD0=    1 NMtDS0=    0 NMtDT0=    0
 Symmetry not used in FoFCou.
 Leave Link  703 at Wed May 12 11:58:29 2021, MaxMem=  2147483648 cpu:         2.3
 (Enter /opt/cluster/programs/g09_d.01/g09/l716.exe)
 Dipole        =-1.34766024D+00 3.26641674D-01 2.73115210D-01
 ***** Axes restored to original set *****
 -------------------------------------------------------------------
 Center     Atomic                   Forces (Hartrees/Bohr)
 Number     Number              X              Y              Z
 -------------------------------------------------------------------
      1        6           0.000860025    0.001357508   -0.005354581
      2        6          -0.001675546   -0.003176230    0.004555246
      3        6           0.002346125    0.004201826    0.007520918
      4        8          -0.001620265   -0.002427202   -0.006232389
      5        1           0.000072623    0.000059134   -0.000566520
      6        1           0.000037852    0.000003361    0.000037187
      7        1           0.000029928    0.000041311   -0.000022080
      8        1          -0.000050743   -0.000059708    0.000062219
 -------------------------------------------------------------------
 Cartesian Forces:  Max     0.007520918 RMS     0.002830849
 Leave Link  716 at Wed May 12 11:58:29 2021, MaxMem=  2147483648 cpu:         0.1
 (Enter /opt/cluster/programs/g09_d.01/g09/l103.exe)

 GradGradGradGradGradGradGradGradGradGradGradGradGradGradGradGradGradGrad
 Berny optimization.
 Using GEDIIS/GDIIS optimizer.
 FormGI is forming the generalized inverse of G from B-inverse, IUseBI=4.
 Internal  Forces:  Max     0.008134916 RMS     0.002121109
 Search for a local minimum.
 Step number   3 out of a maximum of   34
 All quantities printed in internal units (Hartrees-Bohrs-Radians)
 RMS Force = .21364D-03 SwitMx=.10000D-02 MixMth= 2
 Mixed Optimization -- En-DIIS/RFO-DIIS
 Swapping is turned off.
 Update second derivatives using D2CorX and points    1    2    3
 DE=  1.13D-07 DEPred=-8.79D-06 R=-1.28D-02
 Trust test=-1.28D-02 RLast= 2.40D-02 DXMaxT set to 1.50D-01
 ITU= -1  1  0
     Eigenvalues ---    0.01491   0.02768   0.02817   0.04619   0.13958
     Eigenvalues ---    0.15970   0.16010   0.16028   0.21021   0.22649
     Eigenvalues ---    0.30224   0.33388   0.35014   0.35150   0.35412
     Eigenvalues ---    0.60128   0.714611000.000001000.000001000.00000
     Eigenvalues --- 1000.000001000.000001000.000001000.00000
 En-DIIS/RFO-DIIS IScMMF=        0 using points:     3    2
 RFO step:  Lambda=-7.35641427D-06.
 NNeg= 0 NP= 2 Switch=  2.50D-03 Rises=F DC= -1.13D-07 SmlDif=  1.00D-05
 RMS Error=  0.8567191352D-03 NUsed= 2 EDIIS=F
 DidBck=T Rises=F RFO-DIIS coefs:    0.49816    0.50184
 Iteration  1 RMS(Cart)=  0.00364259 RMS(Int)=  0.00002197
 Iteration  2 RMS(Cart)=  0.00002139 RMS(Int)=  0.00000445
 Iteration  3 RMS(Cart)=  0.00000000 RMS(Int)=  0.00000445
 Iteration  1 RMS(Cart)=  0.00000110 RMS(Int)=  0.00000080
 Iteration  2 RMS(Cart)=  0.00000042 RMS(Int)=  0.00000089
 ITry= 1 IFail=0 DXMaxC= 1.18D-02 DCOld= 1.00D+10 DXMaxT= 1.50D-01 DXLimC= 3.00D+00 Rises=F
 Variable       Old X    -DE/DX   Delta X   Delta X   Delta X     New X
                                 (Linear)    (Quad)   (Total)
    R1        2.53051   0.00013  -0.00052   0.00081   0.00029   2.53080
    R2        2.04915   0.00003  -0.00008   0.00016   0.00007   2.04923
    R3        2.05574   0.00005   0.00002  -0.00001   0.00001   2.05575
    R4        2.78833   0.00026  -0.00147   0.00328   0.00181   2.79014
    R5        2.05330   0.00006   0.00019  -0.00037  -0.00018   2.05312
    R6        2.33496   0.00021   0.00085  -0.00196  -0.00111   2.33384
    R7        2.08400   0.00021  -0.00012   0.00043   0.00030   2.08430
    A1        2.12680   0.00005  -0.00055   0.00118   0.00064   2.12743
    A2        2.12150  -0.00001   0.00012  -0.00030  -0.00018   2.12133
    A3        2.03488  -0.00004   0.00043  -0.00090  -0.00047   2.03441
    A4        2.10994  -0.00004  -0.00041   0.00009  -0.00031   2.10963
    A5        2.12425   0.00055  -0.00080   0.00151   0.00071   2.12496
    A6        2.03728  -0.00010   0.00072  -0.00160  -0.00088   2.03639
    A7        2.15020   0.00042  -0.00069   0.00220   0.00149   2.15169
    A8        2.03394  -0.00002   0.00154  -0.00282  -0.00129   2.03266
    A9        2.09409   0.00027  -0.00009   0.00122   0.00111   2.09521
    D1        3.01392   0.00143  -0.00029  -0.00328  -0.00357   3.01035
    D2        0.04156  -0.00150   0.00311  -0.00313  -0.00002   0.04155
    D3       -0.12329   0.00142  -0.00197  -0.00009  -0.00207  -0.12536
    D4       -3.09565  -0.00151   0.00142   0.00006   0.00149  -3.09416
    D5       -2.44344  -0.00813   0.00000   0.00000   0.00000  -2.44345
    D6        0.59113  -0.00094   0.00893   0.00646   0.01539   0.60652
    D7        0.53702  -0.00528  -0.00337   0.00013  -0.00323   0.53379
    D8       -2.71158   0.00191   0.00555   0.00660   0.01216  -2.69943
         Item               Value     Threshold  Converged?
 Maximum Force            0.000645     0.000450     NO 
 RMS     Force            0.000214     0.000300     YES
 Maximum Displacement     0.011847     0.001800     NO 
 RMS     Displacement     0.003648     0.001200     NO 
 Predicted change in Energy=-8.746706D-06
 GradGradGradGradGradGradGradGradGradGradGradGradGradGradGradGradGradGrad

 Leave Link  103 at Wed May 12 11:58:29 2021, MaxMem=  2147483648 cpu:         0.1
 (Enter /opt/cluster/programs/g09_d.01/g09/l202.exe)
                          Input orientation:                          
 ---------------------------------------------------------------------
 Center     Atomic      Atomic             Coordinates (Angstroms)
 Number     Number       Type             X           Y           Z
 ---------------------------------------------------------------------
      1          6           0        1.736544    0.149995    0.140842
      2          6           0        0.576514   -0.434609   -0.184949
      3          6           0       -0.683670    0.334716   -0.192772
      4          8           0       -1.756506   -0.117728    0.219033
      5          1           0       -0.613771    1.389277   -0.508279
      6          1           0        2.649684   -0.420742    0.268762
      7          1           0        1.808553    1.224302    0.296110
      8          1           0        0.491124   -1.511765   -0.298299
 ---------------------------------------------------------------------
                    Distance matrix (angstroms):
                    1          2          3          4          5
     1  C    0.000000
     2  C    1.339243   0.000000
     3  C    2.450072   1.476477   0.000000
     4  O    3.504167   2.388848   1.235016   0.000000
[...]
 Gap=     0.347 Goal=   None    Shift=    0.000
 RMSDP=1.11D-07 MaxDP=1.28D-06 DE=-4.51D-11 OVMax= 3.00D-06

 Cycle   9  Pass 1  IDiag  1:
 E= -191.791034641162     Delta-E=       -0.000000000004 Rises=F Damp=F
 DIIS: error= 5.52D-08 at cycle   9 NSaved=   9.
 NSaved= 9 IEnMin= 9 EnMin= -191.791034641162     IErMin= 9 ErrMin= 5.52D-08
 ErrMax= 5.52D-08  0.00D+00 EMaxC= 1.00D-01 BMatC= 1.10D-13 BMatP= 7.83D-13
 IDIUse=1 WtCom= 1.00D+00 WtEn= 0.00D+00
 Coeff-Com:  0.733D-05-0.147D-02 0.586D-03 0.958D-02 0.165D-01-0.881D-01
 Coeff-Com: -0.395D-01 0.408D+00 0.694D+00
 Coeff:      0.733D-05-0.147D-02 0.586D-03 0.958D-02 0.165D-01-0.881D-01
 Coeff:     -0.395D-01 0.408D+00 0.694D+00
 Gap=     0.347 Goal=   None    Shift=    0.000
 RMSDP=1.24D-08 MaxDP=1.31D-07 DE=-3.75D-12 OVMax= 2.96D-07

 Cycle  10  Pass 1  IDiag  1:
 E= -191.791034641162     Delta-E=        0.000000000000 Rises=F Damp=F
 DIIS: error= 2.04D-08 at cycle  10 NSaved=  10.
 NSaved=10 IEnMin=10 EnMin= -191.791034641162     IErMin=10 ErrMin= 2.04D-08
 ErrMax= 2.04D-08  0.00D+00 EMaxC= 1.00D-01 BMatC= 1.94D-14 BMatP= 1.10D-13
 IDIUse=1 WtCom= 1.00D+00 WtEn= 0.00D+00
 Coeff-Com:  0.737D-04-0.136D-03-0.698D-03-0.182D-02 0.744D-03 0.246D-01
 Coeff-Com: -0.207D-01-0.164D+00 0.228D+00 0.935D+00
 Coeff:      0.737D-04-0.136D-03-0.698D-03-0.182D-02 0.744D-03 0.246D-01
 Coeff:     -0.207D-01-0.164D+00 0.228D+00 0.935D+00
 Gap=     0.347 Goal=   None    Shift=    0.000
 RMSDP=9.64D-09 MaxDP=1.06D-07 DE=-1.14D-13 OVMax= 1.00D-07

 SCF Done:  E(RwB97XD) =  -191.791034641     A.U. after   10 cycles
            NFock= 10  Conv=0.96D-08     -V/T= 2.0058
 KE= 1.906844356495D+02 PE=-6.524975810885D+02 EE= 1.674705437357D+02
 Leave Link  502 at Wed May 12 11:58:34 2021, MaxMem=  2147483648 cpu:         6.8
 (Enter /opt/cluster/programs/g09_d.01/g09/l701.exe)
 Compute integral first derivatives.
 ... and contract with generalized density number  0.
 R6Disp: Adding Grimme-D2 dispersion energy 1st derivatives to the gradient.
 Leave Link  701 at Wed May 12 11:58:34 2021, MaxMem=  2147483648 cpu:         0.5
 (Enter /opt/cluster/programs/g09_d.01/g09/l702.exe)
 L702 exits ... SP integral derivatives will be done elsewhere.
 Leave Link  702 at Wed May 12 11:58:34 2021, MaxMem=  2147483648 cpu:         0.1
 (Enter /opt/cluster/programs/g09_d.01/g09/l703.exe)
 Compute integral first derivatives, UseDBF=F ICtDFT=           0.
 Integral derivatives from FoFJK, PRISM(SPDF).
 Calling FoFJK, ICntrl=      2127 FMM=F ISym2X=0 I1Cent= 0 IOpClX= 0 NMat=1 NMatS=1 NMatT=0.
 FoFJK:  IHMeth= 1 ICntrl=    2127 DoSepK=T KAlg= 0 I1Cent=   0 FoldK=F
 IRaf=         1 NMat=   1 IRICut=       1 DoRegI=T DoRafI=F ISym2E= 0.
 FoFCou: FMM=F IPFlag=           0 FMFlag=      100000 FMFlg1=         800
         NFxFlg=           0 DoJE=F BraDBF=F KetDBF=F FulRan=T
         wScrn=  0.000000 ICntrl=    2527 IOpCl=  0 I1Cent=           0 NGrid=           0
         NMat0=    1 NMatS0=      1 NMatT0=    0 NMatD0=    1 NMtDS0=    0 NMtDT0=    0
 Symmetry not used in FoFCou.
 Leave Link  703 at Wed May 12 11:58:35 2021, MaxMem=  2147483648 cpu:         2.3
 (Enter /opt/cluster/programs/g09_d.01/g09/l716.exe)
 Dipole        =-1.34730243D+00 3.26644252D-01 2.73603741D-01
 ***** Axes restored to original set *****
 -------------------------------------------------------------------
 Center     Atomic                   Forces (Hartrees/Bohr)
 Number     Number              X              Y              Z
 -------------------------------------------------------------------
      1        6           0.000848027    0.001350652   -0.005550242
      2        6          -0.001867773   -0.003008281    0.005367525
      3        6           0.002352893    0.003874300    0.005969651
      4        8          -0.001336910   -0.002214019   -0.005832026
      5        1           0.000008303    0.000015393    0.000019664
      6        1          -0.000003244   -0.000009590    0.000003770
      7        1          -0.000000133   -0.000007259    0.000031339
      8        1          -0.000001162   -0.000001196   -0.000009681
 -------------------------------------------------------------------
 Cartesian Forces:  Max     0.005969651 RMS     0.002673824
 Leave Link  716 at Wed May 12 11:58:35 2021, MaxMem=  2147483648 cpu:         0.1
 (Enter /opt/cluster/programs/g09_d.01/g09/l103.exe)

 GradGradGradGradGradGradGradGradGradGradGradGradGradGradGradGradGradGrad
 Berny optimization.
 Using GEDIIS/GDIIS optimizer.
 FormGI is forming the generalized inverse of G from B-inverse, IUseBI=4.
 Internal  Forces:  Max     0.007710923 RMS     0.002000572
 Search for a local minimum.
 Step number   5 out of a maximum of   34
 All quantities printed in internal units (Hartrees-Bohrs-Radians)
 RMS Force = .14649D-04 SwitMx=.10000D-02 MixMth= 2
 Mixed Optimization -- En-DIIS/RFO-DIIS
 Swapping is turned off.
 Update second derivatives using D2CorX and points    1    2    3    4    5
 DE= -1.24D-06 DEPred=-1.15D-06 R= 1.09D+00
 TightC=F SS=  1.41D+00  RLast= 5.63D-03 DXNew= 2.5227D-01 1.6901D-02
 Trust test= 1.09D+00 RLast= 5.63D-03 DXMaxT set to 1.50D-01
 ITU=  1  1 -1  1  0
     Eigenvalues ---    0.01559   0.02816   0.03322   0.05191   0.13715
     Eigenvalues ---    0.15882   0.16007   0.16112   0.21766   0.23195
     Eigenvalues ---    0.31689   0.33641   0.35007   0.35208   0.35394
     Eigenvalues ---    0.61500   0.776301000.000001000.000001000.00000
     Eigenvalues --- 1000.000001000.000001000.000001000.00000
 En-DIIS/RFO-DIIS IScMMF=        0 using points:     5    4    3    2
 RFO step:  Lambda=-3.05032874D-06.
 NNeg= 0 NP= 4 Switch=  2.50D-03 Rises=F DC= -1.13D-07 SmlDif=  1.00D-05
 RMS Error=  0.7770750694D-04 NUsed= 4 EDIIS=F
 DidBck=F Rises=F RFO-DIIS coefs:    0.94579    0.02775    0.01040    0.01606
 Iteration  1 RMS(Cart)=  0.00021562 RMS(Int)=  0.00000098
 Iteration  2 RMS(Cart)=  0.00000006 RMS(Int)=  0.00000098
 Iteration  1 RMS(Cart)=  0.00000075 RMS(Int)=  0.00000054
 ITry= 1 IFail=0 DXMaxC= 4.98D-04 DCOld= 1.00D+10 DXMaxT= 1.50D-01 DXLimC= 3.00D+00 Rises=F
 Variable       Old X    -DE/DX   Delta X   Delta X   Delta X     New X
                                 (Linear)    (Quad)   (Total)
    R1        2.53075  -0.00002  -0.00002  -0.00001  -0.00004   2.53072
    R2        2.04925   0.00000  -0.00001   0.00000   0.00000   2.04925
    R3        2.05586   0.00000  -0.00001   0.00002   0.00001   2.05588
    R4        2.78936  -0.00001  -0.00005   0.00001  -0.00004   2.78932
    R5        2.05346   0.00000  -0.00001   0.00003   0.00002   2.05348
    R6        2.33490   0.00003   0.00000   0.00006   0.00006   2.33496
    R7        2.08463   0.00001  -0.00003   0.00006   0.00003   2.08466
    A1        2.12722   0.00001  -0.00002   0.00005   0.00003   2.12725
    A2        2.12139   0.00000   0.00001  -0.00003  -0.00002   2.12137
    A3        2.03457   0.00000   0.00002  -0.00002  -0.00001   2.03456
    A4        2.10934   0.00009   0.00001  -0.00020  -0.00019   2.10915
    A5        2.12460   0.00047  -0.00002   0.00004   0.00001   2.12462
    A6        2.03694  -0.00012   0.00002   0.00011   0.00012   2.03706
    A7        2.15104   0.00017  -0.00003   0.00003   0.00001   2.15104
    A8        2.03289   0.00016   0.00007  -0.00011  -0.00004   2.03285
    A9        2.09544   0.00017  -0.00004   0.00006   0.00002   2.09546
    D1        3.01231   0.00152  -0.00002  -0.00050  -0.00052   3.01179
    D2        0.04419  -0.00154  -0.00004  -0.00013  -0.00018   0.04401
    D3       -0.12647   0.00155   0.00005   0.00030   0.00035  -0.12613
    D4       -3.09460  -0.00152   0.00003   0.00066   0.00070  -3.09390
    D5       -2.44345  -0.00771   0.00000   0.00000   0.00000  -2.44345
    D6        0.60410  -0.00149   0.00001  -0.00014  -0.00013   0.60396
    D7        0.53306  -0.00474   0.00002  -0.00036  -0.00034   0.53272
    D8       -2.70258   0.00148   0.00003  -0.00050  -0.00047  -2.70305
         Item               Value     Threshold  Converged?
 Maximum Force            0.000039     0.000450     YES
 RMS     Force            0.000015     0.000300     YES
 Maximum Displacement     0.000498     0.001800     YES
 RMS     Displacement     0.000216     0.001200     YES
 Predicted change in Energy=-2.738743D-08
 Optimization completed.
    -- Stationary point found.
                           ----------------------------
                           !   Optimized Parameters   !
                           ! (Angstroms and Degrees)  !
 --------------------------                            --------------------------
 ! Name  Definition              Value          Derivative Info.                !
 --------------------------------------------------------------------------------
 ! R1    R(1,2)                  1.3392         -DE/DX =    0.0                 !
 ! R2    R(1,6)                  1.0844         -DE/DX =    0.0                 !
 ! R3    R(1,7)                  1.0879         -DE/DX =    0.0                 !
 ! R4    R(2,3)                  1.4761         -DE/DX =    0.0                 !
 ! R5    R(2,8)                  1.0866         -DE/DX =    0.0                 !
 ! R6    R(3,4)                  1.2356         -DE/DX =    0.0                 !
 ! R7    R(3,5)                  1.1031         -DE/DX =    0.0                 !
 ! A1    A(2,1,6)              121.8808         -DE/DX =    0.0                 !
 ! A2    A(2,1,7)              121.5467         -DE/DX =    0.0                 !
 ! A3    A(6,1,7)              116.5724         -DE/DX =    0.0                 !
 ! A4    A(1,2,3)              120.856          -DE/DX =    0.0001              !
 ! A5    A(1,2,8)              121.7308         -DE/DX =    0.0005              !
 ! A6    A(3,2,8)              116.7081         -DE/DX =   -0.0001              !
 ! A7    A(2,3,4)              123.2453         -DE/DX =    0.0002              !
 ! A8    A(2,3,5)              116.4758         -DE/DX =    0.0002              !
 ! A9    A(4,3,5)              120.0596         -DE/DX =    0.0002              !
 ! D1    D(6,1,2,3)            172.5929         -DE/DX =    0.0015              !
 ! D2    D(6,1,2,8)              2.5319         -DE/DX =   -0.0015              !
 ! D3    D(7,1,2,3)             -7.2464         -DE/DX =    0.0015              !
 ! D4    D(7,1,2,8)           -177.3074         -DE/DX =   -0.0015              !
 ! D5    D(1,2,3,4)           -139.9991         -DE/DX =   -0.0077              !
 ! D6    D(1,2,3,5)             34.6121         -DE/DX =   -0.0015              !
 ! D7    D(8,2,3,4)             30.5423         -DE/DX =   -0.0047              !
 ! D8    D(8,2,3,5)           -154.8465         -DE/DX =    0.0015              !
 --------------------------------------------------------------------------------
 Lowest energy point so far.  Saving SCF results.
 GradGradGradGradGradGradGradGradGradGradGradGradGradGradGradGradGradGrad

 Largest change from initial coordinates is atom    7       0.008 Angstoms.
 Leave Link  103 at Wed May 12 11:58:35 2021, MaxMem=  2147483648 cpu:         0.1
 (Enter /opt/cluster/programs/g09_d.01/g09/l202.exe)
                          Input orientation:                          
 ---------------------------------------------------------------------
 Center     Atomic      Atomic             Coordinates (Angstroms)
 Number     Number       Type             X           Y           Z
 ---------------------------------------------------------------------
      1          6           0        1.736098    0.150005    0.141345
      2          6           0        0.576287   -0.434714   -0.184908
      3          6           0       -0.683355    0.334703   -0.193486
      4          8           0       -1.756612   -0.118292    0.218284
      5          1           0       -0.612905    1.390027   -0.506932
      6          1           0        2.649470   -0.420649    0.268101
      7          1           0        1.808274    1.224537    0.295390
      8          1           0        0.491216   -1.512171   -0.297346
 ---------------------------------------------------------------------
                    Distance matrix (angstroms):
                    1          2          3          4          5
     1  C    0.000000
     2  C    1.339216   0.000000
     3  C    2.449485   1.476067   0.000000
     4  O    3.503845   2.388536   1.235573   0.000000
     5  H    2.734179   2.201717   1.103141   2.027074   0.000000
     6  H    1.084417   2.122146   3.448382   4.416725   3.810816
     7  H    1.087915   2.121696   2.690542   3.810190   2.556016
     8  H    2.122501   1.086643   2.191198   2.694718   3.112196
                    6          7          8
     6  H    0.000000
     7  H    1.847970   0.000000
     8  H    2.483790   3.094439   0.000000
 Stoichiometry    C3H4O
 Framework group  C1[X(C3H4O)]
 Deg. of freedom    18
 Full point group                 C1      NOp   1
 RotChk:  IX=0 Diff= 5.96D-16
 Largest Abelian subgroup         C1      NOp   1
 Largest concise Abelian subgroup C1      NOp   1
                         Standard orientation:                         
 ---------------------------------------------------------------------
 Center     Atomic      Atomic             Coordinates (Angstroms)
 Number     Number       Type             X           Y           Z
 ---------------------------------------------------------------------
      1          6           0       -1.733672    0.153996   -0.139362
      2          6           0       -0.575735   -0.434469    0.186814
      3          6           0        0.686113    0.331303    0.197061
      4          8           0        1.758294   -0.124271   -0.214670
      5          1           0        0.618528    1.386434    0.511783
      6          1           0       -2.648612   -0.413864   -0.267343
      7          1           0       -1.802664    1.228923   -0.292107
      8          1           0       -0.493834   -1.512306    0.297956
 ---------------------------------------------------------------------
 Rotational constants (GHZ):     40.7969320      4.6725133      4.3622241
 Leave Link  202 at Wed May 12 11:58:35 2021, MaxMem=  2147483648 cpu:         0.0
 (Enter /opt/cluster/programs/g09_d.01/g09/l601.exe)
 Copying SCF densities to generalized density rwf, IOpCl= 0 IROHF=0.

 **********************************************************************

            Population analysis using the SCF density.

 **********************************************************************

 Orbital symmetries:
       Occupied  (A) (A) (A) (A) (A) (A) (A) (A) (A) (A) (A) (A)
                 (A) (A) (A)
       Virtual   (A) (A) (A) (A) (A) (A) (A) (A) (A) (A) (A) (A)
                 (A) (A) (A) (A) (A) (A) (A) (A) (A) (A) (A) (A)
                 (A) (A) (A) (A) (A) (A) (A) (A) (A) (A) (A) (A)
                 (A) (A) (A) (A) (A) (A) (A) (A) (A)
 The electronic state is 1-A.
 Alpha  occ. eigenvalues --  -19.29071 -10.40835 -10.33637 -10.33285  -1.17413
 Alpha  occ. eigenvalues --   -0.91869  -0.75929  -0.68096  -0.58605  -0.57476
 Alpha  occ. eigenvalues --   -0.52395  -0.49430  -0.48124  -0.38108  -0.35412
 Alpha virt. eigenvalues --   -0.00717   0.06907   0.07792   0.08890   0.09084
 Alpha virt. eigenvalues --    0.11455   0.12681   0.12883   0.14724   0.15889
 Alpha virt. eigenvalues --    0.17420   0.18050   0.20078   0.22630   0.26848
 Alpha virt. eigenvalues --    0.28218   0.28960   0.30870   0.33233   0.35450
 Alpha virt. eigenvalues --    0.36971   0.38781   0.43253   0.46515   0.49825
 Alpha virt. eigenvalues --    0.70377   0.71909   0.75207   0.79496   0.80256
 Alpha virt. eigenvalues --    0.85075   0.88207   0.95832   1.01181   1.06437
 Alpha virt. eigenvalues --    1.09800   1.12752   1.17811   1.23178   1.28148
 Alpha virt. eigenvalues --    1.33959   1.36664   1.38801   1.40583   1.88791
          Condensed to atoms (all electrons):
               1          2          3          4          5          6
     1  C    5.456034   0.052732   0.104645   0.018965   0.069812   0.350732
     2  C    0.052732   5.852062   0.168561  -0.158323  -0.180307  -0.002793
     3  C    0.104645   0.168561   5.036207   0.285485   0.374464   0.006444
     4  O    0.018965  -0.158323   0.285485   8.327602  -0.060872  -0.000552
     5  H    0.069812  -0.180307   0.374464  -0.060872   0.613142   0.000020
     6  H    0.350732  -0.002793   0.006444  -0.000552   0.000020   0.460159
     7  H    0.388680  -0.059199   0.010401   0.000678   0.001040  -0.022250
     8  H   -0.012610   0.351617  -0.013038  -0.004301   0.001509  -0.003069
               7          8
     1  C    0.388680  -0.012610
     2  C   -0.059199   0.351617
     3  C    0.010401  -0.013038
     4  O    0.000678  -0.004301
     5  H    0.001040   0.001509
     6  H   -0.022250  -0.003069
     7  H    0.473132   0.002422
     8  H    0.002422   0.439881
 Mulliken charges:
               1
     1  C   -0.428989
     2  C   -0.024350
     3  C    0.026832
     4  O   -0.408681
     5  H    0.181193
     6  H    0.211309
     7  H    0.205095
     8  H    0.237591
 Sum of Mulliken charges =   0.00000
 Mulliken charges with hydrogens summed into heavy atoms:
               1
     1  C   -0.012585
     2  C    0.213241
     3  C    0.208024
     4  O   -0.408681
 Electronic spatial extent (au):  <R**2>=            298.0665
 Charge=              0.0000 electrons
 Dipole moment (field-independent basis, Debye):
    X=             -3.4245    Y=              0.8302    Z=              0.6954  Tot=              3.5917
 Quadrupole moment (field-independent basis, Debye-Ang):
   XX=            -27.9676   YY=            -21.6972   ZZ=            -25.3287
   XY=              1.2084   XZ=              2.1938   YZ=             -0.3843
 Traceless Quadrupole moment (field-independent basis, Debye-Ang):
   XX=             -2.9698   YY=              3.3006   ZZ=             -0.3309
   XY=              1.2084   XZ=              2.1938   YZ=             -0.3843
 Octapole moment (field-independent basis, Debye-Ang**2):
  XXX=            -16.0707  YYY=              0.0106  ZZZ=             -0.7525  XYY=             -0.1379
  XXY=              0.8289  XXZ=             -0.0107  XZZ=              3.9791  YZZ=              0.3410
  YYZ=              0.5251  XYZ=              0.2682
 Hexadecapole moment (field-independent basis, Debye-Ang**3):
 XXXX=           -302.2238 YYYY=            -53.4289 ZZZZ=            -34.2512 XXXY=              3.9135
 XXXZ=              8.2632 YYYX=              0.3080 YYYZ=             -0.9087 ZZZX=             -0.2915
 ZZZY=             -0.0398 XXYY=            -56.9563 XXZZ=            -57.7437 YYZZ=            -15.8097
 XXYZ=             -0.5264 YYXZ=              0.9235 ZZXY=             -0.0965
 N-N= 1.025515670621D+02 E-N=-6.524975810068D+02  KE= 1.906844356495D+02
 No NMR shielding tensors so no spin-rotation constants.
 Leave Link  601 at Wed May 12 11:58:35 2021, MaxMem=  2147483648 cpu:         0.5
 (Enter /opt/cluster/programs/g09_d.01/g09/l9999.exe)
 1\1\GINC-NODE15\FOpt\RwB97XD\6-31+G\C3H4O1\BOITTIER\12-May-2021\0\\#p 
 wB97XD/6-31+G Opt=ModRedun\\L.pdb\\0,1\C,1.7360981697,0.1500045251,0.1
 413450995\C,0.576286586,-0.4347142022,-0.1849079891\C,-0.6833545321,0.
 3347032165,-0.1934861451\O,-1.756612471,-0.1182916338,0.2182837798\H,-
 0.6129053912,1.3900266721,-0.5069322296\H,2.649469733,-0.4206493601,0.
 2681006063\H,1.8082742326,1.2245370916,0.2953899446\H,0.491215673,-1.5
 121713093,-0.2973460663\\Version=ES64L-G09RevD.01\State=1-A\HF=-191.79
 10346\RMSD=9.639e-09\RMSF=2.674e-03\Dipole=1.3480842,0.3231012,-0.2739
 596\Quadrupole=-2.21126,2.458378,-0.247118,-0.8868072,1.6318527,0.2848
 784\PG=C01 [X(C3H4O1)]\\@


 Just remember, when you're over the hill, you begin to pick up speed.
 -- Charles Schulz
 Job cpu time:       0 days  0 hours  1 minutes 16.1 seconds.
 File lengths (MBytes):  RWF=      5 Int=      0 D2E=      0 Chk=      2 Scr=      1
 Normal termination of Gaussian 09 at Wed May 12 11:58:35 2021.
