L.pdb                                                                   
FOpt      RwB97XD                                                     6-31+G              
Number of atoms                            I                8
Info1-9                                    I   N=           9
          19          19           0           0           0         110
           2          18        -802
Charge                                     I                0
Multiplicity                               I                1
Number of electrons                        I               30
Number of alpha electrons                  I               15
Number of beta electrons                   I               15
Number of basis functions                  I               60
Number of independent functions            I               60
Number of point charges in /Mol/           I                0
Number of translation vectors              I                0
Atomic numbers                             I   N=           8
           6           6           6           8           1           1
           1           1
Nuclear charges                            R   N=           8
  6.00000000E+00  6.00000000E+00  6.00000000E+00  8.00000000E+00  1.00000000E+00
  1.00000000E+00  1.00000000E+00  1.00000000E+00
Current cartesian coordinates              R   N=          24
 -3.27616554E+00  2.91010614E-01 -2.63356490E-01 -1.08798216E+00 -8.21027879E-01
  3.53027015E-01  1.29656525E+00  6.26071493E-01  3.72390422E-01  3.32269381E+00
 -2.34837394E-01 -4.05667699E-01  1.16884792E+00  2.61997987E+00  9.67129689E-01
 -5.00515224E+00 -7.82089964E-01 -5.05205798E-01 -3.40654137E+00  2.32232865E+00
 -5.52002781E-01 -9.33210103E-01 -2.85784477E+00  5.63054802E-01
Force Field                                I                0
Int Atom Types                             I   N=           8
           0           0           0           0           0           0
           0           0
MM charges                                 R   N=           8
  0.00000000E+00  0.00000000E+00  0.00000000E+00  0.00000000E+00  0.00000000E+00
  0.00000000E+00  0.00000000E+00  0.00000000E+00
Integer atomic weights                     I   N=           8
          12          12          12          16           1           1
           1           1
Real atomic weights                        R   N=           8
  1.20000000E+01  1.20000000E+01  1.20000000E+01  1.59949146E+01  1.00782504E+00
  1.00782504E+00  1.00782504E+00  1.00782504E+00
Atom fragment info                         I   N=           8
           0           0           0           0           0           0
           0           0
Atom residue num                           I   N=           8
           0           0           0           0           0           0
           0           0
Nuclear spins                              I   N=           8
           0           0           0           0           1           1
           1           1
Nuclear ZEff                               R   N=           8
 -3.60000000E+00 -3.60000000E+00 -3.60000000E+00 -5.60000000E+00 -1.00000000E+00
 -1.00000000E+00 -1.00000000E+00 -1.00000000E+00
Nuclear ZNuc                               R   N=           8
  6.00000000E+00  6.00000000E+00  6.00000000E+00  8.00000000E+00  1.00000000E+00
  1.00000000E+00  1.00000000E+00  1.00000000E+00
Nuclear QMom                               R   N=           8
  0.00000000E+00  0.00000000E+00  0.00000000E+00  0.00000000E+00  0.00000000E+00
  0.00000000E+00  0.00000000E+00  0.00000000E+00
Nuclear GFac                               R   N=           8
  0.00000000E+00  0.00000000E+00  0.00000000E+00  0.00000000E+00  2.79284600E+00
  2.79284600E+00  2.79284600E+00  2.79284600E+00
MicOpt                                     I   N=           8
          -1          -1          -1          -1          -1          -1
          -1          -1
Number of contracted shells                I               24
Number of primitive shells                 I               60
Pure/Cartesian d shells                    I                1
Pure/Cartesian f shells                    I                0
Highest angular momentum                   I                1
Largest degree of contraction              I                6
Shell types                                I   N=          24
           0          -1          -1          -1           0          -1
          -1          -1           0          -1          -1          -1
           0          -1          -1          -1           0           0
           0           0           0           0           0           0
Number of primitives per shell             I   N=          24
           6           3           1           1           6           3
           1           1           6           3           1           1
           6           3           1           1           3           1
           3           1           3           1           3           1
Shell to atom map                          I   N=          24
           1           1           1           1           2           2
           2           2           3           3           3           3
           4           4           4           4           5           5
           6           6           7           7           8           8
Primitive exponents                        R   N=          60
  3.04752488E+03  4.57369518E+02  1.03948685E+02  2.92101553E+01  9.28666296E+00
  3.16392696E+00  7.86827235E+00  1.88128854E+00  5.44249258E-01  1.68714478E-01
  4.38000000E-02  3.04752488E+03  4.57369518E+02  1.03948685E+02  2.92101553E+01
  9.28666296E+00  3.16392696E+00  7.86827235E+00  1.88128854E+00  5.44249258E-01
  1.68714478E-01  4.38000000E-02  3.04752488E+03  4.57369518E+02  1.03948685E+02
  2.92101553E+01  9.28666296E+00  3.16392696E+00  7.86827235E+00  1.88128854E+00
  5.44249258E-01  1.68714478E-01  4.38000000E-02  5.48467166E+03  8.25234946E+02
  1.88046958E+02  5.29645000E+01  1.68975704E+01  5.79963534E+00  1.55396162E+01
  3.59993359E+00  1.01376175E+00  2.70005823E-01  8.45000000E-02  1.87311370E+01
  2.82539436E+00  6.40121692E-01  1.61277759E-01  1.87311370E+01  2.82539436E+00
  6.40121692E-01  1.61277759E-01  1.87311370E+01  2.82539436E+00  6.40121692E-01
  1.61277759E-01  1.87311370E+01  2.82539436E+00  6.40121692E-01  1.61277759E-01
Contraction coefficients                   R   N=          60
  1.83473713E-03  1.40373228E-02  6.88426223E-02  2.32184443E-01  4.67941348E-01
  3.62311985E-01 -1.19332420E-01 -1.60854152E-01  1.14345644E+00  1.00000000E+00
  1.00000000E+00  1.83473713E-03  1.40373228E-02  6.88426223E-02  2.32184443E-01
  4.67941348E-01  3.62311985E-01 -1.19332420E-01 -1.60854152E-01  1.14345644E+00
  1.00000000E+00  1.00000000E+00  1.83473713E-03  1.40373228E-02  6.88426223E-02
  2.32184443E-01  4.67941348E-01  3.62311985E-01 -1.19332420E-01 -1.60854152E-01
  1.14345644E+00  1.00000000E+00  1.00000000E+00  1.83107443E-03  1.39501722E-02
  6.84450781E-02  2.32714336E-01  4.70192898E-01  3.58520853E-01 -1.10777550E-01
 -1.48026263E-01  1.13076702E+00  1.00000000E+00  1.00000000E+00  3.34946043E-02
  2.34726953E-01  8.13757326E-01  1.00000000E+00  3.34946043E-02  2.34726953E-01
  8.13757326E-01  1.00000000E+00  3.34946043E-02  2.34726953E-01  8.13757326E-01
  1.00000000E+00  3.34946043E-02  2.34726953E-01  8.13757326E-01  1.00000000E+00
P(S=P) Contraction coefficients            R   N=          60
  0.00000000E+00  0.00000000E+00  0.00000000E+00  0.00000000E+00  0.00000000E+00
  0.00000000E+00  6.89990666E-02  3.16423961E-01  7.44308291E-01  1.00000000E+00
  1.00000000E+00  0.00000000E+00  0.00000000E+00  0.00000000E+00  0.00000000E+00
  0.00000000E+00  0.00000000E+00  6.89990666E-02  3.16423961E-01  7.44308291E-01
  1.00000000E+00  1.00000000E+00  0.00000000E+00  0.00000000E+00  0.00000000E+00
  0.00000000E+00  0.00000000E+00  0.00000000E+00  6.89990666E-02  3.16423961E-01
  7.44308291E-01  1.00000000E+00  1.00000000E+00  0.00000000E+00  0.00000000E+00
  0.00000000E+00  0.00000000E+00  0.00000000E+00  0.00000000E+00  7.08742682E-02
  3.39752839E-01  7.27158577E-01  1.00000000E+00  1.00000000E+00  0.00000000E+00
  0.00000000E+00  0.00000000E+00  0.00000000E+00  0.00000000E+00  0.00000000E+00
  0.00000000E+00  0.00000000E+00  0.00000000E+00  0.00000000E+00  0.00000000E+00
  0.00000000E+00  0.00000000E+00  0.00000000E+00  0.00000000E+00  0.00000000E+00
Coordinates of each shell                  R   N=          72
 -3.27616554E+00  2.91010614E-01 -2.63356490E-01 -3.27616554E+00  2.91010614E-01
 -2.63356490E-01 -3.27616554E+00  2.91010614E-01 -2.63356490E-01 -3.27616554E+00
  2.91010614E-01 -2.63356490E-01 -1.08798216E+00 -8.21027879E-01  3.53027015E-01
 -1.08798216E+00 -8.21027879E-01  3.53027015E-01 -1.08798216E+00 -8.21027879E-01
  3.53027015E-01 -1.08798216E+00 -8.21027879E-01  3.53027015E-01  1.29656525E+00
  6.26071493E-01  3.72390422E-01  1.29656525E+00  6.26071493E-01  3.72390422E-01
  1.29656525E+00  6.26071493E-01  3.72390422E-01  1.29656525E+00  6.26071493E-01
  3.72390422E-01  3.32269381E+00 -2.34837394E-01 -4.05667699E-01  3.32269381E+00
 -2.34837394E-01 -4.05667699E-01  3.32269381E+00 -2.34837394E-01 -4.05667699E-01
  3.32269381E+00 -2.34837394E-01 -4.05667699E-01  1.16884792E+00  2.61997987E+00
  9.67129689E-01  1.16884792E+00  2.61997987E+00  9.67129689E-01 -5.00515224E+00
 -7.82089964E-01 -5.05205798E-01 -5.00515224E+00 -7.82089964E-01 -5.05205798E-01
 -3.40654137E+00  2.32232865E+00 -5.52002781E-01 -3.40654137E+00  2.32232865E+00
 -5.52002781E-01 -9.33210103E-01 -2.85784477E+00  5.63054802E-01 -9.33210103E-01
 -2.85784477E+00  5.63054802E-01
Constraint Structure                       R   N=          24
 -3.29028510E+00  2.85753183E-01 -2.63756698E-01 -1.08696471E+00 -8.15655056E-01
  3.61372265E-01  1.29627869E+00  6.29968148E-01  3.70584680E-01  3.33681621E+00
 -2.37081906E-01 -4.04497831E-01  1.16498264E+00  2.63445358E+00  9.40163255E-01
 -5.01126070E+00 -7.99943411E-01 -5.20009231E-01 -3.43778176E+00  2.31769067E+00
 -5.45274869E-01 -9.24643144E-01 -2.85594325E+00  5.51902013E-01
Num ILSW                                   I              100
ILSW                                       I   N=         100
           0           1           0           0           2           0
           0           0           0           0        4639          -1
           0           0           0           0           2           0
           0           0           0           0           1           0
           1           0           0           0           0           0
           0           0      100000           0          -1           0
           0           0           0           0           0           0
           0           0           0           1           0           0
           0           0           1           0           0           0
           0           0         121          41           0           0
           0           0          58           0           0           0
           0           0           0           8           0           0
           0           0           0           0           0           0
           0           0           0           0           0           0
           0           0           0           0           0           0
           0           0           0           0           0           0
           0           0           0           0
Num RLSW                                   I               41
RLSW                                       R   N=          41
  1.00000000E+00  1.00000000E+00  1.00000000E+00  1.00000000E+00  1.00000000E+00
  0.00000000E+00  2.00000000E-01  2.22036000E-01  0.00000000E+00  7.77964000E-01
  0.00000000E+00  2.00000000E-01  0.00000000E+00  0.00000000E+00  1.00000000E+00
  0.00000000E+00  0.00000000E+00  1.00000000E+00  0.00000000E+00  0.00000000E+00
  0.00000000E+00  0.00000000E+00  1.00000000E+00  0.00000000E+00  0.00000000E+00
  0.00000000E+00  0.00000000E+00  1.00000000E+00  0.00000000E+00  0.00000000E+00
  0.00000000E+00  0.00000000E+00  1.00000000E+00  0.00000000E+00  0.00000000E+00
  0.00000000E+00  0.00000000E+00  0.00000000E+00  1.00000000E+00  1.00000000E+00
  0.00000000E+00
MxBond                                     I                3
NBond                                      I   N=           8
           3           3           3           1           1           1
           1           1
IBond                                      I   N=          24
           2           6           7           1           3           8
           2           4           5           3           0           0
           3           0           0           1           0           0
           1           0           0           2           0           0
RBond                                      R   N=          24
  2.00000000E+00  1.00000000E+00  1.00000000E+00  2.00000000E+00  1.00000000E+00
  1.00000000E+00  1.00000000E+00  2.00000000E+00  1.00000000E+00  2.00000000E+00
  0.00000000E+00  0.00000000E+00  1.00000000E+00  0.00000000E+00  0.00000000E+00
  1.00000000E+00  0.00000000E+00  0.00000000E+00  1.00000000E+00  0.00000000E+00
  0.00000000E+00  1.00000000E+00  0.00000000E+00  0.00000000E+00
Virial Ratio                               R      2.005803300033024E+00
SCF Energy                                 R     -1.917910346411616E+02
Total Energy                               R     -1.917910346411616E+02
RMS Force                                  R      2.673823518309754E-03
RMS Density                                R      9.638619176333053E-09
External E-field                           R   N=          35
  0.00000000E+00  0.00000000E+00  0.00000000E+00  0.00000000E+00  0.00000000E+00
  0.00000000E+00  0.00000000E+00  0.00000000E+00  0.00000000E+00  0.00000000E+00
  0.00000000E+00  0.00000000E+00  0.00000000E+00  0.00000000E+00  0.00000000E+00
  0.00000000E+00  0.00000000E+00  0.00000000E+00  0.00000000E+00  0.00000000E+00
  0.00000000E+00  0.00000000E+00  0.00000000E+00  0.00000000E+00  0.00000000E+00
  0.00000000E+00  0.00000000E+00  0.00000000E+00  0.00000000E+00  0.00000000E+00
  0.00000000E+00  0.00000000E+00  0.00000000E+00  0.00000000E+00  0.00000000E+00
IOpCl                                      I                0
IROHF                                      I                0
Alpha Orbital Energies                     R   N=          60
 -1.92907122E+01 -1.04083457E+01 -1.03363687E+01 -1.03328492E+01 -1.17412534E+00
 -9.18694811E-01 -7.59290989E-01 -6.80961226E-01 -5.86054604E-01 -5.74760509E-01
 -5.23949616E-01 -4.94296480E-01 -4.81239716E-01 -3.81082834E-01 -3.54122436E-01
 -7.16749972E-03  6.90747986E-02  7.79170893E-02  8.89035336E-02  9.08424517E-02
  1.14547042E-01  1.26809995E-01  1.28825713E-01  1.47242788E-01  1.58893873E-01
  1.74202387E-01  1.80502558E-01  2.00779371E-01  2.26304031E-01  2.68477767E-01
  2.82178405E-01  2.89598324E-01  3.08701358E-01  3.32334594E-01  3.54496535E-01
  3.69711973E-01  3.87808302E-01  4.32534727E-01  4.65153450E-01  4.98249667E-01
  7.03772437E-01  7.19094390E-01  7.52065650E-01  7.94955881E-01  8.02558093E-01
  8.50749843E-01  8.82071633E-01  9.58319786E-01  1.01181118E+00  1.06436798E+00
  1.09800148E+00  1.12751627E+00  1.17811394E+00  1.23178366E+00  1.28148186E+00
  1.33958688E+00  1.36664468E+00  1.38801383E+00  1.40582805E+00  1.88791445E+00
Alpha MO coefficients                      R   N=        3600
  2.18293587E-07  1.86571584E-05 -1.28542269E-04 -3.36760815E-05 -9.40754695E-05
 -2.09546384E-03  1.39816372E-04  7.75138768E-04 -2.19182908E-04  6.28476907E-03
  1.45918984E-03 -8.42113835E-04  1.66809385E-04  2.16143703E-05 -3.10110529E-05
 -9.40316158E-05 -1.59393137E-04  1.86022387E-05 -8.04046015E-04 -2.65929479E-03
  1.65292070E-03  2.87396261E-04  5.51984121E-03  4.80689519E-03  4.05828386E-04
  3.03204662E-04  2.05465334E-04  1.29512563E-04  3.10975086E-05  1.61821130E-04
 -5.41552322E-06  7.28719053E-03  4.54780826E-03 -4.34265650E-03 -2.15400430E-03
 -1.65492606E-02  6.99119153E-04  3.48161245E-03  1.25061183E-03  9.95220532E-01
  2.93976831E-02 -1.89620882E-03  7.22970292E-04  7.23657519E-04 -2.13106633E-02
  4.30880572E-03 -1.28722306E-03 -1.53720842E-03  9.01360779E-03 -7.95502515E-04
 -8.34087704E-05 -7.41477104E-05 -9.03174114E-05  1.47098997E-03  1.01484727E-04
  5.59142641E-04 -7.04600892E-05 -5.47019002E-05  2.60437901E-04  7.03918017E-04
 -5.83566518E-05 -3.37730597E-04 -1.51887909E-04 -3.82730411E-05  2.48319466E-05
  9.66517700E-04  1.08337131E-03  7.00665963E-05  8.67354901E-05 -1.92461681E-02
 -2.97577934E-03  2.83376404E-03 -1.52250192E-03  1.78975721E-03 -4.78623591E-04
 -4.69243968E-04 -3.31600513E-04 -5.00692469E-05  4.28015180E-03  3.29865489E-03
  1.08084781E-03  2.50560560E-04  1.54121699E-03 -1.15104429E-02  7.63238567E-04
 -7.25064494E-04  9.95435326E-01  3.61509506E-02  1.14212387E-03 -6.41453232E-04
 -5.37148218E-04 -3.17506806E-02 -7.43360269E-04  2.22648325E-03  1.11028948E-03
  1.52542311E-02 -3.69541088E-03 -4.79693957E-03 -2.51366353E-04 -1.26410802E-04
 -5.62785800E-05  5.35122341E-04 -1.87851575E-04 -1.76800307E-04  1.26709213E-03
 -3.14307661E-04 -2.63028742E-04 -9.44395785E-05  1.07915758E-02 -5.12878961E-03
  2.34616555E-03  2.10256584E-03 -5.49976859E-04  3.23999303E-03 -1.46520594E-05
  1.03816210E-03 -1.65549429E-04  1.90179861E-05 -1.80620141E-04 -2.57419549E-04
  9.88107361E-01  3.48084453E-02  3.14820165E-04 -9.76337261E-05  5.50727787E-05
 -2.89629554E-02 -2.64618306E-03  1.59302291E-03 -8.03509219E-04  2.28614457E-02
  6.26415318E-03 -4.10415471E-03  1.76853625E-03  1.19374501E-01  3.10402079E-03
  1.01570189E-03 -4.89937887E-04  2.52359825E-04  4.40063887E-03 -5.20952832E-03
  1.74234485E-03 -1.18978093E-03  1.54628371E-02  1.33979215E-02  5.88382539E-03
  1.25531688E-03 -2.20120598E-04 -3.93264811E-04  1.92560468E-04  1.73059483E-05
 -3.56594794E-07  1.06257535E-03 -1.28330557E-03 -4.95768538E-04  1.41420847E-04
 -3.77953651E-02  9.35969501E-03  4.45494976E-03  9.44842550E-05 -1.43221369E-06
 -3.41840883E-06 -2.63198978E-05 -1.46269969E-06 -1.86915992E-05  1.22412403E-05
  3.82402574E-05  9.22310990E-05  1.20392022E-04  2.37078927E-03 -1.10007311E-03
  1.36307558E-04  4.06378123E-04 -2.22096386E-04  5.10314794E-04 -7.20753102E-04
  4.23304636E-03 -6.91815227E-04  3.71029944E-03 -2.11236692E-04  5.42403109E-04
 -1.19615352E-01 -5.58346887E-03 -8.83524058E-04  4.65976022E-04 -2.52249916E-04
  1.38915855E-02  5.54396053E-03 -1.07871013E-03  1.22080676E-03 -4.20271372E-02
 -9.53448413E-03  3.55435623E-03 -2.48620767E-03  9.88209631E-01  3.62221337E-02
 -2.35695339E-04  6.35332617E-04 -3.13087997E-04 -3.58724890E-02  9.56058328E-04
 -5.52770565E-03  1.56226700E-03  6.96307596E-02 -3.58819803E-03  1.21321227E-02
 -3.15353295E-03 -1.72395929E-03 -6.57365324E-04  4.74287030E-04  3.19769207E-04
 -9.71198220E-06  6.12408848E-03 -5.20593416E-03 -1.36303855E-03  1.02431338E-04
 -2.67991407E-02  6.31223773E-03  2.93052830E-03  1.47807329E-04 -5.01789911E-06
 -1.60785841E-04  1.06648723E-04 -5.34090223E-05  4.65254849E-06  4.49494816E-04
 -3.05032046E-04  5.15224197E-04  1.42622709E-04  2.80885515E-03 -7.41669433E-04
  2.84271583E-05  7.23974105E-04 -2.25009017E-04 -2.83751714E-04 -4.40321799E-05
  3.88949236E-04 -2.52444589E-04 -1.08736585E-03 -6.78106846E-04  2.43871796E-03
 -3.91035228E-03  9.10271349E-03  6.68731009E-03 -6.14434014E-04  1.05288032E-03
  1.39716295E-02 -7.87961400E-03 -1.00662452E-02  1.80168646E-03  5.64115524E-02
  1.12162950E-02 -4.15177683E-03  3.16994130E-03 -1.98889599E-02  3.72132048E-02
  2.58105741E-02  9.98968961E-03 -3.14191262E-03  1.89111365E-02  1.73203436E-02
 -1.03961576E-02 -4.87951931E-03 -1.00862503E-01 -1.18012667E-03 -1.75663877E-02
  6.18630768E-03 -1.16301292E-01  2.38261801E-01  1.58520327E-01 -7.44063534E-02
 -6.35550608E-02  3.68351801E-02 -5.18416951E-02  3.76600041E-02  2.16268385E-02
  5.77737455E-02  2.25794358E-03 -7.35894119E-03 -5.58141011E-03 -1.92334820E-01
  4.24333376E-01 -1.58210291E-01  6.51893647E-02  6.01316383E-02  4.21729841E-01
 -6.57845274E-02  2.39737607E-02  2.52770572E-02 -1.96752891E-03 -7.26870299E-03
  2.79949655E-03  2.80927876E-03  2.82264822E-02 -2.12614284E-02  1.36776370E-04
 -1.06625008E-02  2.99399748E-03  2.13555468E-03  5.83112229E-03 -2.94342931E-03
 -1.41489304E-01  2.72682403E-01  9.72159623E-02 -3.93349420E-02  2.44463773E-02
  2.12642233E-01  1.49913398E-02  7.01283202E-03  2.50863999E-03  1.63892342E-02
  5.74492490E-03  4.59421915E-03  8.74027865E-04 -1.61105209E-01  3.14308037E-01
 -5.54523103E-02  6.83870195E-02 -2.81163335E-02  2.11394481E-01  1.96345938E-04
 -1.13406153E-02 -2.83565763E-04 -1.02511000E-01 -2.19909214E-02 -3.01300026E-02
 -4.47190122E-04 -5.37922542E-02  1.04880703E-01 -1.34838199E-01 -1.48327674E-02
  1.52104511E-02  1.04564173E-01 -2.80296374E-02  1.78744276E-03  1.32859413E-04
  8.84937136E-02 -2.49559426E-02 -4.77597913E-03  2.74893280E-03  4.05601199E-02
 -9.34742729E-02  1.83451795E-03 -1.52831001E-02 -8.50639910E-03 -9.67378785E-02
  2.26663221E-03 -3.24672504E-03 -1.26725175E-03 -7.90829091E-03  7.34008480E-03
 -3.42564799E-03 -2.56792823E-03  3.27861463E-02  3.10397392E-03  6.84642029E-02
  1.41048403E-02  7.21314213E-02  6.43364923E-03  7.60741892E-02  1.89459295E-03
 -1.32099163E-01  2.64535578E-01 -6.42326286E-02 -9.62561189E-03 -1.14495231E-02
  2.53016777E-01 -2.94651937E-02 -4.87671020E-03 -5.11676397E-03 -1.34733081E-01
 -2.89518131E-02  1.86615964E-02 -8.93860917E-03  5.17163539E-02 -1.05122298E-01
 -2.19051398E-01 -2.24770385E-02 -3.61013033E-02 -1.00081479E-01 -3.89512125E-02
 -3.50163383E-03 -8.60850629E-03  4.13731348E-02 -7.13053294E-02  4.18610992E-03
 -9.54813815E-03  1.17912996E-01 -2.48992249E-01  1.64673612E-01 -6.92674662E-03
 -4.62795952E-02 -2.62923657E-01  2.20448071E-02  5.33047259E-04 -8.64377860E-03
  9.48670436E-02 -1.43929291E-02 -2.18952684E-02 -2.95241135E-03 -6.74878278E-02
  1.56005237E-01  5.03380958E-02 -1.09883108E-03 -1.40956303E-02  2.06550533E-01
  1.13679230E-02  4.80167219E-03 -1.65457298E-03  3.09933477E-02 -1.02898827E-02
  4.69382461E-03  5.47856251E-03 -1.06550187E-01 -3.79465359E-02  1.30571331E-01
  4.00249358E-02  1.04373518E-01  3.57747321E-02 -4.03543908E-02 -1.14709428E-02
 -5.18797394E-02  1.02293632E-01 -7.47825553E-02  1.39564638E-01 -2.93741113E-02
  1.17235906E-01 -1.42788623E-02  4.44979360E-02 -6.56496043E-03 -5.83454324E-02
 -1.83265508E-02  6.71958172E-03 -5.49735458E-03  9.43696773E-02 -1.91065469E-01
  2.79400681E-03  1.80089983E-01 -2.71139526E-03 -2.06339613E-01 -3.10832993E-03
  6.39720443E-02 -3.92615466E-03  9.79495740E-02  1.40718441E-03  1.77997400E-02
 -2.28932987E-03 -8.23159473E-02  1.75645927E-01  1.68236739E-02  2.35103652E-01
  4.87322005E-02  1.93840423E-01 -6.69303614E-03  9.07514618E-02  1.99724940E-02
 -3.70716687E-02  6.60778711E-03  1.76946258E-02  4.38744523E-04  3.70746177E-02
 -8.68655016E-02 -1.28741442E-02  1.14848931E-01  2.92427594E-02 -1.09769694E-01
 -4.11069893E-03  4.99021419E-02  1.23318451E-02 -1.20695729E-02  2.47286043E-03
 -5.79051095E-03 -9.65656108E-05  1.83216510E-01  7.53492451E-02  4.60044263E-02
  2.40051894E-02  1.20384766E-01  5.98283364E-02 -1.68889936E-01 -6.73815176E-02
 -1.00925121E-02  1.88012351E-02  7.78180991E-03  2.77721333E-01 -5.12545147E-02
  4.30748249E-02  1.96582235E-02  1.16658519E-01 -1.86820046E-02 -9.26177182E-03
 -1.01289955E-02  9.77447054E-03 -1.22814029E-03  1.55523397E-02 -2.72214567E-02
  2.09534337E-01  1.72694228E-01 -2.15819831E-02 -6.51793481E-02  5.19239445E-02
  5.36694580E-02 -1.16331773E-02  7.75797598E-03  1.54909823E-02  4.63069223E-03
 -2.01378550E-03  1.01501178E-02 -2.22088536E-02 -1.73477226E-01 -2.70571379E-01
 -7.87922123E-02 -3.76841423E-02 -7.36807765E-02 -1.19125280E-01 -3.66185353E-02
 -7.79197607E-03 -1.37671111E-02 -1.09170085E-02 -4.40762815E-03 -1.31302762E-02
  2.94722548E-02 -5.47945218E-02 -1.85156091E-01 -7.08949893E-02  5.09168751E-02
 -3.49711534E-02 -8.83088885E-02 -3.32734600E-02  1.71833401E-02  1.75214813E-04
  2.68566059E-03  2.18643051E-03 -1.48627716E-01 -7.36299773E-02 -6.86817662E-02
 -3.21702857E-02  1.66637453E-01  9.02892612E-02 -1.01642100E-01 -5.91537761E-02
  1.27246824E-02 -2.29821864E-02  3.57724916E-01  4.27630137E-04  8.36170021E-02
 -6.40750645E-02  1.26058590E-01  1.53317612E-02  2.94130486E-02 -4.02957446E-02
  1.39025418E-02  4.60050696E-03  1.09763251E-03 -3.14493056E-02  6.60949842E-02
 -2.06902272E-01  2.01893783E-01 -5.56099746E-02  5.54430757E-02 -4.52542173E-02
  6.78607030E-02 -1.75002928E-02  4.23840226E-02 -2.62167998E-02  1.18561109E-02
 -3.64853666E-03  4.75526792E-02 -1.17761088E-01 -8.54444610E-02  1.48380553E-01
 -6.88615742E-03 -1.48209569E-01 -3.64182164E-02  8.20810725E-02 -1.67642072E-03
 -2.06675941E-02  9.34284646E-03  4.68902860E-03 -4.10509264E-04 -6.00282679E-02
  1.33616311E-01  2.21477961E-01 -5.67899336E-05 -1.12575076E-01  2.45824728E-01
  7.88242338E-02  1.70005889E-02 -4.53394132E-02  7.01842874E-02 -1.13320538E-03
 -3.41965319E-03  7.73829094E-04  2.01318220E-02  4.08175809E-04 -1.96870415E-01
 -1.15114594E-01 -3.60479259E-02 -2.57953375E-02 -8.97546171E-02 -5.96823000E-02
  1.09533188E-02 -2.77675195E-02 -1.76409689E-01  9.08628710E-02 -2.06988707E-03
 -1.74478580E-03 -4.91555209E-02  3.83455179E-02  9.98289798E-03  9.77570883E-02
  1.66519815E-02  7.34675010E-04  3.85741482E-03 -2.80510900E-03  2.78026424E-03
  1.49758260E-01 -1.01509218E-01  1.33198301E-01  2.56326828E-02  4.70726879E-02
 -4.30197997E-02  5.93345270E-02 -8.81358716E-02  2.23268377E-02 -2.17013725E-02
  1.26552711E-02  1.97488946E-02 -7.06931508E-02 -2.14897302E-01  1.10890741E-01
  2.42724875E-01 -4.32972533E-02 -5.30125649E-02  3.33994375E-02  1.03084570E-01
 -6.35493013E-03  8.41312811E-04  2.97466335E-03  1.20008829E-02 -6.64274631E-02
  1.43846366E-01  4.07464333E-01 -1.71823184E-01  7.71944992E-04  2.73561477E-01
  1.73025377E-01 -7.59020819E-02  2.50842953E-02  9.15460542E-02  9.33086118E-03
 -7.46146384E-03 -6.34161440E-03  9.03671928E-02  6.91954976E-02  5.24492960E-02
  4.53136397E-02  5.61719016E-02  4.01109325E-02  8.66718244E-02  5.87811228E-02
 -4.49823914E-03  9.96101204E-03  1.49849343E-01  2.32773340E-01  6.66576025E-02
  2.84006678E-02  7.95764243E-02  1.13502367E-01  3.79616687E-02  1.70663643E-01
  5.52275258E-02  6.07947722E-03  9.03776638E-03 -1.37169244E-02  2.64607451E-02
 -9.27638668E-02 -1.03661352E-01  9.84551505E-02  4.31599421E-02 -1.77241126E-02
 -5.96984844E-02  5.35092694E-02 -1.93813330E-01  8.83404643E-03 -4.26000811E-02
  1.74220396E-02  1.53114103E-02 -2.20264407E-02  2.46599830E-01 -5.56949967E-02
  1.77785619E-01 -6.54543555E-02  8.43522736E-02 -7.49915886E-03  1.09701081E-01
  1.90319901E-02  1.20540308E-02 -6.54215942E-03  1.91846079E-02  2.27322970E-02
 -4.92795670E-02 -5.06741916E-02  7.07529084E-02  3.44873354E-01 -8.89083431E-02
 -8.01488531E-03  2.95124185E-02  2.01034989E-01 -1.62060396E-02 -1.40658100E-02
  6.44901084E-03  7.18880078E-03 -2.88822724E-02 -2.37997741E-02 -1.74245594E-01
 -1.21652563E-01  1.53501336E-01  1.06270990E-01  9.18817151E-02  6.15936247E-02
 -1.56314076E-02  3.62153277E-02  1.27666635E-02 -2.20570363E-01  9.31463815E-02
  2.63093738E-02 -1.77436890E-02 -1.10258192E-01  4.58362161E-02  1.55293196E-01
  3.35725057E-02 -3.17790815E-02  1.30531138E-02  9.35440314E-03 -1.23951305E-02
 -5.71222935E-02  2.59003363E-01  5.04079618E-02 -7.12613810E-02 -2.25701264E-02
  1.37070566E-01  2.62174363E-02 -1.40623164E-01  4.05243159E-02  8.36741005E-03
  9.74946423E-03 -1.85881423E-02  4.58594600E-02 -2.83192215E-02 -1.71063356E-01
  2.03663041E-01  3.52744964E-02 -1.32301320E-02 -1.00290554E-01  1.16767113E-01
 -3.70586675E-02  1.36253835E-02 -1.43995318E-02  2.01430217E-02  4.18563738E-04
  7.86645439E-05 -3.71944268E-04 -1.92186980E-01  2.77351139E-01  2.13601758E-03
  3.71554959E-03 -1.09511334E-01  1.71910797E-01  6.42103454E-03 -6.18696627E-03
 -3.39861155E-03  4.03424136E-03 -4.63904817E-02 -2.44603209E-02  9.08040796E-02
  5.54015832E-02 -1.53727707E-01 -1.19231851E-01 -1.93975275E-01 -1.19196670E-01
  1.90965540E-03 -1.94754901E-03 -9.34303419E-02  4.80881890E-02  3.65311380E-01
  1.84777765E-03 -6.81420248E-02  2.54918223E-02  2.38391629E-01 -1.62028366E-01
 -4.91870767E-02  1.49912682E-02  2.84518858E-02 -6.18397322E-03  1.40928907E-02
 -4.53362666E-02  5.71811437E-02  3.64492892E-01  1.56261931E-02 -3.02532550E-02
  2.78562672E-02  2.45332721E-01  2.60280731E-01 -1.96614309E-02  4.68363645E-02
  2.49883497E-02  1.80412542E-03  3.32734727E-03 -3.10159031E-03 -2.58371922E-02
 -5.95807788E-02 -3.99576508E-02 -3.86676940E-02 -2.73265213E-03 -3.09755003E-02
 -1.08035583E-01  1.61208202E-02  1.52903885E-02 -1.73827010E-02 -1.21745946E-03
  3.38754908E-03 -1.12420823E-01  8.76800346E-02 -2.15490808E-01  2.30822672E-02
 -7.76943108E-02  6.72409266E-02 -1.44754941E-01  2.47457211E-02 -1.29878912E-02
  4.95982133E-03 -1.68986915E-02 -3.97377804E-02 -3.39779037E-02  8.71077686E-03
  5.33501580E-04 -2.77249560E-03 -3.77812554E-03 -9.30867363E-03 -1.81947271E-02
  6.47508186E-03 -1.20836588E-02 -5.83785761E-02 -1.57797344E-03 -3.74945734E-02
 -6.74656163E-02 -7.66510424E-02 -2.90885060E-02 -3.78060894E-02 -2.10020628E-01
 -4.75824881E-02  2.23012329E-03 -2.58343537E-02 -3.68582952E-02  7.03040632E-02
  1.92746331E-01  1.12250653E-01  3.90434377E-03  3.01705510E-01  1.29188768E-01
  1.68285273E-01 -6.47365688E-04  2.06900158E-01 -7.14923837E-02  6.43916832E-02
  4.41937445E-03  3.08177817E-04  1.65120382E-02 -6.90585938E-02 -1.33304394E-01
 -2.20572163E-02 -7.00188541E-02  9.81915957E-02  2.19325943E-02 -3.56253863E-03
  9.94495319E-04  3.64831319E-02 -1.57556373E-02 -1.50412745E-02 -1.23257792E-03
  5.39954507E-03  2.57928488E-01  5.17449574E-01  1.03311857E-01 -1.40488415E-02
  1.82193492E-01  3.46249847E-01  6.32640236E-02 -4.33077390E-02  2.79837025E-02