B.pdb                                                                   
FOpt      RwB97XD                                                     6-31+G              
Number of atoms                            I               10
Info1-9                                    I   N=           9
          21          21           0           0           0         110
           2          18        -802
Charge                                     I                0
Multiplicity                               I                1
Number of electrons                        I               38
Number of alpha electrons                  I               19
Number of beta electrons                   I               19
Number of basis functions                  I               75
Number of independent functions            I               75
Number of point charges in /Mol/           I                0
Number of translation vectors              I                0
Atomic numbers                             I   N=          10
           6           6           6           6           1           1
           9           1           1           1
Nuclear charges                            R   N=          10
  6.00000000E+00  6.00000000E+00  6.00000000E+00  6.00000000E+00  1.00000000E+00
  1.00000000E+00  9.00000000E+00  1.00000000E+00  1.00000000E+00  1.00000000E+00
Current cartesian coordinates              R   N=          30
 -2.28671783E+00  2.20969822E+00  1.77180506E-02 -9.03606676E-01  1.21124769E-01
  1.38333850E-01  1.74800743E+00 -2.36080028E-01  9.12207573E-01  3.70958586E+00
  2.39481029E-01 -6.06413881E-01 -4.26336622E+00  2.14565857E+00 -5.07142900E-01
 -1.43370972E+00  4.02316670E+00  4.27474078E-01 -2.11386141E+00 -2.22359328E+00
 -3.30515333E-01  2.03634853E+00 -1.06052962E+00  2.77354452E+00  3.44443388E+00
  9.91375340E-01 -2.49745236E+00  5.63743354E+00 -9.26754135E-02  7.14110287E-03
Force Field                                I                0
Int Atom Types                             I   N=          10
           0           0           0           0           0           0
           0           0           0           0
MM charges                                 R   N=          10
  0.00000000E+00  0.00000000E+00  0.00000000E+00  0.00000000E+00  0.00000000E+00
  0.00000000E+00  0.00000000E+00  0.00000000E+00  0.00000000E+00  0.00000000E+00
Integer atomic weights                     I   N=          10
          12          12          12          12           1           1
          19           1           1           1
Real atomic weights                        R   N=          10
  1.20000000E+01  1.20000000E+01  1.20000000E+01  1.20000000E+01  1.00782504E+00
  1.00782504E+00  1.89984032E+01  1.00782504E+00  1.00782504E+00  1.00782504E+00
Atom fragment info                         I   N=          10
           0           0           0           0           0           0
           0           0           0           0
Atom residue num                           I   N=          10
           0           0           0           0           0           0
           0           0           0           0
Nuclear spins                              I   N=          10
           0           0           0           0           1           1
           1           1           1           1
Nuclear ZEff                               R   N=          10
 -3.60000000E+00 -3.60000000E+00 -3.60000000E+00 -3.60000000E+00 -1.00000000E+00
 -1.00000000E+00 -6.75000000E+00 -1.00000000E+00 -1.00000000E+00 -1.00000000E+00
Nuclear ZNuc                               R   N=          10
  6.00000000E+00  6.00000000E+00  6.00000000E+00  6.00000000E+00  1.00000000E+00
  1.00000000E+00  9.00000000E+00  1.00000000E+00  1.00000000E+00  1.00000000E+00
Nuclear QMom                               R   N=          10
  0.00000000E+00  0.00000000E+00  0.00000000E+00  0.00000000E+00  0.00000000E+00
  0.00000000E+00  0.00000000E+00  0.00000000E+00  0.00000000E+00  0.00000000E+00
Nuclear GFac                               R   N=          10
  0.00000000E+00  0.00000000E+00  0.00000000E+00  0.00000000E+00  2.79284600E+00
  2.79284600E+00  2.62886700E+00  2.79284600E+00  2.79284600E+00  2.79284600E+00
MicOpt                                     I   N=          10
          -1          -1          -1          -1          -1          -1
          -1          -1          -1          -1
Number of contracted shells                I               30
Number of primitive shells                 I               75
Pure/Cartesian d shells                    I                1
Pure/Cartesian f shells                    I                0
Highest angular momentum                   I                1
Largest degree of contraction              I                6
Shell types                                I   N=          30
           0          -1          -1          -1           0          -1
          -1          -1           0          -1          -1          -1
           0          -1          -1          -1           0           0
           0           0           0          -1          -1          -1
           0           0           0           0           0           0
Number of primitives per shell             I   N=          30
           6           3           1           1           6           3
           1           1           6           3           1           1
           6           3           1           1           3           1
           3           1           6           3           1           1
           3           1           3           1           3           1
Shell to atom map                          I   N=          30
           1           1           1           1           2           2
           2           2           3           3           3           3
           4           4           4           4           5           5
           6           6           7           7           7           7
           8           8           9           9          10          10
Primitive exponents                        R   N=          75
  3.04752488E+03  4.57369518E+02  1.03948685E+02  2.92101553E+01  9.28666296E+00
  3.16392696E+00  7.86827235E+00  1.88128854E+00  5.44249258E-01  1.68714478E-01
  4.38000000E-02  3.04752488E+03  4.57369518E+02  1.03948685E+02  2.92101553E+01
  9.28666296E+00  3.16392696E+00  7.86827235E+00  1.88128854E+00  5.44249258E-01
  1.68714478E-01  4.38000000E-02  3.04752488E+03  4.57369518E+02  1.03948685E+02
  2.92101553E+01  9.28666296E+00  3.16392696E+00  7.86827235E+00  1.88128854E+00
  5.44249258E-01  1.68714478E-01  4.38000000E-02  3.04752488E+03  4.57369518E+02
  1.03948685E+02  2.92101553E+01  9.28666296E+00  3.16392696E+00  7.86827235E+00
  1.88128854E+00  5.44249258E-01  1.68714478E-01  4.38000000E-02  1.87311370E+01
  2.82539436E+00  6.40121692E-01  1.61277759E-01  1.87311370E+01  2.82539436E+00
  6.40121692E-01  1.61277759E-01  7.00171309E+03  1.05136609E+03  2.39285690E+02
  6.73974453E+01  2.15199573E+01  7.40310130E+00  2.08479528E+01  4.80830834E+00
  1.34406986E+00  3.58151393E-01  1.07600000E-01  1.87311370E+01  2.82539436E+00
  6.40121692E-01  1.61277759E-01  1.87311370E+01  2.82539436E+00  6.40121692E-01
  1.61277759E-01  1.87311370E+01  2.82539436E+00  6.40121692E-01  1.61277759E-01
Contraction coefficients                   R   N=          75
  1.83473713E-03  1.40373228E-02  6.88426223E-02  2.32184443E-01  4.67941348E-01
  3.62311985E-01 -1.19332420E-01 -1.60854152E-01  1.14345644E+00  1.00000000E+00
  1.00000000E+00  1.83473713E-03  1.40373228E-02  6.88426223E-02  2.32184443E-01
  4.67941348E-01  3.62311985E-01 -1.19332420E-01 -1.60854152E-01  1.14345644E+00
  1.00000000E+00  1.00000000E+00  1.83473713E-03  1.40373228E-02  6.88426223E-02
  2.32184443E-01  4.67941348E-01  3.62311985E-01 -1.19332420E-01 -1.60854152E-01
  1.14345644E+00  1.00000000E+00  1.00000000E+00  1.83473713E-03  1.40373228E-02
  6.88426223E-02  2.32184443E-01  4.67941348E-01  3.62311985E-01 -1.19332420E-01
 -1.60854152E-01  1.14345644E+00  1.00000000E+00  1.00000000E+00  3.34946043E-02
  2.34726953E-01  8.13757326E-01  1.00000000E+00  3.34946043E-02  2.34726953E-01
  8.13757326E-01  1.00000000E+00  1.81961690E-03  1.39160796E-02  6.84053245E-02
  2.33185760E-01  4.71267439E-01  3.56618546E-01 -1.08506975E-01 -1.46451658E-01
  1.12868858E+00  1.00000000E+00  1.00000000E+00  3.34946043E-02  2.34726953E-01
  8.13757326E-01  1.00000000E+00  3.34946043E-02  2.34726953E-01  8.13757326E-01
  1.00000000E+00  3.34946043E-02  2.34726953E-01  8.13757326E-01  1.00000000E+00
P(S=P) Contraction coefficients            R   N=          75
  0.00000000E+00  0.00000000E+00  0.00000000E+00  0.00000000E+00  0.00000000E+00
  0.00000000E+00  6.89990666E-02  3.16423961E-01  7.44308291E-01  1.00000000E+00
  1.00000000E+00  0.00000000E+00  0.00000000E+00  0.00000000E+00  0.00000000E+00
  0.00000000E+00  0.00000000E+00  6.89990666E-02  3.16423961E-01  7.44308291E-01
  1.00000000E+00  1.00000000E+00  0.00000000E+00  0.00000000E+00  0.00000000E+00
  0.00000000E+00  0.00000000E+00  0.00000000E+00  6.89990666E-02  3.16423961E-01
  7.44308291E-01  1.00000000E+00  1.00000000E+00  0.00000000E+00  0.00000000E+00
  0.00000000E+00  0.00000000E+00  0.00000000E+00  0.00000000E+00  6.89990666E-02
  3.16423961E-01  7.44308291E-01  1.00000000E+00  1.00000000E+00  0.00000000E+00
  0.00000000E+00  0.00000000E+00  0.00000000E+00  0.00000000E+00  0.00000000E+00
  0.00000000E+00  0.00000000E+00  0.00000000E+00  0.00000000E+00  0.00000000E+00
  0.00000000E+00  0.00000000E+00  0.00000000E+00  7.16287242E-02  3.45912103E-01
  7.22469956E-01  1.00000000E+00  1.00000000E+00  0.00000000E+00  0.00000000E+00
  0.00000000E+00  0.00000000E+00  0.00000000E+00  0.00000000E+00  0.00000000E+00
  0.00000000E+00  0.00000000E+00  0.00000000E+00  0.00000000E+00  0.00000000E+00
Coordinates of each shell                  R   N=          90
 -2.28671783E+00  2.20969822E+00  1.77180506E-02 -2.28671783E+00  2.20969822E+00
  1.77180506E-02 -2.28671783E+00  2.20969822E+00  1.77180506E-02 -2.28671783E+00
  2.20969822E+00  1.77180506E-02 -9.03606676E-01  1.21124769E-01  1.38333850E-01
 -9.03606676E-01  1.21124769E-01  1.38333850E-01 -9.03606676E-01  1.21124769E-01
  1.38333850E-01 -9.03606676E-01  1.21124769E-01  1.38333850E-01  1.74800743E+00
 -2.36080028E-01  9.12207573E-01  1.74800743E+00 -2.36080028E-01  9.12207573E-01
  1.74800743E+00 -2.36080028E-01  9.12207573E-01  1.74800743E+00 -2.36080028E-01
  9.12207573E-01  3.70958586E+00  2.39481029E-01 -6.06413881E-01  3.70958586E+00
  2.39481029E-01 -6.06413881E-01  3.70958586E+00  2.39481029E-01 -6.06413881E-01
  3.70958586E+00  2.39481029E-01 -6.06413881E-01 -4.26336622E+00  2.14565857E+00
 -5.07142900E-01 -4.26336622E+00  2.14565857E+00 -5.07142900E-01 -1.43370972E+00
  4.02316670E+00  4.27474078E-01 -1.43370972E+00  4.02316670E+00  4.27474078E-01
 -2.11386141E+00 -2.22359328E+00 -3.30515333E-01 -2.11386141E+00 -2.22359328E+00
 -3.30515333E-01 -2.11386141E+00 -2.22359328E+00 -3.30515333E-01 -2.11386141E+00
 -2.22359328E+00 -3.30515333E-01  2.03634853E+00 -1.06052962E+00  2.77354452E+00
  2.03634853E+00 -1.06052962E+00  2.77354452E+00  3.44443388E+00  9.91375340E-01
 -2.49745236E+00  3.44443388E+00  9.91375340E-01 -2.49745236E+00  5.63743354E+00
 -9.26754135E-02  7.14110287E-03  5.63743354E+00 -9.26754135E-02  7.14110287E-03
Constraint Structure                       R   N=          30
 -2.30496442E+00  2.21506930E+00  2.06924514E-02 -8.98764766E-01  1.32390541E-01
  1.31868819E-01  1.75029862E+00 -2.37244135E-01  9.03466676E-01  3.73565442E+00
  2.44252066E-01 -5.97421849E-01 -4.28443555E+00  2.13716002E+00 -4.97478013E-01
 -1.47366412E+00  4.04068066E+00  4.28535035E-01 -2.12477603E+00 -2.23541152E+00
 -3.31321953E-01  2.03023872E+00 -1.09638549E+00  2.75368619E+00  3.50019846E+00
  1.01832173E+00 -2.48444567E+00  5.65730364E+00 -1.07879839E-01  2.99634478E-02
Num ILSW                                   I              100
ILSW                                       I   N=         100
           0           1           0           0           2           0
           0           0           0           0        4639          -1
           0           0           0           0           2           0
           0           0           0           0           1           0
           1           0           0           0           0           0
           0           0      100000           0          -1           0
           0           0           0           0           0           0
           0           0           0           1           0           0
           0           0           1           0           0           0
           0           0         121          41           0           0
           0           0          58           0           0           0
           0           0           0          10           0           0
           0           0           0           0           0           0
           0           0           0           0           0           0
           0           0           0           0           0           0
           0           0           0           0           0           0
           0           0           0           0
Num RLSW                                   I               41
RLSW                                       R   N=          41
  1.00000000E+00  1.00000000E+00  1.00000000E+00  1.00000000E+00  1.00000000E+00
  0.00000000E+00  2.00000000E-01  2.22036000E-01  0.00000000E+00  7.77964000E-01
  0.00000000E+00  2.00000000E-01  0.00000000E+00  0.00000000E+00  1.00000000E+00
  0.00000000E+00  0.00000000E+00  1.00000000E+00  0.00000000E+00  0.00000000E+00
  0.00000000E+00  0.00000000E+00  1.00000000E+00  0.00000000E+00  0.00000000E+00
  0.00000000E+00  0.00000000E+00  1.00000000E+00  0.00000000E+00  0.00000000E+00
  0.00000000E+00  0.00000000E+00  1.00000000E+00  0.00000000E+00  0.00000000E+00
  0.00000000E+00  0.00000000E+00  0.00000000E+00  1.00000000E+00  1.00000000E+00
  0.00000000E+00
MxBond                                     I                3
NBond                                      I   N=          10
           3           3           3           3           1           1
           1           1           1           1
IBond                                      I   N=          30
           2           5           6           1           3           7
           2           4           8           3           9          10
           1           0           0           1           0           0
           2           0           0           3           0           0
           4           0           0           4           0           0
RBond                                      R   N=          30
  2.00000000E+00  1.00000000E+00  1.00000000E+00  2.00000000E+00  1.00000000E+00
  1.00000000E+00  1.00000000E+00  2.00000000E+00  1.00000000E+00  2.00000000E+00
  1.00000000E+00  1.00000000E+00  1.00000000E+00  0.00000000E+00  0.00000000E+00
  1.00000000E+00  0.00000000E+00  0.00000000E+00  1.00000000E+00  0.00000000E+00
  0.00000000E+00  1.00000000E+00  0.00000000E+00  0.00000000E+00  1.00000000E+00
  0.00000000E+00  0.00000000E+00  1.00000000E+00  0.00000000E+00  0.00000000E+00
Virial Ratio                               R      2.005645534710498E+00
SCF Energy                                 R     -2.550940456605414E+02
Total Energy                               R     -2.550940456605414E+02
RMS Force                                  R      1.921415630108971E-03
RMS Density                                R      6.406050254558936E-09
External E-field                           R   N=          35
  0.00000000E+00  0.00000000E+00  0.00000000E+00  0.00000000E+00  0.00000000E+00
  0.00000000E+00  0.00000000E+00  0.00000000E+00  0.00000000E+00  0.00000000E+00
  0.00000000E+00  0.00000000E+00  0.00000000E+00  0.00000000E+00  0.00000000E+00
  0.00000000E+00  0.00000000E+00  0.00000000E+00  0.00000000E+00  0.00000000E+00
  0.00000000E+00  0.00000000E+00  0.00000000E+00  0.00000000E+00  0.00000000E+00
  0.00000000E+00  0.00000000E+00  0.00000000E+00  0.00000000E+00  0.00000000E+00
  0.00000000E+00  0.00000000E+00  0.00000000E+00  0.00000000E+00  0.00000000E+00
IOpCl                                      I                0
IROHF                                      I                0
Alpha Orbital Energies                     R   N=          75
 -2.48278319E+01 -1.04011670E+01 -1.03307955E+01 -1.03212598E+01 -1.03089863E+01
 -1.30601394E+00 -9.28804106E-01 -8.61515749E-01 -7.38347983E-01 -6.54319341E-01
 -6.07996482E-01 -5.74871157E-01 -5.63891690E-01 -5.25226825E-01 -5.06310074E-01
 -4.84869434E-01 -4.50780748E-01 -3.81229809E-01 -3.50983638E-01  3.86993676E-02
  6.07956553E-02  7.74616423E-02  8.43257570E-02  9.55023719E-02  1.12592762E-01
  1.17967375E-01  1.32732423E-01  1.39335650E-01  1.44832608E-01  1.62704809E-01
  1.75890325E-01  1.81970487E-01  1.86178420E-01  1.96170450E-01  1.96846782E-01
  2.30791632E-01  2.45952962E-01  2.67311232E-01  2.83439637E-01  2.88378349E-01
  3.15086590E-01  3.18861621E-01  3.88567866E-01  4.16803241E-01  4.25117979E-01
  4.55019093E-01  4.63562548E-01  4.85959350E-01  5.02975163E-01  5.26226505E-01
  6.98434207E-01  7.25265944E-01  7.59195184E-01  7.80582544E-01  8.07062775E-01
  8.23796571E-01  8.49743133E-01  9.04958495E-01  9.26096288E-01  9.44534721E-01
  1.01295192E+00  1.04880874E+00  1.06965570E+00  1.12987813E+00  1.13424720E+00
  1.16057227E+00  1.22096085E+00  1.23408217E+00  1.32273303E+00  1.39636306E+00
  1.48793053E+00  1.67699651E+00  1.82056775E+00  1.86096597E+00  2.36225933E+00
Alpha MO coefficients                      R   N=        5625
  6.84863887E-06 -1.21346327E-04 -1.44195516E-04  3.92938219E-05 -3.14967378E-05
  4.09167566E-04  2.40830030E-03  1.68683878E-03  7.01955801E-04  1.48668517E-02
  2.14225419E-03 -3.30557378E-03  5.98504712E-04 -2.72832539E-05  3.27466443E-04
 -2.33925117E-04 -5.45198103E-04 -1.02949823E-04  2.50002742E-04 -2.33795361E-03
 -2.28956522E-03 -6.30888105E-04 -2.89849541E-02  1.15451626E-05 -2.64958459E-04
 -1.55957876E-03 -7.95735015E-06 -2.59107169E-04  5.50999080E-05  4.59602841E-06
  5.43444736E-05  1.57334997E-03 -2.61752504E-04  1.32548773E-03 -5.82979200E-04
 -9.04328983E-03 -7.26009856E-03 -1.46356924E-03  3.65713048E-03 -1.38520794E-06
  1.76262024E-05  3.65173682E-05 -2.21988520E-05 -7.59819429E-05 -5.83821061E-04
  7.20430492E-05 -2.85904048E-04  2.09191028E-04  1.93790310E-02 -3.69502475E-03
 -1.00411121E-03  2.59588422E-03  3.22392364E-04  9.15452290E-04 -2.68119597E-04
 -1.50762309E-03  9.95026810E-01  2.75939017E-02  5.68168723E-04  1.10842691E-03
  2.32426263E-04 -1.53357605E-02 -9.04420390E-04 -1.81244715E-03 -3.77235809E-04
  9.43049031E-03  8.25409924E-04  1.10864322E-03  3.01071722E-04  7.87476665E-05
  6.10220660E-04  3.14813655E-05  3.85502424E-04  1.62653020E-05 -9.85952105E-05
  4.82660615E-03 -1.16834528E-03 -5.87069195E-04  6.80911727E-04 -6.76297312E-05
  8.64470887E-03  3.51571962E-03 -2.32410302E-03  7.50851842E-04 -1.89868090E-02
 -3.29330522E-03  4.23803966E-03 -1.02182024E-03  9.95504641E-01  3.63886014E-02
 -5.68912541E-04 -9.51517044E-04 -1.01732886E-04 -3.57489678E-02 -1.89627222E-04
 -4.39098231E-04 -7.18109747E-04  5.07984038E-02  6.35684517E-03  3.03759964E-03
  4.43889233E-03  2.03167731E-03 -1.95345050E-04  5.21610253E-04 -9.32997528E-05
  1.03116696E-04  3.47129000E-03 -4.43314652E-03  7.77126218E-04  6.63539743E-05
 -1.76523642E-03  1.51859922E-02  6.23059872E-04 -3.86584577E-03 -1.61711375E-04
 -6.54430508E-04  1.76942938E-04 -5.96568753E-06  2.30632572E-05  2.46345427E-03
 -1.47241276E-03 -3.11300131E-04  5.42066120E-04 -2.90371775E-02  5.23682495E-03
  1.41892307E-03 -4.27741420E-03 -3.94029033E-05  4.76840621E-04 -2.75608311E-04
 -1.30013573E-03  3.86965627E-05  6.46254562E-04  1.13059752E-05  8.93150039E-05
 -5.85870610E-06 -6.05204297E-04 -2.52712660E-04 -7.79527030E-04 -2.55573385E-05
  6.51624904E-03  1.78796790E-03  4.39779617E-03  6.80701574E-04 -1.81707367E-04
  2.28124928E-04 -3.00259363E-04  4.14633876E-04 -5.08266861E-05  1.03837035E-03
 -5.56753629E-04 -5.28230358E-04 -1.52930269E-04  3.99656283E-06 -5.98219243E-05
  2.15168158E-03 -4.28540110E-04 -1.24267351E-03 -4.98290811E-05 -3.25480067E-02
 -4.25811139E-03  6.27617184E-03 -1.24986630E-03 -1.89954389E-03 -2.58266960E-04
 -6.42868088E-04  1.34147798E-04 -2.38223068E-04  4.27007016E-03  6.86148344E-03
  1.51682119E-04  1.38462889E-03  2.80186645E-03 -1.36727558E-02  9.94273494E-03
  5.71118843E-04  9.94412422E-01  3.64846315E-02 -2.38650522E-04  9.80777766E-05
 -4.92178978E-04 -3.58528491E-02  1.89254284E-03 -1.67563387E-03  4.58361301E-03
  7.75419559E-02  1.75182844E-03  3.79664291E-03 -1.46288433E-02  4.46839588E-02
  2.90617401E-04  7.09823097E-04  1.82212625E-04 -5.43622535E-04  8.37661513E-03
 -4.74160983E-03 -3.52589418E-04  1.37240689E-03 -4.58272765E-02  9.20060305E-03
  1.73175095E-03 -5.64835172E-03 -1.29786439E-04 -5.91770058E-05 -7.73021655E-05
  2.94662948E-04 -3.41262507E-06 -2.21720076E-04 -1.13126507E-04 -1.57577443E-04
 -5.00367185E-05  2.67635621E-04  1.76178762E-04  8.41913290E-04  1.86328908E-04
  2.39732162E-03  6.48891242E-04  5.93016482E-04  9.06288300E-05 -6.17496045E-04
  2.53557865E-03 -3.52287249E-04 -8.92132983E-04 -1.24642116E-04  1.13513721E-03
 -2.44591876E-04 -6.80406402E-05  1.47108122E-04 -8.59319123E-06  5.29420749E-05
  2.71675621E-04 -1.71410892E-03 -6.14700129E-05 -5.47210068E-04 -2.77646321E-02
 -3.80921672E-03  5.26926932E-03 -6.79622203E-04  1.21469849E-04 -6.33636873E-04
 -1.91007860E-04 -1.57017175E-05 -4.42034744E-06  2.75306830E-03  1.16398928E-03
 -6.37841559E-06  8.28773054E-04 -8.15378832E-03 -1.37363414E-02  9.02303616E-03
 -1.52940201E-03 -4.49261499E-02 -2.79294443E-03 -8.56547840E-04 -2.40275383E-04
  8.09471882E-04  9.38132882E-03  5.71541261E-03  1.01444940E-03 -3.79361880E-03
  1.78682026E-02 -1.45754493E-02  4.71005438E-05 -3.33149196E-03  9.94335419E-01
  3.54914143E-02 -4.56000686E-04 -5.79095842E-05  3.35463495E-04 -3.19246712E-02
  3.72382629E-03  8.74498069E-04 -2.81420951E-03  1.99979109E-02 -4.42820420E-03
 -1.37920994E-03  5.20322214E-03 -1.49172236E-04 -8.94196561E-04  1.08421868E-04
  5.59474622E-04 -5.16052607E-08  3.21333628E-05  6.24085363E-05  1.40392006E-05
 -1.23617812E-05  3.24925841E-05 -2.72453928E-04 -6.51720930E-05  2.30120949E-05
 -5.00656498E-04 -3.55924630E-04 -2.56672239E-04 -2.31976280E-04  2.50592672E-05
 -3.46671779E-04 -5.89269473E-04  3.57944865E-03 -7.04616908E-04  4.06511297E-03
  9.95299301E-01  3.57056201E-02  5.20010541E-04 -5.59788535E-04  2.63518895E-05
 -3.27001342E-02 -3.33878536E-03  4.14218892E-03 -3.76394023E-04  1.61911124E-02
  1.36974082E-03 -5.88863598E-03 -5.86724816E-04 -5.11352080E-03 -1.52746506E-03
  7.09402686E-04 -1.06594709E-03  8.55772307E-05  9.49580841E-03 -4.47795573E-03
  6.22116856E-03 -2.96370539E-04  2.71144130E-02  1.58825359E-02 -1.90283611E-03
  5.61651924E-03  4.57260770E-04 -4.51635738E-04  1.20798349E-04 -1.15293023E-04
  1.12908323E-04  2.66172098E-03 -4.94382086E-04 -1.07472091E-04 -1.71161814E-03
 -1.50740953E-02  1.64678364E-02 -9.98723863E-04 -2.82831767E-03  2.73530243E-04
 -3.38834819E-05 -1.30668963E-04  1.51000264E-05 -2.55359757E-05 -6.06526348E-04
  2.05309647E-03 -5.03732593E-05  1.38347678E-04 -2.61072642E-02  4.99456489E-03
  1.35783396E-03 -3.46099043E-03 -7.25226384E-04  3.81905837E-03 -5.69403002E-04
  3.83169354E-03 -2.94685347E-06 -1.81741444E-04 -4.05765312E-05 -1.06339653E-04
 -2.09698998E-05  3.10753523E-04  3.79478399E-04  2.17594920E-04  1.02652261E-04
 -4.04958684E-04 -2.72628460E-04 -3.10399144E-04 -7.68669103E-05  3.46521648E-05
  5.44198222E-04  1.33237439E-04  1.59018878E-04 -1.33972897E-04 -8.79713941E-04
 -9.87113839E-03  1.92960098E-02  5.56918031E-03 -1.58716994E-02 -1.01624867E-04
  3.34679090E-04 -2.80954763E-02 -1.78389530E-02 -8.32536491E-03 -1.14929289E-01
 -2.15380988E-02  2.23773345E-02 -4.20517320E-03 -5.87378443E-02  1.14875689E-01
 -4.38793639E-02 -8.23756417E-02 -1.58949818E-02  3.36600164E-02  3.19981304E-02
  3.46651443E-02  1.01890635E-02  2.10256349E-01  7.65950387E-03  1.26422118E-02
  8.35610760E-03 -8.79568341E-03  1.73077297E-02 -1.32431290E-02 -2.99526071E-03
 -4.48503516E-03 -7.34779069E-03  4.59936289E-03 -1.55162482E-02  3.62420283E-03
 -2.49847637E-02  3.21912609E-02  3.88595513E-03 -6.36887038E-03 -1.27468498E-03
  2.96773839E-03 -2.34939045E-03 -2.74354650E-04  1.01990902E-03  3.86408286E-03
  1.81746695E-03  2.62730637E-03 -9.99766951E-04 -5.22870237E-02  1.00854680E-02
  2.81639418E-03 -7.19009099E-03  8.60359671E-04 -1.21047128E-02  3.35621863E-03
  1.63715393E-02 -2.25813151E-01  4.79211358E-01  4.38072293E-02  8.49261975E-02
  1.76670846E-02  5.43779791E-01  3.39731175E-02  6.69931554E-02  1.40073229E-02
 -1.67322208E-02 -7.41480105E-03 -1.11828304E-02 -2.74552358E-03  1.60897021E-03
 -4.60889329E-03  7.91078220E-04 -4.07931071E-03  1.76749905E-04 -1.97625935E-03
 -8.58376776E-02  1.66326548E-01  5.40357882E-02 -5.61867592E-02  6.86629246E-03
  1.20426047E-01 -1.34430019E-03 -9.11122938E-03 -1.09872658E-03  8.94652713E-02
  7.68102434E-03 -2.11465515E-02  2.12659067E-03 -1.21384208E-01  2.43079211E-01
  4.85685078E-02  6.73144291E-02  1.94933236E-02  1.77564314E-01  2.71808832E-02
 -3.14320523E-03  3.66523805E-03 -3.51351388E-02  3.78794914E-02 -1.80812442E-02
 -1.28740965E-04 -1.39506797E-01  2.71624610E-01 -6.93377225E-03  2.46297561E-02
 -5.48951307E-02  1.79325184E-01  8.29286998E-04  2.39900297E-03  2.73793774E-03
 -1.15661556E-01  1.49654941E-03 -8.98087445E-03  2.31900764E-02 -9.92383381E-02
  1.92223091E-01 -7.13124083E-02 -1.18506354E-02  4.48877880E-02  1.33268155E-01
 -3.62008474E-03  8.29822055E-04 -2.77950244E-04  6.37165105E-02 -1.44472269E-02
 -7.22177468E-04  7.26974730E-03  3.54479598E-02 -1.50207444E-03  4.46923321E-02
  1.17261541E-02  4.59263408E-02 -1.03600141E-01  3.00096135E-02  4.79623315E-02
  1.10326265E-02 -1.28101870E-01  1.19942220E-02  2.17753395E-02  4.37576447E-03
 -2.30513250E-02 -9.35126213E-03 -6.70228965E-03 -1.29096043E-03  6.59187698E-02
  5.35694183E-03  4.89438964E-02  5.43320605E-03  4.44670085E-02  4.33411699E-03
 -1.40262736E-01  2.70667002E-01  4.32253900E-02 -7.37335459E-02  3.92802749E-03
  2.12468051E-01  3.72757417E-03  1.03027398E-03  3.53299975E-05 -8.16877657E-02
 -7.16372185E-03  1.59849798E-02  1.25959089E-03 -8.78897195E-02  1.82574460E-01
 -1.21192561E-01  1.26319462E-01 -8.93390677E-03  1.18867909E-01 -2.56898473E-02
  1.17542223E-02  2.15795764E-03 -8.89270955E-02 -6.25757968E-02  3.58943112E-02
 -1.78085577E-02  8.47585733E-02 -1.67367121E-01 -1.07336406E-01  2.31013427E-03
  4.35197504E-02 -1.15324693E-01 -1.69141909E-02  1.10745429E-02 -1.08446254E-02
  1.05884368E-01 -7.26040686E-02 -1.30739633E-03 -8.41312076E-03  1.15887848E-01
 -2.24701490E-01  4.62589064E-02  1.71218052E-02 -4.50889424E-02 -1.87758729E-01
  7.32035289E-03 -2.01436995E-03  2.20623098E-03  6.37838688E-02 -6.63791175E-03
 -4.24026069E-03  1.57167752E-02  7.92854645E-02  1.55498663E-02  7.71087627E-02
  1.05267197E-02  2.87980771E-02 -6.56605912E-02 -5.21083318E-03  6.57059178E-02
  5.92794029E-03 -8.39086641E-02 -2.08451901E-03  3.36955638E-02  2.79691445E-03
 -1.35281829E-02 -3.06116606E-03 -3.64656029E-03 -1.60632172E-03 -4.84147198E-02
 -3.53162999E-03 -6.17174439E-02 -6.05249782E-03 -6.82223473E-02 -1.70121536E-02
 -8.95239624E-02  1.74886917E-01 -4.11938828E-02  2.34560531E-02 -1.65128048E-02
  1.57111551E-01 -1.47339498E-02  1.38375587E-02 -4.33554965E-03 -6.57153726E-02
 -4.96315874E-03  1.76427316E-02 -1.54065439E-03  6.92693776E-02 -1.48412651E-01
 -1.71028321E-01  1.23187083E-01 -6.30741221E-02 -1.44721672E-01 -4.71746813E-02
  3.62778184E-02 -1.86692003E-02  6.90986739E-02 -2.49550256E-02  1.32986538E-02
  1.93280284E-03  7.21725116E-02 -1.47709501E-01  1.97954960E-01  3.37398900E-02
 -6.06155277E-02 -1.32454663E-01  3.86900209E-02  1.64004278E-02 -2.71288787E-02
  1.47000298E-01  4.36007660E-02  1.06222706E-02 -3.09921762E-02 -1.18718021E-01
  2.36622876E-01  6.40386028E-02  1.28881444E-02 -2.47851284E-02  2.19076056E-01
  2.85275714E-02  3.65600567E-03 -7.54327947E-03 -1.42966158E-01  2.77769644E-02
  7.00238039E-03 -2.24974487E-02  9.07376123E-02  3.20035656E-02  7.39307880E-02
  2.43342456E-02 -2.93330410E-02  6.77498313E-02 -1.16480986E-01 -6.47324927E-02
 -4.55765276E-02  8.83377303E-02 -6.39526931E-02 -3.27456043E-02 -2.51728658E-02
  3.04852081E-02  3.38616450E-03  6.53922342E-03  1.83478121E-03 -7.57870117E-02
 -2.07687056E-02  1.05637594E-01  4.05852205E-02  1.17814487E-01  4.02726991E-02
  5.98648754E-02 -1.17539880E-01  3.25874115E-02 -1.61153415E-01 -1.95298978E-02
 -1.45731365E-01 -8.56257247E-03 -5.47734053E-02 -1.22201914E-02 -9.81726680E-02
 -1.62226779E-02  4.00192443E-03 -1.33148878E-03 -7.79595562E-02  1.72945707E-01
 -1.00617314E-01 -1.03289359E-01 -6.79706444E-02  1.75682106E-01 -1.10314835E-02
 -1.81061611E-02 -1.51640888E-02  1.37282829E-01  5.33932474E-03  4.34547850E-02
 -2.88553689E-04  7.60031240E-02 -1.51964977E-01 -5.76030070E-02  2.66613775E-02
 -1.16825150E-01 -1.72804428E-01 -3.34248947E-03  7.11877063E-03 -5.13611558E-02
 -1.43521284E-02  7.71057965E-03 -1.01749185E-02 -5.99391295E-03 -5.18653922E-02
  1.04260476E-01  7.17530260E-02  3.92762257E-02 -1.31731285E-01  1.16110350E-01
  2.46405310E-02  1.19660770E-02 -4.35850112E-02 -2.65833795E-02  1.36747590E-02
  3.42843451E-03 -6.06794708E-03 -7.04586843E-02 -3.89013471E-02 -1.22277833E-01
 -5.21292714E-02  4.61089522E-02 -1.08620249E-01  1.25278536E-01  2.96079030E-01
  2.82362876E-02 -1.34792734E-01  7.17677666E-02  1.73955703E-01  1.55326614E-02
 -5.38889579E-02  2.11696068E-04 -2.71641054E-03 -5.22225390E-04 -1.32177474E-01
 -5.41867855E-02  1.10880406E-01  4.96753356E-02  6.14942872E-02  2.65111529E-02