O.pdb                                                                   
FOpt      RwB97XD                                                     6-31+G              
Number of atoms                            I               11
Info1-9                                    I   N=           9
          22          22           0           0           0         100
           2          18        -802
Charge                                     I                0
Multiplicity                               I                1
Number of electrons                        I               40
Number of alpha electrons                  I               20
Number of beta electrons                   I               20
Number of basis functions                  I               77
Number of independent functions            I               77
Number of point charges in /Mol/           I                0
Number of translation vectors              I                0
Atomic numbers                             I   N=          11
           6           6           1           1           1           8
           8           6           1           1           1
Nuclear charges                            R   N=          11
  6.00000000E+00  6.00000000E+00  1.00000000E+00  1.00000000E+00  1.00000000E+00
  8.00000000E+00  8.00000000E+00  6.00000000E+00  1.00000000E+00  1.00000000E+00
  1.00000000E+00
Current cartesian coordinates              R   N=          33
  1.83353730E+00  2.38665973E+00 -3.06792786E-02  1.08947810E+00 -3.59197290E-01
 -6.35869695E-02  1.40292929E+00  3.24422128E+00 -1.86150076E+00  3.84954251E+00
  2.54190616E+00  3.58396435E-01  7.96191164E-01  3.43501188E+00  1.42204769E+00
 -1.34147511E+00 -8.64797005E-01 -9.04872257E-01  2.53350266E+00 -2.10877773E+00
  3.69596842E-01 -3.49666607E+00  1.91201114E-01  4.46949002E-01 -3.48460402E+00
 -4.50415712E-01  2.41077697E+00 -5.15000267E+00 -5.52524974E-01 -5.20535976E-01
 -3.50837267E+00  2.25841789E+00  3.56922449E-01
Force Field                                I                0
Int Atom Types                             I   N=          11
           0           0           0           0           0           0
           0           0           0           0           0
MM charges                                 R   N=          11
  0.00000000E+00  0.00000000E+00  0.00000000E+00  0.00000000E+00  0.00000000E+00
  0.00000000E+00  0.00000000E+00  0.00000000E+00  0.00000000E+00  0.00000000E+00
  0.00000000E+00
Integer atomic weights                     I   N=          11
          12          12           1           1           1          16
          16          12           1           1           1
Real atomic weights                        R   N=          11
  1.20000000E+01  1.20000000E+01  1.00782504E+00  1.00782504E+00  1.00782504E+00
  1.59949146E+01  1.59949146E+01  1.20000000E+01  1.00782504E+00  1.00782504E+00
  1.00782504E+00
Atom fragment info                         I   N=          11
           0           0           0           0           0           0
           0           0           0           0           0
Atom residue num                           I   N=          11
           0           0           0           0           0           0
           0           0           0           0           0
Nuclear spins                              I   N=          11
           0           0           1           1           1           0
           0           0           1           1           1
Nuclear ZEff                               R   N=          11
 -3.60000000E+00 -3.60000000E+00 -1.00000000E+00 -1.00000000E+00 -1.00000000E+00
 -5.60000000E+00 -5.60000000E+00 -3.60000000E+00 -1.00000000E+00 -1.00000000E+00
 -1.00000000E+00
Nuclear ZNuc                               R   N=          11
  6.00000000E+00  6.00000000E+00  1.00000000E+00  1.00000000E+00  1.00000000E+00
  8.00000000E+00  8.00000000E+00  6.00000000E+00  1.00000000E+00  1.00000000E+00
  1.00000000E+00
Nuclear QMom                               R   N=          11
  0.00000000E+00  0.00000000E+00  0.00000000E+00  0.00000000E+00  0.00000000E+00
  0.00000000E+00  0.00000000E+00  0.00000000E+00  0.00000000E+00  0.00000000E+00
  0.00000000E+00
Nuclear GFac                               R   N=          11
  0.00000000E+00  0.00000000E+00  2.79284600E+00  2.79284600E+00  2.79284600E+00
  0.00000000E+00  0.00000000E+00  0.00000000E+00  2.79284600E+00  2.79284600E+00
  2.79284600E+00
MicOpt                                     I   N=          11
          -1          -1          -1          -1          -1          -1
          -1          -1          -1          -1          -1
Number of contracted shells                I               32
Number of primitive shells                 I               79
Pure/Cartesian d shells                    I                1
Pure/Cartesian f shells                    I                0
Highest angular momentum                   I                1
Largest degree of contraction              I                6
Shell types                                I   N=          32
           0          -1          -1          -1           0          -1
          -1          -1           0           0           0           0
           0           0           0          -1          -1          -1
           0          -1          -1          -1           0          -1
          -1          -1           0           0           0           0
           0           0
Number of primitives per shell             I   N=          32
           6           3           1           1           6           3
           1           1           3           1           3           1
           3           1           6           3           1           1
           6           3           1           1           6           3
           1           1           3           1           3           1
           3           1
Shell to atom map                          I   N=          32
           1           1           1           1           2           2
           2           2           3           3           4           4
           5           5           6           6           6           6
           7           7           7           7           8           8
           8           8           9           9          10          10
          11          11
Primitive exponents                        R   N=          79
  3.04752488E+03  4.57369518E+02  1.03948685E+02  2.92101553E+01  9.28666296E+00
  3.16392696E+00  7.86827235E+00  1.88128854E+00  5.44249258E-01  1.68714478E-01
  4.38000000E-02  3.04752488E+03  4.57369518E+02  1.03948685E+02  2.92101553E+01
  9.28666296E+00  3.16392696E+00  7.86827235E+00  1.88128854E+00  5.44249258E-01
  1.68714478E-01  4.38000000E-02  1.87311370E+01  2.82539436E+00  6.40121692E-01
  1.61277759E-01  1.87311370E+01  2.82539436E+00  6.40121692E-01  1.61277759E-01
  1.87311370E+01  2.82539436E+00  6.40121692E-01  1.61277759E-01  5.48467166E+03
  8.25234946E+02  1.88046958E+02  5.29645000E+01  1.68975704E+01  5.79963534E+00
  1.55396162E+01  3.59993359E+00  1.01376175E+00  2.70005823E-01  8.45000000E-02
  5.48467166E+03  8.25234946E+02  1.88046958E+02  5.29645000E+01  1.68975704E+01
  5.79963534E+00  1.55396162E+01  3.59993359E+00  1.01376175E+00  2.70005823E-01
  8.45000000E-02  3.04752488E+03  4.57369518E+02  1.03948685E+02  2.92101553E+01
  9.28666296E+00  3.16392696E+00  7.86827235E+00  1.88128854E+00  5.44249258E-01
  1.68714478E-01  4.38000000E-02  1.87311370E+01  2.82539436E+00  6.40121692E-01
  1.61277759E-01  1.87311370E+01  2.82539436E+00  6.40121692E-01  1.61277759E-01
  1.87311370E+01  2.82539436E+00  6.40121692E-01  1.61277759E-01
Contraction coefficients                   R   N=          79
  1.83473713E-03  1.40373228E-02  6.88426223E-02  2.32184443E-01  4.67941348E-01
  3.62311985E-01 -1.19332420E-01 -1.60854152E-01  1.14345644E+00  1.00000000E+00
  1.00000000E+00  1.83473713E-03  1.40373228E-02  6.88426223E-02  2.32184443E-01
  4.67941348E-01  3.62311985E-01 -1.19332420E-01 -1.60854152E-01  1.14345644E+00
  1.00000000E+00  1.00000000E+00  3.34946043E-02  2.34726953E-01  8.13757326E-01
  1.00000000E+00  3.34946043E-02  2.34726953E-01  8.13757326E-01  1.00000000E+00
  3.34946043E-02  2.34726953E-01  8.13757326E-01  1.00000000E+00  1.83107443E-03
  1.39501722E-02  6.84450781E-02  2.32714336E-01  4.70192898E-01  3.58520853E-01
 -1.10777550E-01 -1.48026263E-01  1.13076702E+00  1.00000000E+00  1.00000000E+00
  1.83107443E-03  1.39501722E-02  6.84450781E-02  2.32714336E-01  4.70192898E-01
  3.58520853E-01 -1.10777550E-01 -1.48026263E-01  1.13076702E+00  1.00000000E+00
  1.00000000E+00  1.83473713E-03  1.40373228E-02  6.88426223E-02  2.32184443E-01
  4.67941348E-01  3.62311985E-01 -1.19332420E-01 -1.60854152E-01  1.14345644E+00
  1.00000000E+00  1.00000000E+00  3.34946043E-02  2.34726953E-01  8.13757326E-01
  1.00000000E+00  3.34946043E-02  2.34726953E-01  8.13757326E-01  1.00000000E+00
  3.34946043E-02  2.34726953E-01  8.13757326E-01  1.00000000E+00
P(S=P) Contraction coefficients            R   N=          79
  0.00000000E+00  0.00000000E+00  0.00000000E+00  0.00000000E+00  0.00000000E+00
  0.00000000E+00  6.89990666E-02  3.16423961E-01  7.44308291E-01  1.00000000E+00
  1.00000000E+00  0.00000000E+00  0.00000000E+00  0.00000000E+00  0.00000000E+00
  0.00000000E+00  0.00000000E+00  6.89990666E-02  3.16423961E-01  7.44308291E-01
  1.00000000E+00  1.00000000E+00  0.00000000E+00  0.00000000E+00  0.00000000E+00
  0.00000000E+00  0.00000000E+00  0.00000000E+00  0.00000000E+00  0.00000000E+00
  0.00000000E+00  0.00000000E+00  0.00000000E+00  0.00000000E+00  0.00000000E+00
  0.00000000E+00  0.00000000E+00  0.00000000E+00  0.00000000E+00  0.00000000E+00
  7.08742682E-02  3.39752839E-01  7.27158577E-01  1.00000000E+00  1.00000000E+00
  0.00000000E+00  0.00000000E+00  0.00000000E+00  0.00000000E+00  0.00000000E+00
  0.00000000E+00  7.08742682E-02  3.39752839E-01  7.27158577E-01  1.00000000E+00
  1.00000000E+00  0.00000000E+00  0.00000000E+00  0.00000000E+00  0.00000000E+00
  0.00000000E+00  0.00000000E+00  6.89990666E-02  3.16423961E-01  7.44308291E-01
  1.00000000E+00  1.00000000E+00  0.00000000E+00  0.00000000E+00  0.00000000E+00
  0.00000000E+00  0.00000000E+00  0.00000000E+00  0.00000000E+00  0.00000000E+00
  0.00000000E+00  0.00000000E+00  0.00000000E+00  0.00000000E+00
Coordinates of each shell                  R   N=          96
  1.83353730E+00  2.38665973E+00 -3.06792786E-02  1.83353730E+00  2.38665973E+00
 -3.06792786E-02  1.83353730E+00  2.38665973E+00 -3.06792786E-02  1.83353730E+00
  2.38665973E+00 -3.06792786E-02  1.08947810E+00 -3.59197290E-01 -6.35869695E-02
  1.08947810E+00 -3.59197290E-01 -6.35869695E-02  1.08947810E+00 -3.59197290E-01
 -6.35869695E-02  1.08947810E+00 -3.59197290E-01 -6.35869695E-02  1.40292929E+00
  3.24422128E+00 -1.86150076E+00  1.40292929E+00  3.24422128E+00 -1.86150076E+00
  3.84954251E+00  2.54190616E+00  3.58396435E-01  3.84954251E+00  2.54190616E+00
  3.58396435E-01  7.96191164E-01  3.43501188E+00  1.42204769E+00  7.96191164E-01
  3.43501188E+00  1.42204769E+00 -1.34147511E+00 -8.64797005E-01 -9.04872257E-01
 -1.34147511E+00 -8.64797005E-01 -9.04872257E-01 -1.34147511E+00 -8.64797005E-01
 -9.04872257E-01 -1.34147511E+00 -8.64797005E-01 -9.04872257E-01  2.53350266E+00
 -2.10877773E+00  3.69596842E-01  2.53350266E+00 -2.10877773E+00  3.69596842E-01
  2.53350266E+00 -2.10877773E+00  3.69596842E-01  2.53350266E+00 -2.10877773E+00
  3.69596842E-01 -3.49666607E+00  1.91201114E-01  4.46949002E-01 -3.49666607E+00
  1.91201114E-01  4.46949002E-01 -3.49666607E+00  1.91201114E-01  4.46949002E-01
 -3.49666607E+00  1.91201114E-01  4.46949002E-01 -3.48460402E+00 -4.50415712E-01
  2.41077697E+00 -3.48460402E+00 -4.50415712E-01  2.41077697E+00 -5.15000267E+00
 -5.52524974E-01 -5.20535976E-01 -5.15000267E+00 -5.52524974E-01 -5.20535976E-01
 -3.50837267E+00  2.25841789E+00  3.56922449E-01 -3.50837267E+00  2.25841789E+00
  3.56922449E-01
Constraint Structure                       R   N=          33
  1.83353730E+00  2.38665973E+00 -3.06792786E-02  1.08947810E+00 -3.59197290E-01
 -6.35869695E-02  1.40292929E+00  3.24422128E+00 -1.86150076E+00  3.84954251E+00
  2.54190616E+00  3.58396435E-01  7.96191164E-01  3.43501188E+00  1.42204769E+00
 -1.34147511E+00 -8.64797005E-01 -9.04872257E-01  2.53350266E+00 -2.10877773E+00
  3.69596842E-01 -3.49666607E+00  1.91201114E-01  4.46949002E-01 -3.48460402E+00
 -4.50415712E-01  2.41077697E+00 -5.15000267E+00 -5.52524974E-01 -5.20535976E-01
 -3.50837267E+00  2.25841789E+00  3.56922449E-01
Num ILSW                                   I              100
ILSW                                       I   N=         100
           0           1           0           0           2           0
           0           0           0           0        4639          -1
           0           0           0           0           2           0
           0           0           0           0           1           0
           1           0           0           0           0           0
           0           0      100000           0          -1           0
           0           0           0           0           0           0
           0           0           0           1           0           0
           0           0           1           0           0           0
           0           0         121          41           0           0
           0           0          58           0           0           0
           0           0           0          11           0           0
           0           0           0           0           0           0
           0           0           0           0           0           0
           0           0           0           0           0           0
           0           0           0           0           0           0
           0           0           0           0
Num RLSW                                   I               41
RLSW                                       R   N=          41
  1.00000000E+00  1.00000000E+00  1.00000000E+00  1.00000000E+00  1.00000000E+00
  0.00000000E+00  2.00000000E-01  2.22036000E-01  0.00000000E+00  7.77964000E-01
  0.00000000E+00  2.00000000E-01  0.00000000E+00  0.00000000E+00  1.00000000E+00
  0.00000000E+00  0.00000000E+00  1.00000000E+00  0.00000000E+00  0.00000000E+00
  0.00000000E+00  0.00000000E+00  1.00000000E+00  0.00000000E+00  0.00000000E+00
  0.00000000E+00  0.00000000E+00  1.00000000E+00  0.00000000E+00  0.00000000E+00
  0.00000000E+00  0.00000000E+00  1.00000000E+00  0.00000000E+00  0.00000000E+00
  0.00000000E+00  0.00000000E+00  0.00000000E+00  1.00000000E+00  1.00000000E+00
  0.00000000E+00
MxBond                                     I                4
NBond                                      I   N=          11
           4           3           1           1           1           2
           1           4           1           1           1
IBond                                      I   N=          44
           2           3           4           5           1           6
           7           0           1           0           0           0
           1           0           0           0           1           0
           0           0           2           8           0           0
           2           0           0           0           6           9
          10          11           8           0           0           0
           8           0           0           0           8           0
           0           0
RBond                                      R   N=          44
  1.00000000E+00  1.00000000E+00  1.00000000E+00  1.00000000E+00  1.00000000E+00
  1.50000000E+00  2.00000000E+00  0.00000000E+00  1.00000000E+00  0.00000000E+00
  0.00000000E+00  0.00000000E+00  1.00000000E+00  0.00000000E+00  0.00000000E+00
  0.00000000E+00  1.00000000E+00  0.00000000E+00  0.00000000E+00  0.00000000E+00
  1.50000000E+00  1.00000000E+00  0.00000000E+00  0.00000000E+00  2.00000000E+00
  0.00000000E+00  0.00000000E+00  0.00000000E+00  1.00000000E+00  1.00000000E+00
  1.00000000E+00  1.00000000E+00  1.00000000E+00  0.00000000E+00  0.00000000E+00
  0.00000000E+00  1.00000000E+00  0.00000000E+00  0.00000000E+00  0.00000000E+00
  1.00000000E+00  0.00000000E+00  0.00000000E+00  0.00000000E+00
Virial Ratio                               R      2.005731469228520E+00
SCF Energy                                 R     -2.682014293413093E+02
Total Energy                               R     -2.682014293413093E+02
RMS Force                                  R      1.992151969441208E-03
RMS Density                                R      3.682325304879343E-09
External E-field                           R   N=          35
  0.00000000E+00  0.00000000E+00  0.00000000E+00  0.00000000E+00  0.00000000E+00
  0.00000000E+00  0.00000000E+00  0.00000000E+00  0.00000000E+00  0.00000000E+00
  0.00000000E+00  0.00000000E+00  0.00000000E+00  0.00000000E+00  0.00000000E+00
  0.00000000E+00  0.00000000E+00  0.00000000E+00  0.00000000E+00  0.00000000E+00
  0.00000000E+00  0.00000000E+00  0.00000000E+00  0.00000000E+00  0.00000000E+00
  0.00000000E+00  0.00000000E+00  0.00000000E+00  0.00000000E+00  0.00000000E+00
  0.00000000E+00  0.00000000E+00  0.00000000E+00  0.00000000E+00  0.00000000E+00
IOpCl                                      I                0
IROHF                                      I                0
Alpha Orbital Energies                     R   N=          77
 -1.93111111E+01 -1.92821536E+01 -1.04538464E+01 -1.03684634E+01 -1.03191234E+01
 -1.21527432E+00 -1.13942776E+00 -8.72521566E-01 -8.31521169E-01 -6.68771395E-01
 -6.01248648E-01 -5.86012769E-01 -5.75451666E-01 -5.37515370E-01 -5.20452066E-01
 -5.09105335E-01 -4.74975570E-01 -4.25520774E-01 -3.84989104E-01 -3.65068971E-01
  4.42299430E-02  6.44800328E-02  7.72451006E-02  9.48630896E-02  9.64066662E-02
  1.17928832E-01  1.25144459E-01  1.28877944E-01  1.45813257E-01  1.47970673E-01
  1.63283216E-01  1.71296226E-01  1.93254636E-01  2.17741159E-01  2.38682678E-01
  2.72031252E-01  2.72318373E-01  2.86884527E-01  2.97205305E-01  3.22583450E-01
  3.29288694E-01  3.50800794E-01  3.63157759E-01  3.76155472E-01  3.88735730E-01
  3.98445503E-01  4.08930651E-01  4.27888821E-01  4.42835335E-01  4.55964015E-01
  5.64843031E-01  6.87784462E-01  7.20098941E-01  7.39093498E-01  7.60827235E-01
  7.82405277E-01  7.98086693E-01  8.56176983E-01  9.26162246E-01  9.36119796E-01
  1.07072306E+00  1.10302021E+00  1.10816695E+00  1.14896871E+00  1.16544698E+00
  1.20852644E+00  1.23909451E+00  1.29354927E+00  1.34007299E+00  1.37864959E+00
  1.42803966E+00  1.43663386E+00  1.44357699E+00  1.49472500E+00  1.61569617E+00
  1.91230466E+00  2.01021871E+00
Alpha MO coefficients                      R   N=        5929
 -2.26068611E-05 -4.25206854E-04  1.02709430E-04  1.22195255E-04  3.02517068E-05
  1.38143003E-03  1.38584860E-03 -5.30375542E-04  3.48677681E-04  1.58458577E-02
 -2.29452073E-03 -3.46624312E-03 -2.22977279E-04  8.15627890E-05  3.65633143E-04
 -3.99459022E-04 -2.36903030E-05 -7.24464481E-05  1.58160725E-03 -5.10861142E-03
 -2.97104050E-04 -1.39915524E-03 -1.95989803E-02  1.86771773E-03 -5.31258937E-03
  4.58937533E-04  7.59597834E-05 -4.76747231E-04 -1.92118400E-04 -7.81904692E-04
  1.30418175E-04 -5.18398945E-04  9.95228265E-01  2.97476691E-02  4.01119266E-04
  1.16026993E-03  1.37676712E-03 -2.10821331E-02 -1.40132241E-03 -2.07094452E-03
 -2.42003415E-03  1.04831545E-02  2.48771635E-04  1.13841595E-03  4.91992723E-04
 -6.99826304E-04 -3.07036630E-04  4.23883016E-05 -1.04686254E-04  1.94938080E-05
  1.24226540E-03  4.17656868E-04  9.74252847E-04  3.56053856E-05  1.31470615E-03
 -2.34576218E-04  7.75637206E-04  1.37754256E-04 -2.58411785E-06  6.15899475E-05
  6.20603679E-04 -2.06333367E-04 -2.40034402E-04  3.15514579E-03  8.05180780E-04
 -4.03554755E-04 -6.21289009E-04 -5.18027141E-04 -9.16057111E-04  1.79627195E-04
  7.46680182E-04 -2.88752520E-04 -5.84784904E-04 -2.11724314E-04 -1.00229984E-03
 -2.92267145E-04 -8.36416177E-04 -2.22341114E-05 -3.80764754E-04  2.66567019E-05
  1.31051663E-04 -2.61524616E-05  2.83757280E-03 -2.51410732E-03 -5.79743026E-04
 -3.46751064E-04  1.04902281E-02  1.71017950E-04 -2.84135677E-03  2.99337864E-04
  2.30389789E-04  2.43885860E-04  5.27386919E-06  1.53635360E-04  3.89094652E-05
  8.06363842E-03  4.86183794E-03 -8.19322689E-03  1.34481647E-03 -1.37464597E-02
 -3.10560048E-03 -1.81362428E-03 -1.03619371E-03 -1.39012103E-04 -3.30697650E-04
  1.62557798E-04  3.88584113E-04 -1.21973070E-04 -5.81022729E-04  6.94101898E-04
 -2.06787910E-04 -1.14337104E-04 -8.62103012E-05 -4.42893854E-05  4.40620936E-04
 -2.03593573E-04  1.24504886E-03 -8.85028629E-05 -1.55414446E-03 -1.65873442E-03
  4.41977054E-04 -7.67006823E-04  9.95234137E-01  2.98100183E-02 -1.44131948E-03
  1.72852947E-03 -4.30565211E-04 -2.35518486E-02  3.81590516E-03 -4.25409200E-03
  1.14272586E-03  7.91543426E-03 -5.74584229E-04  6.11241423E-04 -2.29663011E-05
 -2.67827516E-05 -2.78437744E-04 -9.27825599E-05 -3.39683122E-05  1.29347778E-05
  6.40834493E-04  6.46561765E-04  1.62709886E-04  6.25124328E-04 -3.44892914E-04
  4.73809865E-05 -9.78754016E-05  5.88864711E-04 -3.13384259E-05 -4.50983673E-04
  6.57515772E-05  1.29924804E-04 -3.79280432E-05 -1.87749403E-04  7.13955067E-04
 -7.96423938E-04 -9.69816153E-05  3.16012683E-04 -1.49098984E-05  6.48184973E-03
  3.45655181E-04 -2.75568998E-03  2.64620295E-05  1.71535642E-03 -1.75849989E-04
  6.20242954E-04  1.09370571E-04  9.95551933E-01  3.67896317E-02 -2.03845591E-04
 -1.18149103E-03 -1.63890845E-04 -3.39264553E-02  1.61922845E-04 -5.86647699E-04
  5.13518709E-04 -1.10324693E-02  3.10339359E-03 -1.44070123E-03  2.32991690E-04
 -1.71794277E-04 -2.13452814E-04 -1.46110589E-04 -1.55975881E-03 -1.83124365E-04
  7.35050330E-05  4.61070808E-05  4.44081903E-04 -1.67716093E-04 -5.12752030E-05
 -6.66604006E-05 -1.38288393E-04 -3.26127186E-04  5.91916149E-05 -1.94778716E-04
  9.35359543E-03  5.97624116E-03  2.52740253E-03  1.50624085E-03 -1.52561236E-04
 -3.48122666E-05  3.18731416E-04 -3.94943679E-04  1.07691107E-04  6.95808579E-04
  3.30278224E-04 -1.29878154E-05 -1.13310495E-06  8.66950811E-03 -2.89297111E-03
  4.16739439E-03 -6.94667330E-04 -1.25098493E-04 -4.86988020E-04 -1.04251951E-04
  1.34151588E-05 -1.01132094E-04  8.33026880E-04  7.48089338E-04  2.08689047E-04
  1.13995228E-03  5.55133912E-03  1.61350359E-03 -6.61170498E-04 -6.32877087E-04
 -1.81746916E-04 -1.43174212E-03  1.24805148E-05  1.29360840E-03 -2.00167001E-05
 -1.24151940E-03 -9.77653726E-06  2.17673479E-04  9.40340742E-05  1.06285964E-04
 -3.95914332E-05 -2.29174528E-03  1.36786870E-03  8.42421976E-04  3.11630037E-04
  6.73902838E-03 -3.71283917E-04 -1.39611979E-03  6.57662507E-04  9.11044356E-06
 -5.23818126E-04  8.11506256E-05 -9.62271336E-05  3.51367929E-05  8.25814001E-05
 -1.64916030E-03  2.60454907E-03 -6.83497754E-04  7.32119768E-04 -3.44051134E-03
 -3.13877062E-03 -1.49428769E-03  2.42573266E-04 -3.31177196E-04 -2.16434707E-05
 -6.40327294E-04  4.53316098E-05  4.12096388E-05  5.68238300E-05  5.15168955E-04
  7.85220867E-05  2.91044803E-05 -1.01823826E-04  1.89744553E-04 -7.37987398E-04
 -3.45849688E-04  5.23857274E-04  1.35496360E-02 -6.70416789E-03  3.73372205E-03
  4.09798303E-03 -1.76297537E-05 -2.22156720E-04 -3.89091650E-06  6.92665052E-06
  5.24322804E-05  1.77054565E-03 -4.20515440E-04  3.24436242E-04 -3.53541917E-04
  1.27873100E-03  6.67210045E-05  8.72831381E-04 -2.75599442E-04  9.95543451E-01
  3.71431503E-02  9.67750688E-04 -3.67518562E-04 -5.12305769E-04 -3.58551309E-02
 -2.85253822E-03  1.33323832E-03  1.47703876E-03 -1.29432033E-02 -4.06194947E-03
  1.31068282E-03  1.59664619E-03 -5.13249570E-04  5.87973986E-03 -4.93078704E-04
  5.41771619E-03 -5.89873934E-04  5.72197000E-03  9.95477927E-01  3.75776793E-02
 -2.94074179E-04 -1.80447494E-04 -1.82496229E-07 -3.91462190E-02  1.45418904E-03
  3.56041324E-03  1.40819863E-04 -9.89781578E-03  3.00526022E-04  1.90246563E-03
  1.09697553E-04 -6.97311016E-04 -8.17392435E-04 -1.97056600E-04 -7.03690008E-04
  6.96052996E-06  6.00448535E-03  3.11398476E-03  8.47262226E-03  2.51072018E-04
  7.85026980E-03  9.81496924E-04  1.87296277E-03  2.33691387E-04 -4.94385454E-04
  7.64075263E-03 -5.00040006E-04  7.00601241E-03 -5.30592035E-04  7.65126123E-03
 -1.27028868E-05 -3.61586200E-04 -1.73902554E-04 -9.57487539E-05 -9.26523303E-05
  8.04669671E-04  1.01340530E-03 -1.76461822E-04  6.09490459E-04  5.11449926E-03
  1.31559140E-04  9.58973754E-04  1.28065762E-03 -1.04969062E-05 -2.94011697E-04
  9.68590257E-05 -7.82401674E-05  1.89026161E-05  9.82602786E-04 -1.10882094E-03
 -2.04148491E-04 -2.17292124E-04  1.63922266E-03 -7.97007146E-04  7.75582185E-04
 -3.73840262E-04  8.30979660E-05  1.58373645E-04 -1.34208665E-04 -1.09730117E-04
  8.38411072E-06 -1.60411903E-03 -3.24083713E-04  3.00020839E-04 -1.86520717E-04
 -1.97089563E-03 -1.14102642E-03 -1.05489480E-04  6.41781673E-05  1.26693060E-04
 -2.25600770E-05  3.81001386E-05 -1.19946255E-04 -2.02648275E-04  5.96510528E-04
 -1.85242622E-02  3.67888518E-02 -7.26510244E-03 -2.58879746E-02 -5.86705163E-04
 -3.91136576E-03  2.37606707E-03  8.40294248E-03 -6.78710454E-04 -1.42024196E-01
  7.96959450E-03  3.40415385E-02 -3.36810774E-03 -1.23638348E-01  2.53448337E-01
  4.97599502E-03 -1.09546445E-01  5.09410094E-04  4.64751895E-02 -3.03950454E-03
  5.52702948E-02  5.62084185E-04  1.54939228E-01  1.72468202E-02  4.76024972E-02
  7.19442830E-03  5.97669244E-03 -1.65363663E-04  5.86959358E-03  2.37878977E-03
  5.31654176E-03  1.92594040E-03 -1.35237514E-01  2.89858235E-01  4.75483125E-02
  3.93530419E-02  6.19222235E-02  3.17587995E-01  2.34845728E-02  2.59186260E-02
  4.25393531E-02 -3.86344216E-02  1.36021807E-04 -1.79778773E-02 -8.10463022E-03
 -1.29679210E-01  2.84676681E-01 -8.84254880E-02  9.73129151E-02 -2.65176237E-02
  2.75881016E-01 -3.55611342E-02  3.60127244E-02 -1.04696596E-02 -1.28997576E-02
 -5.06178612E-03 -6.62063110E-03 -3.21205681E-03 -3.62728923E-02  6.99769592E-02
  4.33728189E-02 -1.75608518E-02 -2.19238054E-02  2.15850176E-02 -8.55275936E-03
  2.39991406E-03  3.08730913E-04  1.44456297E-02  9.96412631E-03 -8.57379397E-04
 -6.03486944E-03  1.17028317E-02  4.11670469E-03  9.93409651E-03  3.58831705E-04
  1.16466838E-02  2.44849728E-03  2.00549723E-03 -4.52621162E-03 -1.07843949E-02
  7.27863084E-03 -3.23408823E-03  1.10401777E-02 -2.64630824E-02 -1.37937810E-03
 -5.02589906E-03 -8.54527857E-02  1.54062438E-02  1.69669966E-02  2.05193273E-04
  3.42195538E-02 -7.48172299E-02 -1.89829099E-01  1.07226424E-01 -5.48697076E-02
  3.11196829E-03  6.67140899E-02 -4.85371055E-02  1.91140874E-02  8.75106908E-02
 -9.35497624E-03  3.80776860E-02  1.10375817E-03  5.24554567E-04  4.27531485E-04
 -2.68093585E-03  9.05475526E-03 -1.79545023E-04  5.62803003E-04 -1.49081456E-01
  3.21497354E-01 -3.25591540E-03  5.96342461E-02  6.30549949E-02  3.74055499E-01
  6.78158300E-03  4.56356620E-02  4.31730551E-02 -1.46799008E-02  1.03141343E-02
 -4.77444888E-03 -6.01061976E-03  1.43678752E-01 -3.15866972E-01  7.19390274E-02
 -1.03743275E-01  2.15390720E-02 -3.30028901E-01  3.08042398E-02 -4.63156521E-02
  9.95312474E-03 -3.31468498E-02  9.63624849E-03 -1.98294148E-02  6.75445335E-04
 -5.48821609E-02  1.01243844E-01  5.82119161E-02 -2.53604704E-02 -3.33381829E-02
  5.79278715E-02  3.75024036E-03  6.10538097E-03  1.02136580E-02  1.30133488E-02
  9.02531669E-03 -3.65626889E-03 -2.96972922E-03  1.77328448E-02 -7.65909118E-03
  1.81188688E-02  7.45927978E-03  1.74666689E-02 -3.65836156E-03 -1.71659092E-01
  3.21525946E-01 -2.20008098E-02 -4.27153304E-02 -3.44511589E-03  3.35420820E-01
 -1.01664813E-02 -7.29191927E-03 -2.24635907E-03  1.09378061E-01 -4.77745439E-03
 -2.78277758E-02  1.13999122E-03 -7.59857211E-02  1.60349765E-01 -2.29829782E-02
  1.81536342E-01 -2.42495798E-02  1.17674570E-01 -2.92815671E-03  2.18659090E-02
 -1.47270712E-03 -5.98068008E-02 -2.92897318E-02 -1.72494636E-02 -6.09896780E-03
  1.05221940E-01  2.52183138E-03  9.82760653E-02  3.93813119E-03  1.04590102E-01
  5.02783548E-03  1.97151908E-02 -4.47070115E-02  1.13019382E-01  2.06576633E-02
 -1.85428189E-02 -5.58367416E-02  4.98362250E-02  5.84317059E-03 -1.11830453E-02
  1.69444704E-03 -2.05996106E-02  1.17827076E-03  2.67903720E-03  4.96492673E-02
 -1.14773364E-01  2.13174730E-02  1.24411108E-02  1.82846060E-03 -1.23032467E-01
  5.82068007E-03  4.65428081E-03 -5.48767239E-04 -4.88723117E-03  7.17898071E-03
 -7.12621982E-03  9.99584513E-04  6.45536882E-02 -1.27621764E-01 -8.43021943E-03
  2.22559602E-02  1.69274695E-02 -1.18674693E-01  5.85682268E-03  3.69662801E-03
  1.14537032E-03 -4.32204441E-02 -1.33328229E-02  3.46865260E-03  7.47617451E-03
 -3.77299124E-02 -3.94171547E-03 -4.40382569E-02 -5.06917612E-03 -3.13754981E-02
 -1.27435626E-03 -7.41304906E-02  1.36711159E-01  8.83303267E-03  6.74018570E-03
  1.03452856E-02  1.63704332E-01  3.08439111E-05 -3.99306561E-03  2.37089763E-03
  7.20104217E-02 -7.78348862E-03 -1.66820258E-02 -4.12425184E-03  2.54488517E-02
 -5.97118632E-02  1.41573069E-01  7.96819671E-02  6.40350598E-02 -5.29993282E-02
 -4.71849769E-03  9.12812108E-03  6.48723297E-03 -1.18633347E-01  1.44949835E-02
 -1.53938247E-02  6.52574098E-03  4.64855673E-02  1.14277043E-03  5.33156868E-02
  7.99638680E-03  5.48521984E-02  9.43057623E-03  4.76740951E-02 -1.08401452E-01
 -2.17230105E-01  3.55560078E-02  2.50241151E-02 -1.53507088E-01 -9.53855291E-02
  8.83792131E-03  3.46023197E-03 -3.77027005E-02  3.14495382E-02 -7.97271520E-03
 -9.94865969E-03 -1.79338410E-02  3.97125749E-02  3.24360782E-02  2.43013873E-02
  1.60747509E-02  5.56751483E-02  1.02657903E-02  1.58813963E-02  5.41104821E-03
  1.77904054E-02 -5.00732812E-05  5.11808235E-03  2.02467401E-04 -1.65702597E-01
  3.22442471E-01 -2.41429712E-02  6.42262761E-03  2.26718129E-03  3.52475300E-01
  1.31700865E-03  8.21157018E-03  6.45488096E-03  7.15948279E-02  2.04749070E-02