 Entering Gaussian System, Link 0=/opt/cluster/programs/g09_d.01/g09//g09
 Input=/home/unibas/boittier/RDKit_G2/N.pdb/SCAN_1_2_6_8_S_17_20.0/9_SCAN_1_2_6_8_F/9_SCAN_N.pdb.com
 Output=/scratch/boittier/9_SCAN_N.pdb/9_SCAN_N.pdb.out
 Initial command:
 /opt/cluster/programs/g09_d.01/g09/l1.exe "/scratch/boittier/9_SCAN_N.pdb/Gau-148127.inp" -scrdir="/scratch/boittier/9_SCAN_N.pdb/"
 Entering Link 1 = /opt/cluster/programs/g09_d.01/g09/l1.exe PID=    148128.
  
 Copyright (c) 1988,1990,1992,1993,1995,1998,2003,2009,2013,
            Gaussian, Inc.  All Rights Reserved.
  
 This is part of the Gaussian(R) 09 program.  It is based on
 the Gaussian(R) 03 system (copyright 2003, Gaussian, Inc.),
 the Gaussian(R) 98 system (copyright 1998, Gaussian, Inc.),
 the Gaussian(R) 94 system (copyright 1995, Gaussian, Inc.),
 the Gaussian 92(TM) system (copyright 1992, Gaussian, Inc.),
 the Gaussian 90(TM) system (copyright 1990, Gaussian, Inc.),
 the Gaussian 88(TM) system (copyright 1988, Gaussian, Inc.),
 the Gaussian 86(TM) system (copyright 1986, Carnegie Mellon
 University), and the Gaussian 82(TM) system (copyright 1983,
 Carnegie Mellon University). Gaussian is a federally registered
 trademark of Gaussian, Inc.
  
 This software contains proprietary and confidential information,
 including trade secrets, belonging to Gaussian, Inc.
  
 This software is provided under written license and may be
 used, copied, transmitted, or stored only in accord with that
 written license.
  
 The following legend is applicable only to US Government
 contracts under FAR:
  
                    RESTRICTED RIGHTS LEGEND
  
 Use, reproduction and disclosure by the US Government is
 subject to restrictions as set forth in subparagraphs (a)
 and (c) of the Commercial Computer Software - Restricted
 Rights clause in FAR 52.227-19.
  
 Gaussian, Inc.
 340 Quinnipiac St., Bldg. 40, Wallingford CT 06492
  
  
 ---------------------------------------------------------------
 Warning -- This program may not be used in any manner that
 competes with the business of Gaussian, Inc. or will provide
 assistance to any competitor of Gaussian, Inc.  The licensee
 of this program is prohibited from giving any competitor of
 Gaussian, Inc. access to this program.  By using this program,
 the user acknowledges that Gaussian, Inc. is engaged in the
 business of creating and licensing software in the field of
 computational chemistry and represents and warrants to the
 licensee that it is not a competitor of Gaussian, Inc. and that
 it will not use this program in any manner prohibited above.
 ---------------------------------------------------------------
  

 Cite this work as:
 Gaussian 09, Revision D.01,
 M. J. Frisch, G. W. Trucks, H. B. Schlegel, G. E. Scuseria, 
 M. A. Robb, J. R. Cheeseman, G. Scalmani, V. Barone, B. Mennucci, 
 G. A. Petersson, H. Nakatsuji, M. Caricato, X. Li, H. P. Hratchian, 
 A. F. Izmaylov, J. Bloino, G. Zheng, J. L. Sonnenberg, M. Hada, 
 M. Ehara, K. Toyota, R. Fukuda, J. Hasegawa, M. Ishida, T. Nakajima, 
 Y. Honda, O. Kitao, H. Nakai, T. Vreven, J. A. Montgomery, Jr., 
 J. E. Peralta, F. Ogliaro, M. Bearpark, J. J. Heyd, E. Brothers, 
 K. N. Kudin, V. N. Staroverov, T. Keith, R. Kobayashi, J. Normand, 
 K. Raghavachari, A. Rendell, J. C. Burant, S. S. Iyengar, J. Tomasi, 
 M. Cossi, N. Rega, J. M. Millam, M. Klene, J. E. Knox, J. B. Cross, 
 V. Bakken, C. Adamo, J. Jaramillo, R. Gomperts, R. E. Stratmann, 
 O. Yazyev, A. J. Austin, R. Cammi, C. Pomelli, J. W. Ochterski, 
 R. L. Martin, K. Morokuma, V. G. Zakrzewski, G. A. Voth, 
 P. Salvador, J. J. Dannenberg, S. Dapprich, A. D. Daniels, 
 O. Farkas, J. B. Foresman, J. V. Ortiz, J. Cioslowski, 
 and D. J. Fox, Gaussian, Inc., Wallingford CT, 2013.
 
 ******************************************
 Gaussian 09:  ES64L-G09RevD.01 24-Apr-2013
                26-May-2021 
 ******************************************
 %chk=/home/unibas/boittier/RDKit_G2/N.pdb/SCAN_1_2_6_8_S_17_20.0/9_SCAN_1_2_6_8_
 F/N.pdb.chk
 %nproc=8
 Will use up to    8 processors via shared memory.
 %mem=16GB
 -----------------------------
 #p wB97XD/6-31+G Opt=ModRedun
 -----------------------------
 1/14=-1,18=120,19=15,26=3,38=1/1,3;
 2/9=110,12=2,17=6,18=5,40=1/2;
 3/5=1,6=6,7=10,11=2,16=1,25=1,30=1,71=1,74=-58/1,2,3;
 4//1;
 5/5=2,38=5/2;
 6/7=2,8=2,9=2,10=2,28=1/1;
 7//1,2,3,16;
 1/14=-1,18=20,19=15,26=3/3(2);
 2/9=110/2;
 99//99;
 2/9=110/2;
 3/5=1,6=6,7=10,11=2,16=1,25=1,30=1,71=1,74=-58/1,2,3;
 4/5=5,16=3,69=1/1;
 5/5=2,38=5/2;
 7//1,2,3,16;
 1/14=-1,18=20,19=15,26=3/3(-5);
 2/9=110/2;
 6/7=2,8=2,9=2,10=2,19=2,28=1/1;
 99/9=1/99;
 Leave Link    1 at Wed May 26 09:20:48 2021, MaxMem=  2147483648 cpu:         0.2
 (Enter /opt/cluster/programs/g09_d.01/g09/l101.exe)
 -----
 N.pdb
 -----
 Symbolic Z-matrix:
 Charge =  0 Multiplicity = 1
 C                     2.30946   1.00461   0.09613 
 C                     1.46855  -0.2039   -0.19726 
 H                     2.62034   1.48054  -0.84212 
 H                     3.19415   0.71561   0.66418 
 H                     1.73005   1.74325   0.66129 
 C                     0.14527   0.03203  -0.93342 
 O                     1.81271  -1.34982   0.09683 
 C                    -1.0453    0.03448  -0.0127 
 H                    -0.00109  -0.77044  -1.66064 
 H                     0.15371   0.99135  -1.45558 
 F                    -1.24576  -1.17241   0.63083 
 F                    -2.21587   0.32415  -0.7091 
 F                    -0.92355   1.00768   0.98291 
 
 The following ModRedundant input section has been read:
 D       1       2       6       8 F                                           
 
 NAtoms=     13 NQM=       13 NQMF=       0 NMMI=      0 NMMIF=      0
                NMic=       0 NMicF=      0.
                    Isotopes and Nuclear Properties:
 (Nuclear quadrupole moments (NQMom) in fm**2, nuclear magnetic moments (NMagM)
  in nuclear magnetons)

  Atom         1           2           3           4           5           6           7           8           9          10
 IAtWgt=          12          12           1           1           1          12          16          12           1           1
 AtmWgt=  12.0000000  12.0000000   1.0078250   1.0078250   1.0078250  12.0000000  15.9949146  12.0000000   1.0078250   1.0078250
 NucSpn=           0           0           1           1           1           0           0           0           1           1
 AtZEff=   0.0000000   0.0000000   0.0000000   0.0000000   0.0000000   0.0000000   0.0000000   0.0000000   0.0000000   0.0000000
 NQMom=    0.0000000   0.0000000   0.0000000   0.0000000   0.0000000   0.0000000   0.0000000   0.0000000   0.0000000   0.0000000
 NMagM=    0.0000000   0.0000000   2.7928460   2.7928460   2.7928460   0.0000000   0.0000000   0.0000000   2.7928460   2.7928460
 AtZNuc=   6.0000000   6.0000000   1.0000000   1.0000000   1.0000000   6.0000000   8.0000000   6.0000000   1.0000000   1.0000000

  Atom        11          12          13
 IAtWgt=          19          19          19
 AtmWgt=  18.9984033  18.9984033  18.9984033
 NucSpn=           1           1           1
 AtZEff=   0.0000000   0.0000000   0.0000000
 NQMom=    0.0000000   0.0000000   0.0000000
 NMagM=    2.6288670   2.6288670   2.6288670
 AtZNuc=   9.0000000   9.0000000   9.0000000
 Leave Link  101 at Wed May 26 09:21:02 2021, MaxMem=  2147483648 cpu:         4.1
 (Enter /opt/cluster/programs/g09_d.01/g09/l103.exe)

 GradGradGradGradGradGradGradGradGradGradGradGradGradGradGradGradGradGrad
 Berny optimization.
 Initialization pass.
                           ----------------------------
                           !    Initial Parameters    !
                           ! (Angstroms and Degrees)  !
 --------------------------                            --------------------------
 ! Name  Definition              Value          Derivative Info.                !
 --------------------------------------------------------------------------------
 ! R1    R(1,2)                  1.5012         estimate D2E/DX2                !
 ! R2    R(1,3)                  1.097          estimate D2E/DX2                !
 ! R3    R(1,4)                  1.0904         estimate D2E/DX2                !
 ! R4    R(1,5)                  1.0958         estimate D2E/DX2                !
 ! R5    R(2,6)                  1.5325         estimate D2E/DX2                !
 ! R6    R(2,7)                  1.2321         estimate D2E/DX2                !
 ! R7    R(6,8)                  1.5051         estimate D2E/DX2                !
 ! R8    R(6,9)                  1.0928         estimate D2E/DX2                !
 ! R9    R(6,10)                 1.0922         estimate D2E/DX2                !
 ! R10   R(8,11)                 1.3823         estimate D2E/DX2                !
 ! R11   R(8,12)                 1.3925         estimate D2E/DX2                !
 ! R12   R(8,13)                 1.3976         estimate D2E/DX2                !
 ! A1    A(2,1,3)              109.9282         estimate D2E/DX2                !
 ! A2    A(2,1,4)              110.0563         estimate D2E/DX2                !
 ! A3    A(2,1,5)              110.3193         estimate D2E/DX2                !
 ! A4    A(3,1,4)              109.3071         estimate D2E/DX2                !
 ! A5    A(3,1,5)              107.3682         estimate D2E/DX2                !
 ! A6    A(4,1,5)              109.8152         estimate D2E/DX2                !
 ! A7    A(1,2,6)              116.9757         estimate D2E/DX2                !
 ! A8    A(1,2,7)              123.0648         estimate D2E/DX2                !
 ! A9    A(6,2,7)              119.9356         estimate D2E/DX2                !
 ! A10   A(2,6,8)              112.9189         estimate D2E/DX2                !
 ! A11   A(2,6,9)              108.799          estimate D2E/DX2                !
 ! A12   A(2,6,10)             110.9878         estimate D2E/DX2                !
 ! A13   A(8,6,9)              107.5986         estimate D2E/DX2                !
 ! A14   A(8,6,10)             107.2861         estimate D2E/DX2                !
 ! A15   A(9,6,10)             109.1391         estimate D2E/DX2                !
 ! A16   A(6,8,11)             113.4586         estimate D2E/DX2                !
 ! A17   A(6,8,12)             111.0614         estimate D2E/DX2                !
 ! A18   A(6,8,13)             111.5936         estimate D2E/DX2                !
 ! A19   A(11,8,12)            107.0094         estimate D2E/DX2                !
 ! A20   A(11,8,13)            106.7956         estimate D2E/DX2                !
 ! A21   A(12,8,13)            106.5373         estimate D2E/DX2                !
 ! D1    D(3,1,2,6)            -62.4485         estimate D2E/DX2                !
 ! D2    D(3,1,2,7)            115.7691         estimate D2E/DX2                !
 ! D3    D(4,1,2,6)            177.1035         estimate D2E/DX2                !
 ! D4    D(4,1,2,7)             -4.679          estimate D2E/DX2                !
 ! D5    D(5,1,2,6)             55.7707         estimate D2E/DX2                !
 ! D6    D(5,1,2,7)           -126.0118         estimate D2E/DX2                !
 ! D7    D(1,2,6,8)           -100.2166         Frozen                          !
 ! D8    D(1,2,6,9)            140.3978         estimate D2E/DX2                !
 ! D9    D(1,2,6,10)            20.2962         estimate D2E/DX2                !
 ! D10   D(7,2,6,8)             81.5071         estimate D2E/DX2                !
 ! D11   D(7,2,6,9)            -37.8784         estimate D2E/DX2                !
 ! D12   D(7,2,6,10)          -157.9801         estimate D2E/DX2                !
 ! D13   D(2,6,8,11)           -62.676          estimate D2E/DX2                !
 ! D14   D(2,6,8,12)           176.7383         estimate D2E/DX2                !
 ! D15   D(2,6,8,13)            58.023          estimate D2E/DX2                !
 ! D16   D(9,6,8,11)            57.4007         estimate D2E/DX2                !
 ! D17   D(9,6,8,12)           -63.1851         estimate D2E/DX2                !
 ! D18   D(9,6,8,13)           178.0996         estimate D2E/DX2                !
 ! D19   D(10,6,8,11)          174.7194         estimate D2E/DX2                !
 ! D20   D(10,6,8,12)           54.1337         estimate D2E/DX2                !
 ! D21   D(10,6,8,13)          -64.5816         estimate D2E/DX2                !
 --------------------------------------------------------------------------------
 Trust Radius=3.00D-01 FncErr=1.00D-07 GrdErr=1.00D-06
 Number of steps in this run=     64 maximum allowed number of steps=    100.
 GradGradGradGradGradGradGradGradGradGradGradGradGradGradGradGradGradGrad

 Leave Link  103 at Wed May 26 09:21:02 2021, MaxMem=  2147483648 cpu:         0.1
 (Enter /opt/cluster/programs/g09_d.01/g09/l202.exe)
                          Input orientation:                          
 ---------------------------------------------------------------------
 Center     Atomic      Atomic             Coordinates (Angstroms)
 Number     Number       Type             X           Y           Z
 ---------------------------------------------------------------------
      1          6           0        2.309459    1.004606    0.096126
      2          6           0        1.468547   -0.203897   -0.197259
      3          1           0        2.620340    1.480541   -0.842115
      4          1           0        3.194146    0.715614    0.664182
      5          1           0        1.730047    1.743254    0.661288
      6          6           0        0.145265    0.032033   -0.933423
      7          8           0        1.812711   -1.349816    0.096833
      8          6           0       -1.045304    0.034478   -0.012704
      9          1           0       -0.001091   -0.770441   -1.660642
     10          1           0        0.153713    0.991349   -1.455577
     11          9           0       -1.245764   -1.172405    0.630827
     12          9           0       -2.215871    0.324152   -0.709096
     13          9           0       -0.923548    1.007685    0.982909
 ---------------------------------------------------------------------
                    Distance matrix (angstroms):
                    1          2          3          4          5
     1  C    0.000000
     2  C    1.501229   0.000000
     3  H    1.097022   2.140046   0.000000
     4  H    1.090355   2.136650   1.784180   0.000000
     5  H    1.095777   2.144034   1.766879   1.788753   0.000000
     6  C    2.586427   1.532539   2.869235   3.509316   2.825405
     7  O    2.406255   1.232100   3.089467   2.548774   3.145238
     8  C    3.493913   2.531863   4.026905   4.346845   3.328176
     9  H    3.402303   2.149953   3.550888   4.221695   3.834952
    10  H    2.656162   2.177330   2.588415   3.716671   2.744323
    11  F    4.202962   2.998536   4.914717   4.824783   4.166227
    12  F    4.646505   3.757093   4.974321   5.595303   4.411584
    13  F    3.352421   2.929649   4.014156   4.140326   2.772376
                    6          7          8          9         10
     6  C    0.000000
     7  O    2.398189   0.000000
     8  C    1.505053   3.177502   0.000000
     9  H    1.092809   2.591191   2.110444   0.000000
    10  H    1.092247   3.262408   2.105974   1.780427   0.000000
    11  F    2.415059   3.109806   1.382347   2.638487   3.315637
    12  F    2.389690   4.436346   1.392516   2.647418   2.572414
    13  F    2.401372   3.718878   1.397570   3.316779   2.665890
                   11         12         13
    11  F    0.000000
    12  F    2.230736   0.000000
    13  F    2.231721   2.236112   0.000000
 Stoichiometry    C4H5F3O
 Framework group  C1[X(C4H5F3O)]
 Deg. of freedom    33
 Full point group                 C1      NOp   1
 Largest Abelian subgroup         C1      NOp   1
 Largest concise Abelian subgroup C1      NOp   1
                         Standard orientation:                         
 ---------------------------------------------------------------------
 Center     Atomic      Atomic             Coordinates (Angstroms)
 Number     Number       Type             X           Y           Z
 ---------------------------------------------------------------------
      1          6           0        2.309459   -1.004606   -0.096126
      2          6           0        1.468547    0.203897    0.197259
      3          1           0        2.620340   -1.480540    0.842115
      4          1           0        3.194146   -0.715613   -0.664182
      5          1           0        1.730047   -1.743254   -0.661288
      6          6           0        0.145265   -0.032033    0.933423
      7          8           0        1.812711    1.349816   -0.096833
      8          6           0       -1.045304   -0.034478    0.012704
      9          1           0       -0.001091    0.770441    1.660642
     10          1           0        0.153713   -0.991349    1.455577
     11          9           0       -1.245764    1.172405   -0.630827
     12          9           0       -2.215871   -0.324153    0.709096
     13          9           0       -0.923548   -1.007685   -0.982909
 ---------------------------------------------------------------------
 Rotational constants (GHZ):      3.3904736      1.3756121      1.2317053
 Leave Link  202 at Wed May 26 09:21:02 2021, MaxMem=  2147483648 cpu:         0.0
 (Enter /opt/cluster/programs/g09_d.01/g09/l301.exe)
 Standard basis: 6-31+G (6D, 7F)
 Ernie: Thresh=  0.10000D-02 Tol=  0.10000D-05 Strict=F.
 There are   114 symmetry adapted cartesian basis functions of A   symmetry.
 There are   114 symmetry adapted basis functions of A   symmetry.
   114 basis functions,   228 primitive gaussians,   114 cartesian basis functions
    32 alpha electrons       32 beta electrons
       nuclear repulsion energy       404.5003207239 Hartrees.
 IExCor= 4639 DFT=T Ex+Corr=wB97XD ExCW=0 ScaHFX=  1.000000
 ScaDFX=  1.000000  1.000000  1.000000  1.000000 ScalE2=  1.000000  1.000000
 IRadAn=      0 IRanWt=     -1 IRanGd=            0 ICorTp=0 IEmpDi=121
  HFx wShort=  0.000000 wLong=  0.200000 cFull=  0.222036 cShort=  0.000000 cLong=  0.777964
  DFx wShort=  0.000000 wLong=  0.200000 cFull=  0.000000 cShort=  0.000000 cLong=  1.000000
 NAtoms=   13 NActive=   13 NUniq=   13 SFac= 1.00D+00 NAtFMM=   60 NAOKFM=F Big=F
 Integral buffers will be    131072 words long.
 Raffenetti 2 integral format.
 Two-electron integral symmetry is turned on.
 R6Disp:  Grimme-D2 Dispersion energy=       -0.0059584628 Hartrees.
 Nuclear repulsion after empirical dispersion term =      404.4943622611 Hartrees.
 Leave Link  301 at Wed May 26 09:21:02 2021, MaxMem=  2147483648 cpu:         0.3
 (Enter /opt/cluster/programs/g09_d.01/g09/l302.exe)
 NPDir=0 NMtPBC=     1 NCelOv=     1 NCel=       1 NClECP=     1 NCelD=      1
         NCelK=      1 NCelE2=     1 NClLst=     1 CellRange=     0.0.
 One-electron integrals computed using PRISM.
 NBasis=   114 RedAO= T EigKep=  9.30D-05  NBF=   114
 NBsUse=   114 1.00D-06 EigRej= -1.00D+00 NBFU=   114
 Precomputing XC quadrature grid using
 IXCGrd= 4 IRadAn=           0 IRanWt=          -1 IRanGd=           0 AccXCQ= 0.00D+00.
 Generated NRdTot=       0 NPtTot=           0 NUsed=           0 NTot=          32
 NSgBfM=   114   114   114   114   114 MxSgAt=    13 MxSgA2=    13.
 Leave Link  302 at Wed May 26 09:21:02 2021, MaxMem=  2147483648 cpu:         1.0
 (Enter /opt/cluster/programs/g09_d.01/g09/l303.exe)
 DipDrv:  MaxL=1.
 Leave Link  303 at Wed May 26 09:21:02 2021, MaxMem=  2147483648 cpu:         0.3
 (Enter /opt/cluster/programs/g09_d.01/g09/l401.exe)
 ExpMin= 4.38D-02 ExpMax= 7.00D+03 ExpMxC= 1.05D+03 IAcc=2 IRadAn=         4 AccDes= 0.00D+00
 Harris functional with IExCor= 4639 and IRadAn=       4 diagonalized for initial guess.
 HarFok:  IExCor= 4639 AccDes= 0.00D+00 IRadAn=         4 IDoV= 1 UseB2=F ITyADJ=14
 ICtDFT=  3500011 ScaDFX=  1.000000  1.000000  1.000000  1.000000
 FoFCou: FMM=F IPFlag=           0 FMFlag=      100000 FMFlg1=           0
         NFxFlg=           0 DoJE=T BraDBF=F KetDBF=T FulRan=T
         wScrn=  0.000000 ICntrl=     500 IOpCl=  0 I1Cent=   200000004 NGrid=           0
         NMat0=    1 NMatS0=      1 NMatT0=    0 NMatD0=    1 NMtDS0=    0 NMtDT0=    0
 Petite list used in FoFCou.
 Harris En= -511.190088204059    
 JPrj=0 DoOrth=F DoCkMO=F.
 Leave Link  401 at Wed May 26 09:21:03 2021, MaxMem=  2147483648 cpu:         2.1
 (Enter /opt/cluster/programs/g09_d.01/g09/l502.exe)
 Closed shell SCF:
 Using DIIS extrapolation, IDIIS=  1040.
 Integral symmetry usage will be decided dynamically.
 Keep R1 ints in memory in canonical form, NReq=43969700.
 IVT=       59316 IEndB=       59316 NGot=  2147483648 MDV=  2104449753
 LenX=  2104449753 LenY=  2104436316
 Requested convergence on RMS density matrix=1.00D-08 within 128 cycles.
 Requested convergence on MAX density matrix=1.00D-06.
 Requested convergence on             energy=1.00D-06.
 No special actions if energy rises.
 FoFCou: FMM=F IPFlag=           0 FMFlag=           0 FMFlg1=           0
         NFxFlg=           0 DoJE=F BraDBF=F KetDBF=F FulRan=T
         wScrn=  0.000000 ICntrl=     600 IOpCl=  0 I1Cent=           0 NGrid=           0
         NMat0=    1 NMatS0=   6555 NMatT0=    0 NMatD0=    1 NMtDS0=    0 NMtDT0=    0
 Symmetry not used in FoFCou.

 Cycle   1  Pass 1  IDiag  1:
 E= -529.580421111988    
 DIIS: error= 6.27D-02 at cycle   1 NSaved=   1.
 NSaved= 1 IEnMin= 1 EnMin= -529.580421111988     IErMin= 1 ErrMin= 6.27D-02
 ErrMax= 6.27D-02  0.00D+00 EMaxC= 1.00D-01 BMatC= 5.30D-01 BMatP= 5.30D-01
 IDIUse=3 WtCom= 3.73D-01 WtEn= 6.27D-01
 Coeff-Com:  0.100D+01
 Coeff-En:   0.100D+01
 Coeff:      0.100D+01
 Gap=     0.421 Goal=   None    Shift=    0.000
 GapD=    0.421 DampG=2.000 DampE=0.500 DampFc=1.0000 IDamp=-1.
 RMSDP=1.86D-02 MaxDP=7.28D-01              OVMax= 1.33D-01

 Cycle   2  Pass 1  IDiag  1:
 E= -529.730835637741     Delta-E=       -0.150414525753 Rises=F Damp=F
 DIIS: error= 5.05D-02 at cycle   2 NSaved=   2.
 NSaved= 2 IEnMin= 2 EnMin= -529.730835637741     IErMin= 2 ErrMin= 5.05D-02
 ErrMax= 5.05D-02  0.00D+00 EMaxC= 1.00D-01 BMatC= 3.16D-01 BMatP= 5.30D-01
 IDIUse=3 WtCom= 4.95D-01 WtEn= 5.05D-01
 Coeff-Com:  0.430D+00 0.570D+00
 Coeff-En:   0.324D+00 0.676D+00
 Coeff:      0.376D+00 0.624D+00
 Gap=     0.523 Goal=   None    Shift=    0.000
 RMSDP=4.04D-03 MaxDP=7.38D-02 DE=-1.50D-01 OVMax= 6.56D-02

 Cycle   3  Pass 1  IDiag  1:
 E= -529.909552127413     Delta-E=       -0.178716489673 Rises=F Damp=F
 DIIS: error= 1.20D-02 at cycle   3 NSaved=   3.
 NSaved= 3 IEnMin= 3 EnMin= -529.909552127413     IErMin= 3 ErrMin= 1.20D-02
 ErrMax= 1.20D-02  0.00D+00 EMaxC= 1.00D-01 BMatC= 2.22D-02 BMatP= 3.16D-01
 IDIUse=3 WtCom= 8.80D-01 WtEn= 1.20D-01
 Coeff-Com:  0.978D-01 0.254D+00 0.649D+00
 Coeff-En:   0.000D+00 0.000D+00 0.100D+01
 Coeff:      0.861D-01 0.223D+00 0.691D+00
 Gap=     0.385 Goal=   None    Shift=    0.000
 RMSDP=3.58D-03 MaxDP=1.19D-01 DE=-1.79D-01 OVMax= 3.24D-02

 Cycle   4  Pass 1  IDiag  1:
 E= -529.922418603044     Delta-E=       -0.012866475631 Rises=F Damp=F
 DIIS: error= 3.54D-03 at cycle   4 NSaved=   4.
 NSaved= 4 IEnMin= 4 EnMin= -529.922418603044     IErMin= 4 ErrMin= 3.54D-03
 ErrMax= 3.54D-03  0.00D+00 EMaxC= 1.00D-01 BMatC= 3.68D-03 BMatP= 2.22D-02
 IDIUse=3 WtCom= 9.65D-01 WtEn= 3.54D-02
 Coeff-Com: -0.400D-02 0.256D-01 0.333D+00 0.645D+00
 Coeff-En:   0.000D+00 0.000D+00 0.112D+00 0.888D+00
 Coeff:     -0.386D-02 0.247D-01 0.326D+00 0.654D+00
 Gap=     0.375 Goal=   None    Shift=    0.000
 RMSDP=7.59D-04 MaxDP=1.16D-02 DE=-1.29D-02 OVMax= 1.83D-02

 Cycle   5  Pass 1  IDiag  1:
 E= -529.925020695921     Delta-E=       -0.002602092877 Rises=F Damp=F
 DIIS: error= 1.35D-03 at cycle   5 NSaved=   5.
 NSaved= 5 IEnMin= 5 EnMin= -529.925020695921     IErMin= 5 ErrMin= 1.35D-03
 ErrMax= 1.35D-03  0.00D+00 EMaxC= 1.00D-01 BMatC= 3.00D-04 BMatP= 3.68D-03
 IDIUse=3 WtCom= 9.87D-01 WtEn= 1.35D-02
 Coeff-Com: -0.882D-02-0.341D-02 0.150D+00 0.374D+00 0.489D+00
 Coeff-En:   0.000D+00 0.000D+00 0.000D+00 0.000D+00 0.100D+01
 Coeff:     -0.871D-02-0.336D-02 0.148D+00 0.369D+00 0.496D+00
 Gap=     0.378 Goal=   None    Shift=    0.000
 RMSDP=5.76D-04 MaxDP=1.94D-02 DE=-2.60D-03 OVMax= 4.71D-03

 Cycle   6  Pass 1  IDiag  1:
 E= -529.925237405811     Delta-E=       -0.000216709889 Rises=F Damp=F
 DIIS: error= 2.58D-04 at cycle   6 NSaved=   6.
 NSaved= 6 IEnMin= 6 EnMin= -529.925237405811     IErMin= 6 ErrMin= 2.58D-04
 ErrMax= 2.58D-04  0.00D+00 EMaxC= 1.00D-01 BMatC= 7.26D-06 BMatP= 3.00D-04
 IDIUse=3 WtCom= 9.97D-01 WtEn= 2.58D-03
 Coeff-Com: -0.116D-02-0.460D-02-0.832D-02 0.217D-03 0.119D+00 0.895D+00
 Coeff-En:   0.000D+00 0.000D+00 0.000D+00 0.000D+00 0.000D+00 0.100D+01
 Coeff:     -0.116D-02-0.459D-02-0.830D-02 0.216D-03 0.118D+00 0.895D+00
 Gap=     0.378 Goal=   None    Shift=    0.000
 RMSDP=1.57D-04 MaxDP=5.43D-03 DE=-2.17D-04 OVMax= 1.50D-03

 Cycle   7  Pass 1  IDiag  1:
 E= -529.925246475717     Delta-E=       -0.000009069906 Rises=F Damp=F
 DIIS: error= 4.66D-05 at cycle   7 NSaved=   7.
 NSaved= 7 IEnMin= 7 EnMin= -529.925246475717     IErMin= 7 ErrMin= 4.66D-05
 ErrMax= 4.66D-05  0.00D+00 EMaxC= 1.00D-01 BMatC= 6.95D-07 BMatP= 7.26D-06
 IDIUse=1 WtCom= 1.00D+00 WtEn= 0.00D+00
 Coeff-Com:  0.386D-03-0.152D-02-0.171D-01-0.329D-01-0.116D-01 0.299D+00
 Coeff-Com:  0.764D+00
 Coeff:      0.386D-03-0.152D-02-0.171D-01-0.329D-01-0.116D-01 0.299D+00
 Coeff:      0.764D+00
 Gap=     0.378 Goal=   None    Shift=    0.000
 RMSDP=5.55D-05 MaxDP=1.91D-03 DE=-9.07D-06 OVMax= 3.92D-04

 Cycle   8  Pass 1  IDiag  1:
 E= -529.925247447173     Delta-E=       -0.000000971456 Rises=F Damp=F
 DIIS: error= 1.88D-05 at cycle   8 NSaved=   8.
 NSaved= 8 IEnMin= 8 EnMin= -529.925247447173     IErMin= 8 ErrMin= 1.88D-05
 ErrMax= 1.88D-05  0.00D+00 EMaxC= 1.00D-01 BMatC= 3.17D-08 BMatP= 6.95D-07
 IDIUse=1 WtCom= 1.00D+00 WtEn= 0.00D+00
 Coeff-Com:  0.108D-03 0.151D-03-0.107D-02-0.239D-02-0.130D-01-0.306D-01
 Coeff-Com:  0.713D-01 0.976D+00
 Coeff:      0.108D-03 0.151D-03-0.107D-02-0.239D-02-0.130D-01-0.306D-01
 Coeff:      0.713D-01 0.976D+00
 Gap=     0.378 Goal=   None    Shift=    0.000
 RMSDP=1.45D-05 MaxDP=4.93D-04 DE=-9.71D-07 OVMax= 2.03D-04

 Cycle   9  Pass 1  IDiag  1:
 E= -529.925247522944     Delta-E=       -0.000000075770 Rises=F Damp=F
 DIIS: error= 7.84D-06 at cycle   9 NSaved=   9.
 NSaved= 9 IEnMin= 9 EnMin= -529.925247522944     IErMin= 9 ErrMin= 7.84D-06
 ErrMax= 7.84D-06  0.00D+00 EMaxC= 1.00D-01 BMatC= 7.15D-09 BMatP= 3.17D-08
 IDIUse=1 WtCom= 1.00D+00 WtEn= 0.00D+00
 Coeff-Com:  0.859D-05 0.201D-03 0.114D-02 0.220D-02-0.446D-02-0.384D-01
 Coeff-Com: -0.368D-01 0.381D+00 0.695D+00
 Coeff:      0.859D-05 0.201D-03 0.114D-02 0.220D-02-0.446D-02-0.384D-01
 Coeff:     -0.368D-01 0.381D+00 0.695D+00
 Gap=     0.378 Goal=   None    Shift=    0.000
 RMSDP=2.65D-06 MaxDP=6.49D-05 DE=-7.58D-08 OVMax= 8.04D-05

 Cycle  10  Pass 1  IDiag  1:
 E= -529.925247536392     Delta-E=       -0.000000013448 Rises=F Damp=F
 DIIS: error= 5.55D-06 at cycle  10 NSaved=  10.
 NSaved=10 IEnMin=10 EnMin= -529.925247536392     IErMin=10 ErrMin= 5.55D-06
 ErrMax= 5.55D-06  0.00D+00 EMaxC= 1.00D-01 BMatC= 1.48D-09 BMatP= 7.15D-09
 IDIUse=1 WtCom= 1.00D+00 WtEn= 0.00D+00
 Coeff-Com: -0.254D-04 0.305D-04 0.697D-03 0.151D-02 0.202D-02-0.424D-02
 Coeff-Com: -0.316D-01-0.146D+00 0.251D+00 0.927D+00
 Coeff:     -0.254D-04 0.305D-04 0.697D-03 0.151D-02 0.202D-02-0.424D-02
 Coeff:     -0.316D-01-0.146D+00 0.251D+00 0.927D+00
 Gap=     0.378 Goal=   None    Shift=    0.000
 RMSDP=1.83D-06 MaxDP=3.09D-05 DE=-1.34D-08 OVMax= 7.55D-05

 Cycle  11  Pass 1  IDiag  1:
 E= -529.925247542036     Delta-E=       -0.000000005644 Rises=F Damp=F
 DIIS: error= 2.29D-06 at cycle  11 NSaved=  11.
 NSaved=11 IEnMin=11 EnMin= -529.925247542036     IErMin=11 ErrMin= 2.29D-06
 ErrMax= 2.29D-06  0.00D+00 EMaxC= 1.00D-01 BMatC= 1.31D-10 BMatP= 1.48D-09
 IDIUse=1 WtCom= 1.00D+00 WtEn= 0.00D+00
 Coeff-Com:  0.278D-05-0.328D-04-0.260D-03-0.531D-03 0.432D-03 0.627D-02
 Coeff-Com:  0.803D-02-0.392D-01-0.132D+00-0.120D+00 0.128D+01
 Coeff:      0.278D-05-0.328D-04-0.260D-03-0.531D-03 0.432D-03 0.627D-02
 Coeff:      0.803D-02-0.392D-01-0.132D+00-0.120D+00 0.128D+01
 Gap=     0.378 Goal=   None    Shift=    0.000
 RMSDP=9.41D-07 MaxDP=1.83D-05 DE=-5.64D-09 OVMax= 4.45D-05

 Cycle  12  Pass 1  IDiag  1:
 E= -529.925247543200     Delta-E=       -0.000000001164 Rises=F Damp=F
 DIIS: error= 5.96D-07 at cycle  12 NSaved=  12.
 NSaved=12 IEnMin=12 EnMin= -529.925247543200     IErMin=12 ErrMin= 5.96D-07
 ErrMax= 5.96D-07  0.00D+00 EMaxC= 1.00D-01 BMatC= 2.64D-11 BMatP= 1.31D-10
 IDIUse=1 WtCom= 1.00D+00 WtEn= 0.00D+00
 Coeff-Com:  0.335D-05-0.141D-04-0.159D-03-0.342D-03-0.119D-03 0.205D-02
 Coeff-Com:  0.630D-02 0.134D-01-0.718D-01-0.175D+00 0.352D+00 0.874D+00
 Coeff:      0.335D-05-0.141D-04-0.159D-03-0.342D-03-0.119D-03 0.205D-02
 Coeff:      0.630D-02 0.134D-01-0.718D-01-0.175D+00 0.352D+00 0.874D+00
 Gap=     0.378 Goal=   None    Shift=    0.000
 RMSDP=2.81D-07 MaxDP=5.25D-06 DE=-1.16D-09 OVMax= 1.25D-05

 Cycle  13  Pass 1  IDiag  1:
 E= -529.925247543298     Delta-E=       -0.000000000098 Rises=F Damp=F
 DIIS: error= 1.50D-07 at cycle  13 NSaved=  13.
 NSaved=13 IEnMin=13 EnMin= -529.925247543298     IErMin=13 ErrMin= 1.50D-07
 ErrMax= 1.50D-07  0.00D+00 EMaxC= 1.00D-01 BMatC= 2.12D-12 BMatP= 2.64D-11
 IDIUse=1 WtCom= 1.00D+00 WtEn= 0.00D+00
 Coeff-Com: -0.416D-06 0.359D-05 0.326D-04 0.596D-04-0.248D-04-0.851D-03
 Coeff-Com: -0.981D-03 0.547D-02 0.160D-01 0.148D-01-0.164D+00-0.252D-01
 Coeff-Com:  0.115D+01
 Coeff:     -0.416D-06 0.359D-05 0.326D-04 0.596D-04-0.248D-04-0.851D-03
 Coeff:     -0.981D-03 0.547D-02 0.160D-01 0.148D-01-0.164D+00-0.252D-01
 Coeff:      0.115D+01
 Gap=     0.378 Goal=   None    Shift=    0.000
 RMSDP=1.04D-07 MaxDP=1.80D-06 DE=-9.77D-11 OVMax= 3.90D-06

 Cycle  14  Pass 1  IDiag  1:
 E= -529.925247543311     Delta-E=       -0.000000000013 Rises=F Damp=F
 DIIS: error= 1.80D-08 at cycle  14 NSaved=  14.
 NSaved=14 IEnMin=14 EnMin= -529.925247543311     IErMin=14 ErrMin= 1.80D-08
 ErrMax= 1.80D-08  0.00D+00 EMaxC= 1.00D-01 BMatC= 6.90D-14 BMatP= 2.12D-12
 IDIUse=1 WtCom= 1.00D+00 WtEn= 0.00D+00
 Coeff-Com: -0.905D-07 0.572D-06 0.517D-05 0.988D-05 0.873D-05-0.881D-04
 Coeff-Com: -0.149D-03-0.164D-03 0.175D-02 0.462D-02-0.106D-01-0.267D-01
 Coeff-Com:  0.147D-01 0.102D+01
 Coeff:     -0.905D-07 0.572D-06 0.517D-05 0.988D-05 0.873D-05-0.881D-04
 Coeff:     -0.149D-03-0.164D-03 0.175D-02 0.462D-02-0.106D-01-0.267D-01
 Coeff:      0.147D-01 0.102D+01
 Gap=     0.378 Goal=   None    Shift=    0.000
 RMSDP=1.44D-08 MaxDP=3.73D-07 DE=-1.33D-11 OVMax= 2.71D-07

 Cycle  15  Pass 1  IDiag  1:
 E= -529.925247543313     Delta-E=       -0.000000000002 Rises=F Damp=F
 DIIS: error= 1.22D-08 at cycle  15 NSaved=  15.
 NSaved=15 IEnMin=15 EnMin= -529.925247543313     IErMin=15 ErrMin= 1.22D-08
 ErrMax= 1.22D-08  0.00D+00 EMaxC= 1.00D-01 BMatC= 2.42D-14 BMatP= 6.90D-14
 IDIUse=1 WtCom= 1.00D+00 WtEn= 0.00D+00
 Coeff-Com: -0.645D-08-0.514D-07-0.548D-06-0.836D-06 0.825D-05 0.379D-04
 Coeff-Com:  0.235D-04-0.672D-03-0.584D-03 0.121D-02 0.101D-01-0.129D-01
 Coeff-Com: -0.983D-01 0.520D+00 0.581D+00
 Coeff:     -0.645D-08-0.514D-07-0.548D-06-0.836D-06 0.825D-05 0.379D-04
 Coeff:      0.235D-04-0.672D-03-0.584D-03 0.121D-02 0.101D-01-0.129D-01
 Coeff:     -0.983D-01 0.520D+00 0.581D+00
 Gap=     0.378 Goal=   None    Shift=    0.000
 RMSDP=3.21D-09 MaxDP=8.02D-08 DE=-2.16D-12 OVMax= 3.64D-08

 SCF Done:  E(RwB97XD) =  -529.925247543     A.U. after   15 cycles
            NFock= 15  Conv=0.32D-08     -V/T= 2.0052
 KE= 5.271865156951D+02 PE=-2.059415811622D+03 EE= 5.978096861228D+02
 Leave Link  502 at Wed May 26 09:21:07 2021, MaxMem=  2147483648 cpu:        31.1
 (Enter /opt/cluster/programs/g09_d.01/g09/l601.exe)
 Copying SCF densities to generalized density rwf, IOpCl= 0 IROHF=0.

 **********************************************************************

            Population analysis using the SCF density.

 **********************************************************************

 Orbital symmetries:
       Occupied  (A) (A) (A) (A) (A) (A) (A) (A) (A) (A) (A) (A)
                 (A) (A) (A) (A) (A) (A) (A) (A) (A) (A) (A) (A)
                 (A) (A) (A) (A) (A) (A) (A) (A)
       Virtual   (A) (A) (A) (A) (A) (A) (A) (A) (A) (A) (A) (A)
                 (A) (A) (A) (A) (A) (A) (A) (A) (A) (A) (A) (A)
                 (A) (A) (A) (A) (A) (A) (A) (A) (A) (A) (A) (A)
                 (A) (A) (A) (A) (A) (A) (A) (A) (A) (A) (A) (A)
                 (A) (A) (A) (A) (A) (A) (A) (A) (A) (A) (A) (A)
                 (A) (A) (A) (A) (A) (A) (A) (A) (A) (A) (A) (A)
                 (A) (A) (A) (A) (A) (A) (A) (A) (A) (A)
 The electronic state is 1-A.
 Alpha  occ. eigenvalues --  -24.88737 -24.88666 -24.88546 -19.30472 -10.59289
 Alpha  occ. eigenvalues --  -10.43848 -10.36284 -10.32418  -1.43556  -1.35041
 Alpha  occ. eigenvalues --   -1.34989  -1.19597  -0.95085  -0.87616  -0.79589
 Alpha  occ. eigenvalues --   -0.70834  -0.69868  -0.68861  -0.64005  -0.59381
 Alpha  occ. eigenvalues --   -0.58459  -0.56918  -0.56628  -0.55736  -0.53839
 Alpha  occ. eigenvalues --   -0.53437  -0.52135  -0.51511  -0.50970  -0.49585
 Alpha  occ. eigenvalues --   -0.46400  -0.36919
 Alpha virt. eigenvalues --    0.00863   0.05333   0.07840   0.09335   0.09865
 Alpha virt. eigenvalues --    0.10489   0.11305   0.12383   0.12538   0.12797
 Alpha virt. eigenvalues --    0.15013   0.15839   0.16163   0.16578   0.17449
 Alpha virt. eigenvalues --    0.18018   0.18857   0.19866   0.22323   0.22895
 Alpha virt. eigenvalues --    0.26177   0.26598   0.27583   0.30000   0.31057
 Alpha virt. eigenvalues --    0.32446   0.33092   0.36438   0.36854   0.37777
 Alpha virt. eigenvalues --    0.38382   0.39346   0.40714   0.41454   0.41505
 Alpha virt. eigenvalues --    0.43023   0.43050   0.44001   0.44967   0.45605
 Alpha virt. eigenvalues --    0.45757   0.49800   0.51953   0.52799   0.56758
 Alpha virt. eigenvalues --    0.68880   0.74063   0.74813   0.75712   0.79644
 Alpha virt. eigenvalues --    0.82194   0.86360   0.87289   0.88082   0.90097
 Alpha virt. eigenvalues --    0.96845   1.00664   1.10302   1.15928   1.17791
 Alpha virt. eigenvalues --    1.21773   1.21935   1.29949   1.34700   1.36318
 Alpha virt. eigenvalues --    1.41961   1.45968   1.49044   1.56089   1.60365
 Alpha virt. eigenvalues --    1.67346   1.68969   1.72443   1.73272   1.80346
 Alpha virt. eigenvalues --    1.82889   1.84165   1.85773   2.02915   2.30719
 Alpha virt. eigenvalues --    2.33950   2.68512
          Condensed to atoms (all electrons):
               1          2          3          4          5          6
     1  C    7.823244  -0.404555   0.315416   0.346425   0.341081  -1.682966
     2  C   -0.404555   5.972317   0.005138  -0.023497  -0.043622  -0.361113
     3  H    0.315416   0.005138   0.473627  -0.019506  -0.024374   0.014361
     4  H    0.346425  -0.023497  -0.019506   0.441716  -0.018147   0.025740
     5  H    0.341081  -0.043622  -0.024374  -0.018147   0.458561   0.026458
     6  C   -1.682966  -0.361113   0.014361   0.025740   0.026458   8.457130
     7  O   -0.121509   0.482021  -0.000403  -0.004296   0.005713  -0.240954
     8  C   -0.003227  -0.036979  -0.001568   0.000059  -0.000591   0.189993
     9  H    0.009654  -0.001310  -0.000118  -0.000088   0.000092   0.333571
    10  H    0.046448   0.000403  -0.001058   0.000049  -0.001174   0.258646
    11  F    0.028903   0.021365   0.000023  -0.000002  -0.000457  -0.209128
    12  F   -0.003621  -0.008098   0.000049   0.000020   0.000016  -0.132542
    13  F    0.023137   0.011641  -0.000666  -0.000076   0.004233  -0.169052
               7          8          9         10         11         12
     1  C   -0.121509  -0.003227   0.009654   0.046448   0.028903  -0.003621
     2  C    0.482021  -0.036979  -0.001310   0.000403   0.021365  -0.008098
     3  H   -0.000403  -0.001568  -0.000118  -0.001058   0.000023   0.000049
     4  H   -0.004296   0.000059  -0.000088   0.000049  -0.000002   0.000020
     5  H    0.005713  -0.000591   0.000092  -0.001174  -0.000457   0.000016
     6  C   -0.240954   0.189993   0.333571   0.258646  -0.209128  -0.132542
     7  O    8.253094  -0.017195  -0.002985   0.005152   0.016043  -0.000894
     8  C   -0.017195   4.998997  -0.030487  -0.018938   0.147879   0.167849
     9  H   -0.002985  -0.030487   0.418967  -0.021448  -0.004882  -0.001921
    10  H    0.005152  -0.018938  -0.021448   0.467028   0.009536  -0.003909
    11  F    0.016043   0.147879  -0.004882   0.009536   9.290884  -0.062401
    12  F   -0.000894   0.167849  -0.001921  -0.003909  -0.062401   9.304254
    13  F   -0.001806   0.108163   0.008076  -0.005160  -0.056990  -0.055099
              13
     1  C    0.023137
     2  C    0.011641
     3  H   -0.000666
     4  H   -0.000076
     5  H    0.004233
     6  C   -0.169052
     7  O   -0.001806
     8  C    0.108163
     9  H    0.008076
    10  H   -0.005160
    11  F   -0.056990
    12  F   -0.055099
    13  F    9.331093
 Mulliken charges:
               1
     1  C   -0.718432
     2  C    0.386289
     3  H    0.239077
     4  H    0.251604
     5  H    0.252212
     6  C   -0.510143
     7  O   -0.371981
     8  C    0.496043
     9  H    0.292880
    10  H    0.264423
    11  F   -0.180773
    12  F   -0.203704
    13  F   -0.197494
 Sum of Mulliken charges =   0.00000
 Mulliken charges with hydrogens summed into heavy atoms:
               1
     1  C    0.024461
     2  C    0.386289
     6  C    0.047159
     7  O   -0.371981
     8  C    0.496043
    11  F   -0.180773
    12  F   -0.203704
    13  F   -0.197494
 Electronic spatial extent (au):  <R**2>=            975.2710
 Charge=              0.0000 electrons
 Dipole moment (field-independent basis, Debye):
    X=              1.7609    Y=             -2.9430    Z=              2.3910  Tot=              4.1808
 Quadrupole moment (field-independent basis, Debye-Ang):
   XX=            -49.2694   YY=            -49.7309   ZZ=            -43.8712
   XY=             -6.6916   XZ=              0.9198   YZ=              0.5933
 Traceless Quadrupole moment (field-independent basis, Debye-Ang):
   XX=             -1.6455   YY=             -2.1071   ZZ=              3.7526
   XY=             -6.6916   XZ=              0.9198   YZ=              0.5933
 Octapole moment (field-independent basis, Debye-Ang**2):
  XXX=            -11.1467  YYY=             -6.6869  ZZZ=             -1.5945  XYY=            -11.2364
  XXY=            -11.2883  XXZ=             -3.4924  XZZ=             -3.7783  YZZ=              1.4896
  YYZ=              2.0516  XYZ=              0.1115
 Hexadecapole moment (field-independent basis, Debye-Ang**3):
 XXXX=           -731.0606 YYYY=           -249.5531 ZZZZ=           -146.0543 XXXY=            -23.0915
 XXXZ=              6.9429 YYYX=             -6.1858 YYYZ=              0.2519 ZZZX=              1.1774
 ZZZY=              0.1569 XXYY=           -175.5703 XXZZ=           -145.1286 YYZZ=            -61.7233
 XXYZ=              2.6180 YYXZ=             -0.0078 ZZXY=             -0.8207
 N-N= 4.044943622611D+02 E-N=-2.059415811589D+03  KE= 5.271865156951D+02
 No NMR shielding tensors so no spin-rotation constants.
 Leave Link  601 at Wed May 26 09:21:07 2021, MaxMem=  2147483648 cpu:         0.6
 (Enter /opt/cluster/programs/g09_d.01/g09/l701.exe)
 Compute integral first derivatives.
 ... and contract with generalized density number  0.
 R6Disp: Adding Grimme-D2 dispersion energy 1st derivatives to the gradient.
 Leave Link  701 at Wed May 26 09:21:07 2021, MaxMem=  2147483648 cpu:         0.6
 (Enter /opt/cluster/programs/g09_d.01/g09/l702.exe)
 L702 exits ... SP integral derivatives will be done elsewhere.
 Leave Link  702 at Wed May 26 09:21:07 2021, MaxMem=  2147483648 cpu:         0.2
 (Enter /opt/cluster/programs/g09_d.01/g09/l703.exe)
 Compute integral first derivatives, UseDBF=F ICtDFT=           0.
 Integral derivatives from FoFJK, PRISM(SPDF).
 Calling FoFJK, ICntrl=      2127 FMM=F ISym2X=0 I1Cent= 0 IOpClX= 0 NMat=1 NMatS=1 NMatT=0.
 FoFJK:  IHMeth= 1 ICntrl=    2127 DoSepK=T KAlg= 0 I1Cent=   0 FoldK=F
 IRaf=         1 NMat=   1 IRICut=       1 DoRegI=T DoRafI=F ISym2E= 0.
 FoFCou: FMM=F IPFlag=           0 FMFlag=      100000 FMFlg1=         800
         NFxFlg=           0 DoJE=F BraDBF=F KetDBF=F FulRan=T
         wScrn=  0.000000 ICntrl=    2527 IOpCl=  0 I1Cent=           0 NGrid=           0
         NMat0=    1 NMatS0=      1 NMatT0=    0 NMatD0=    1 NMtDS0=    0 NMtDT0=    0
 Symmetry not used in FoFCou.
 Leave Link  703 at Wed May 26 09:21:08 2021, MaxMem=  2147483648 cpu:         8.4
 (Enter /opt/cluster/programs/g09_d.01/g09/l716.exe)
 Dipole        = 6.92775633D-01-1.15786792D+00 9.40705091D-01
 ***** Axes restored to original set *****
 -------------------------------------------------------------------
 Center     Atomic                   Forces (Hartrees/Bohr)
 Number     Number              X              Y              Z
 -------------------------------------------------------------------
      1        6          -0.000564219    0.000145206    0.001064176
      2        6           0.000852388    0.000244053   -0.001460152
      3        1          -0.000001917    0.000012590    0.000012109
      4        1          -0.000003591   -0.000003928    0.000008597
      5        1          -0.000003857   -0.000009584    0.000016546
      6        6          -0.000405727   -0.001495455    0.000240917
      7        8           0.000001894   -0.000002912   -0.000016183
      8        6           0.000116350    0.001117748    0.000149409
      9        1           0.000005362    0.000011975   -0.000007819
     10        1          -0.000001596    0.000011928    0.000013820
     11        9           0.000005284   -0.000008137   -0.000017277
     12        9          -0.000001337   -0.000001804   -0.000008803
     13        9           0.000000964   -0.000021679    0.000004660
 -------------------------------------------------------------------
 Cartesian Forces:  Max     0.001495455 RMS     0.000456771
 Leave Link  716 at Wed May 26 09:21:08 2021, MaxMem=  2147483648 cpu:         0.2
 (Enter /opt/cluster/programs/g09_d.01/g09/l103.exe)

 GradGradGradGradGradGradGradGradGradGradGradGradGradGradGradGradGradGrad
 Berny optimization.
 FormGI is forming the generalized inverse of G from B-inverse, IUseBI=4.
 Internal  Forces:  Max     0.001172072 RMS     0.000255986
 Search for a local minimum.
 Step number   1 out of a maximum of   64
 All quantities printed in internal units (Hartrees-Bohrs-Radians)
 RMS Force = .30729D-05 SwitMx=.10000D-02 MixMth= 2
 Mixed Optimization -- En-DIIS/RFO-DIIS
 Second derivative matrix not updated -- first step.
 ITU=  0
     Eigenvalues ---    0.00480   0.00699   0.00750   0.03103   0.05649
     Eigenvalues ---    0.07341   0.07464   0.08208   0.08626   0.09201
     Eigenvalues ---    0.11644   0.16000   0.16000   0.16000   0.22053
     Eigenvalues ---    0.24985   0.25000   0.25000   0.25000   0.25000
     Eigenvalues ---    0.29190   0.31853   0.32249   0.34014   0.34153
     Eigenvalues ---    0.34490   0.34554   0.34772   0.46026   0.46884
     Eigenvalues ---    0.48676   0.902171000.000001000.000001000.00000
     Eigenvalues --- 1000.000001000.000001000.000001000.000001000.00000
     Eigenvalues --- 1000.000001000.000001000.000001000.000001000.00000
     Eigenvalues --- 1000.000001000.000001000.000001000.000001000.00000
     Eigenvalues --- 1000.000001000.000001000.000001000.00000
 RFO step:  Lambda= 0.00000000D+00 EMin= 4.79923274D-03
 Linear search not attempted -- first point.
 Iteration  1 RMS(Cart)=  0.00007853 RMS(Int)=  0.00000000
 Iteration  2 RMS(Cart)=  0.00000000 RMS(Int)=  0.00000000
 Iteration  1 RMS(Cart)=  0.00000000 RMS(Int)=  0.00000000
 ITry= 1 IFail=0 DXMaxC= 2.06D-04 DCOld= 1.00D+10 DXMaxT= 3.00D-01 DXLimC= 3.00D+00 Rises=F
 Variable       Old X    -DE/DX   Delta X   Delta X   Delta X     New X
                                 (Linear)    (Quad)   (Total)
    R1        2.83691   0.00000   0.00000   0.00000   0.00000   2.83692
    R2        2.07307   0.00000   0.00000   0.00001   0.00001   2.07308
    R3        2.06047   0.00000   0.00000   0.00000   0.00000   2.06047
    R4        2.07072   0.00000   0.00000  -0.00001  -0.00001   2.07071
    R5        2.89608   0.00000   0.00000  -0.00002  -0.00002   2.89606
    R6        2.32833   0.00000   0.00000   0.00000   0.00000   2.32833
    R7        2.84414   0.00000   0.00000   0.00000   0.00000   2.84413
    R8        2.06511   0.00000   0.00000   0.00000   0.00000   2.06511
    R9        2.06405   0.00000   0.00000  -0.00001  -0.00001   2.06404
   R10        2.61226  -0.00001   0.00000  -0.00001  -0.00001   2.61225
   R11        2.63147   0.00000   0.00000   0.00001   0.00001   2.63148
   R12        2.64102   0.00000   0.00000  -0.00001  -0.00001   2.64102
    A1        1.91861   0.00000   0.00000  -0.00002  -0.00002   1.91859
    A2        1.92085   0.00000   0.00000  -0.00002  -0.00002   1.92082
    A3        1.92544   0.00000   0.00000   0.00001   0.00001   1.92544
    A4        1.90777   0.00000   0.00000   0.00001   0.00001   1.90778
    A5        1.87393   0.00000   0.00000   0.00002   0.00002   1.87395
    A6        1.91664   0.00000   0.00000   0.00001   0.00001   1.91664
    A7        2.04161   0.00000   0.00000   0.00000   0.00000   2.04162
    A8        2.14789   0.00002   0.00000   0.00002   0.00002   2.14790
    A9        2.09327  -0.00001   0.00000  -0.00002  -0.00002   2.09326
   A10        1.97081  -0.00002   0.00000  -0.00004  -0.00004   1.97076
   A11        1.89890  -0.00001   0.00000  -0.00001  -0.00001   1.89890
   A12        1.93710   0.00002   0.00000   0.00002   0.00002   1.93712
   A13        1.87795   0.00052   0.00000  -0.00002  -0.00002   1.87793
   A14        1.87249  -0.00050   0.00000  -0.00001  -0.00001   1.87248
   A15        1.90484   0.00000   0.00000   0.00006   0.00006   1.90490
   A16        1.98023   0.00001   0.00000   0.00002   0.00002   1.98025
   A17        1.93839   0.00000   0.00000   0.00000   0.00000   1.93838
   A18        1.94768  -0.00001   0.00000  -0.00004  -0.00004   1.94763
   A19        1.86767   0.00000   0.00000   0.00003   0.00003   1.86770
   A20        1.86393   0.00000   0.00000  -0.00003  -0.00003   1.86391
   A21        1.85943   0.00001   0.00000   0.00002   0.00002   1.85945
    D1       -1.08993  -0.00025   0.00000  -0.00013  -0.00013  -1.09006
    D2        2.02055   0.00025   0.00000   0.00005   0.00005   2.02060
    D3        3.09104  -0.00025   0.00000  -0.00012  -0.00012   3.09092
    D4       -0.08166   0.00025   0.00000   0.00006   0.00006  -0.08160
    D5        0.97338  -0.00025   0.00000  -0.00011  -0.00011   0.97327
    D6       -2.19932   0.00025   0.00000   0.00007   0.00007  -2.19925
    D7       -1.74911   0.00117   0.00000   0.00000   0.00000  -1.74911
    D8        2.45040   0.00054   0.00000   0.00005   0.00005   2.45046
    D9        0.35424   0.00053   0.00000  -0.00003  -0.00003   0.35420
   D10        1.42257   0.00068   0.00000  -0.00017  -0.00017   1.42239
   D11       -0.66110   0.00005   0.00000  -0.00012  -0.00012  -0.66123
   D12       -2.75727   0.00004   0.00000  -0.00021  -0.00021  -2.75748
   D13       -1.09390  -0.00022   0.00000   0.00007   0.00007  -1.09383
   D14        3.08467  -0.00022   0.00000   0.00002   0.00002   3.08468
   D15        1.01269  -0.00022   0.00000   0.00002   0.00002   1.01271
   D16        1.00183   0.00011   0.00000   0.00002   0.00002   1.00185
   D17       -1.10279   0.00011   0.00000  -0.00003  -0.00003  -1.10281
   D18        3.10842   0.00011   0.00000  -0.00002  -0.00002   3.10840
   D19        3.04943   0.00012   0.00000   0.00008   0.00008   3.04951
   D20        0.94481   0.00011   0.00000   0.00003   0.00003   0.94484
   D21       -1.12716   0.00011   0.00000   0.00003   0.00003  -1.12713
         Item               Value     Threshold  Converged?
 Maximum Force            0.000008     0.000450     YES
 RMS     Force            0.000003     0.000300     YES
 Maximum Displacement     0.000206     0.001800     YES
 RMS     Displacement     0.000079     0.001200     YES
 Predicted change in Energy=-1.930840D-09
 Optimization completed.
    -- Stationary point found.
                           ----------------------------
                           !   Optimized Parameters   !
                           ! (Angstroms and Degrees)  !
 --------------------------                            --------------------------
 ! Name  Definition              Value          Derivative Info.                !
 --------------------------------------------------------------------------------
 ! R1    R(1,2)                  1.5012         -DE/DX =    0.0                 !
 ! R2    R(1,3)                  1.097          -DE/DX =    0.0                 !
 ! R3    R(1,4)                  1.0904         -DE/DX =    0.0                 !
 ! R4    R(1,5)                  1.0958         -DE/DX =    0.0                 !
 ! R5    R(2,6)                  1.5325         -DE/DX =    0.0                 !
 ! R6    R(2,7)                  1.2321         -DE/DX =    0.0                 !
 ! R7    R(6,8)                  1.5051         -DE/DX =    0.0                 !
 ! R8    R(6,9)                  1.0928         -DE/DX =    0.0                 !
 ! R9    R(6,10)                 1.0922         -DE/DX =    0.0                 !
 ! R10   R(8,11)                 1.3823         -DE/DX =    0.0                 !
 ! R11   R(8,12)                 1.3925         -DE/DX =    0.0                 !
 ! R12   R(8,13)                 1.3976         -DE/DX =    0.0                 !
 ! A1    A(2,1,3)              109.9282         -DE/DX =    0.0                 !
 ! A2    A(2,1,4)              110.0563         -DE/DX =    0.0                 !
 ! A3    A(2,1,5)              110.3193         -DE/DX =    0.0                 !
 ! A4    A(3,1,4)              109.3071         -DE/DX =    0.0                 !
 ! A5    A(3,1,5)              107.3682         -DE/DX =    0.0                 !
 ! A6    A(4,1,5)              109.8152         -DE/DX =    0.0                 !
 ! A7    A(1,2,6)              116.9757         -DE/DX =    0.0                 !
 ! A8    A(1,2,7)              123.0648         -DE/DX =    0.0                 !
 ! A9    A(6,2,7)              119.9356         -DE/DX =    0.0                 !
 ! A10   A(2,6,8)              112.9189         -DE/DX =    0.0                 !
 ! A11   A(2,6,9)              108.799          -DE/DX =    0.0                 !
 ! A12   A(2,6,10)             110.9878         -DE/DX =    0.0                 !
 ! A13   A(8,6,9)              107.5986         -DE/DX =    0.0005              !
 ! A14   A(8,6,10)             107.2861         -DE/DX =   -0.0005              !
 ! A15   A(9,6,10)             109.1391         -DE/DX =    0.0                 !
 ! A16   A(6,8,11)             113.4586         -DE/DX =    0.0                 !
 ! A17   A(6,8,12)             111.0614         -DE/DX =    0.0                 !
 ! A18   A(6,8,13)             111.5936         -DE/DX =    0.0                 !
 ! A19   A(11,8,12)            107.0094         -DE/DX =    0.0                 !
 ! A20   A(11,8,13)            106.7956         -DE/DX =    0.0                 !
 ! A21   A(12,8,13)            106.5373         -DE/DX =    0.0                 !
 ! D1    D(3,1,2,6)            -62.4485         -DE/DX =   -0.0003              !
 ! D2    D(3,1,2,7)            115.7691         -DE/DX =    0.0003              !
 ! D3    D(4,1,2,6)            177.1035         -DE/DX =   -0.0003              !
 ! D4    D(4,1,2,7)             -4.679          -DE/DX =    0.0003              !
 ! D5    D(5,1,2,6)             55.7707         -DE/DX =   -0.0003              !
 ! D6    D(5,1,2,7)           -126.0118         -DE/DX =    0.0003              !
 ! D7    D(1,2,6,8)           -100.2166         -DE/DX =    0.0012              !
 ! D8    D(1,2,6,9)            140.3978         -DE/DX =    0.0005              !
 ! D9    D(1,2,6,10)            20.2962         -DE/DX =    0.0005              !
 ! D10   D(7,2,6,8)             81.5071         -DE/DX =    0.0007              !
 ! D11   D(7,2,6,9)            -37.8784         -DE/DX =    0.0001              !
 ! D12   D(7,2,6,10)          -157.9801         -DE/DX =    0.0                 !
 ! D13   D(2,6,8,11)           -62.676          -DE/DX =   -0.0002              !
 ! D14   D(2,6,8,12)           176.7383         -DE/DX =   -0.0002              !
 ! D15   D(2,6,8,13)            58.023          -DE/DX =   -0.0002              !
 ! D16   D(9,6,8,11)            57.4007         -DE/DX =    0.0001              !
 ! D17   D(9,6,8,12)           -63.1851         -DE/DX =    0.0001              !
 ! D18   D(9,6,8,13)           178.0996         -DE/DX =    0.0001              !
 ! D19   D(10,6,8,11)          174.7194         -DE/DX =    0.0001              !
 ! D20   D(10,6,8,12)           54.1337         -DE/DX =    0.0001              !
 ! D21   D(10,6,8,13)          -64.5816         -DE/DX =    0.0001              !
 --------------------------------------------------------------------------------
 Lowest energy point so far.  Saving SCF results.
 GradGradGradGradGradGradGradGradGradGradGradGradGradGradGradGradGradGrad

 Largest change from initial coordinates is atom    4       0.000 Angstoms.
 Leave Link  103 at Wed May 26 09:21:08 2021, MaxMem=  2147483648 cpu:         0.1
 (Enter /opt/cluster/programs/g09_d.01/g09/l202.exe)
                          Input orientation:                          
 ---------------------------------------------------------------------
 Center     Atomic      Atomic             Coordinates (Angstroms)
 Number     Number       Type             X           Y           Z
 ---------------------------------------------------------------------
      1          6           0        2.309459    1.004606    0.096126
      2          6           0        1.468547   -0.203897   -0.197259
      3          1           0        2.620340    1.480541   -0.842115
      4          1           0        3.194146    0.715614    0.664182
      5          1           0        1.730047    1.743254    0.661288
      6          6           0        0.145265    0.032033   -0.933423
      7          8           0        1.812711   -1.349816    0.096833
      8          6           0       -1.045304    0.034478   -0.012704
      9          1           0       -0.001091   -0.770441   -1.660642
     10          1           0        0.153713    0.991349   -1.455577
     11          9           0       -1.245764   -1.172405    0.630827
     12          9           0       -2.215871    0.324152   -0.709096
     13          9           0       -0.923548    1.007685    0.982909
 ---------------------------------------------------------------------
                    Distance matrix (angstroms):
                    1          2          3          4          5
     1  C    0.000000
     2  C    1.501229   0.000000
     3  H    1.097022   2.140046   0.000000
     4  H    1.090355   2.136650   1.784180   0.000000
     5  H    1.095777   2.144034   1.766879   1.788753   0.000000
     6  C    2.586427   1.532539   2.869235   3.509316   2.825405
     7  O    2.406255   1.232100   3.089467   2.548774   3.145238
     8  C    3.493913   2.531863   4.026905   4.346845   3.328176
     9  H    3.402303   2.149953   3.550888   4.221695   3.834952
    10  H    2.656162   2.177330   2.588415   3.716671   2.744323
    11  F    4.202962   2.998536   4.914717   4.824783   4.166227
    12  F    4.646505   3.757093   4.974321   5.595303   4.411584
    13  F    3.352421   2.929649   4.014156   4.140326   2.772376
                    6          7          8          9         10
     6  C    0.000000
     7  O    2.398189   0.000000
     8  C    1.505053   3.177502   0.000000
     9  H    1.092809   2.591191   2.110444   0.000000
    10  H    1.092247   3.262408   2.105974   1.780427   0.000000
    11  F    2.415059   3.109806   1.382347   2.638487   3.315637
    12  F    2.389690   4.436346   1.392516   2.647418   2.572414
    13  F    2.401372   3.718878   1.397570   3.316779   2.665890
                   11         12         13
    11  F    0.000000
    12  F    2.230736   0.000000
    13  F    2.231721   2.236112   0.000000
 Stoichiometry    C4H5F3O
 Framework group  C1[X(C4H5F3O)]
 Deg. of freedom    33
 Full point group                 C1      NOp   1
 RotChk:  IX=0 Diff= 1.58D-16
 Largest Abelian subgroup         C1      NOp   1
 Largest concise Abelian subgroup C1      NOp   1
                         Standard orientation:                         
 ---------------------------------------------------------------------
 Center     Atomic      Atomic             Coordinates (Angstroms)
 Number     Number       Type             X           Y           Z
 ---------------------------------------------------------------------
      1          6           0        2.309459   -1.004606   -0.096126
      2          6           0        1.468547    0.203897    0.197259
      3          1           0        2.620340   -1.480540    0.842115
      4          1           0        3.194146   -0.715613   -0.664182
      5          1           0        1.730047   -1.743254   -0.661288
      6          6           0        0.145265   -0.032033    0.933423
      7          8           0        1.812711    1.349816   -0.096833
      8          6           0       -1.045304   -0.034478    0.012704
      9          1           0       -0.001091    0.770441    1.660642
     10          1           0        0.153713   -0.991349    1.455577
     11          9           0       -1.245764    1.172405   -0.630827
     12          9           0       -2.215871   -0.324153    0.709096
     13          9           0       -0.923548   -1.007685   -0.982909
 ---------------------------------------------------------------------
 Rotational constants (GHZ):      3.3904736      1.3756121      1.2317053
 Leave Link  202 at Wed May 26 09:21:08 2021, MaxMem=  2147483648 cpu:         0.0
 (Enter /opt/cluster/programs/g09_d.01/g09/l9999.exe)
 1\1\GINC-NODE10\FOpt\RwB97XD\6-31+G\C4H5F3O1\BOITTIER\26-May-2021\0\\#
 p wB97XD/6-31+G Opt=ModRedun\\N.pdb\\0,1\C,2.309459,1.004606,0.096126\
 C,1.468547,-0.203897,-0.197259\H,2.62034,1.480541,-0.842115\H,3.194146
 ,0.715614,0.664182\H,1.730047,1.743254,0.661288\C,0.145265,0.032033,-0
 .933423\O,1.812711,-1.349816,0.096833\C,-1.045304,0.034478,-0.012704\H
 ,-0.001091,-0.770441,-1.660642\H,0.153713,0.991349,-1.455577\F,-1.2457
 64,-1.172405,0.630827\F,-2.215871,0.324152,-0.709096\F,-0.923548,1.007
 685,0.982909\\Version=ES64L-G09RevD.01\State=1-A\HF=-529.9252475\RMSD=
 3.211e-09\RMSF=4.568e-04\Dipole=0.6927754,1.1578681,-0.9407051\Quadrup
 ole=-1.223421,-1.566562,2.789983,4.9750512,-0.6838285,0.4411265\PG=C01
  [X(C4H5F3O1)]\\@


 Discoveries are often made by not following instructions,
 by going off the main road, by trying the untried.
 -- Frank Tyger
 Job cpu time:       0 days  0 hours  0 minutes 49.8 seconds.
 File lengths (MBytes):  RWF=      7 Int=      0 D2E=      0 Chk=      3 Scr=      1
 Normal termination of Gaussian 09 at Wed May 26 09:21:08 2021.
