 Entering Gaussian System, Link 0=/opt/cluster/programs/g09_d.01/g09//g09
 Input=/home/unibas/boittier/RDKit_G2/O.pdb/SCAN_1_2_6_8_S_17_20.0/1_SCAN_1_2_6_8_F/1_SCAN_O.pdb.com
 Output=/scratch/boittier/1_SCAN_O.pdb/1_SCAN_O.pdb.out
 Initial command:
 /opt/cluster/programs/g09_d.01/g09/l1.exe "/scratch/boittier/1_SCAN_O.pdb/Gau-172609.inp" -scrdir="/scratch/boittier/1_SCAN_O.pdb/"
 Entering Link 1 = /opt/cluster/programs/g09_d.01/g09/l1.exe PID=    172610.
  
 Copyright (c) 1988,1990,1992,1993,1995,1998,2003,2009,2013,
            Gaussian, Inc.  All Rights Reserved.
  
 This is part of the Gaussian(R) 09 program.  It is based on
 the Gaussian(R) 03 system (copyright 2003, Gaussian, Inc.),
 the Gaussian(R) 98 system (copyright 1998, Gaussian, Inc.),
 the Gaussian(R) 94 system (copyright 1995, Gaussian, Inc.),
 the Gaussian 92(TM) system (copyright 1992, Gaussian, Inc.),
 the Gaussian 90(TM) system (copyright 1990, Gaussian, Inc.),
 the Gaussian 88(TM) system (copyright 1988, Gaussian, Inc.),
 the Gaussian 86(TM) system (copyright 1986, Carnegie Mellon
 University), and the Gaussian 82(TM) system (copyright 1983,
 Carnegie Mellon University). Gaussian is a federally registered
 trademark of Gaussian, Inc.
  
 This software contains proprietary and confidential information,
 including trade secrets, belonging to Gaussian, Inc.
  
 This software is provided under written license and may be
 used, copied, transmitted, or stored only in accord with that
 written license.
  
 The following legend is applicable only to US Government
 contracts under FAR:
  
                    RESTRICTED RIGHTS LEGEND
  
 Use, reproduction and disclosure by the US Government is
 subject to restrictions as set forth in subparagraphs (a)
 and (c) of the Commercial Computer Software - Restricted
 Rights clause in FAR 52.227-19.
  
 Gaussian, Inc.
 340 Quinnipiac St., Bldg. 40, Wallingford CT 06492
  
  
 ---------------------------------------------------------------
 Warning -- This program may not be used in any manner that
 competes with the business of Gaussian, Inc. or will provide
 assistance to any competitor of Gaussian, Inc.  The licensee
 of this program is prohibited from giving any competitor of
 Gaussian, Inc. access to this program.  By using this program,
 the user acknowledges that Gaussian, Inc. is engaged in the
 business of creating and licensing software in the field of
 computational chemistry and represents and warrants to the
 licensee that it is not a competitor of Gaussian, Inc. and that
 it will not use this program in any manner prohibited above.
 ---------------------------------------------------------------
  

 Cite this work as:
 Gaussian 09, Revision D.01,
 M. J. Frisch, G. W. Trucks, H. B. Schlegel, G. E. Scuseria, 
 M. A. Robb, J. R. Cheeseman, G. Scalmani, V. Barone, B. Mennucci, 
 G. A. Petersson, H. Nakatsuji, M. Caricato, X. Li, H. P. Hratchian, 
 A. F. Izmaylov, J. Bloino, G. Zheng, J. L. Sonnenberg, M. Hada, 
 M. Ehara, K. Toyota, R. Fukuda, J. Hasegawa, M. Ishida, T. Nakajima, 
 Y. Honda, O. Kitao, H. Nakai, T. Vreven, J. A. Montgomery, Jr., 
 J. E. Peralta, F. Ogliaro, M. Bearpark, J. J. Heyd, E. Brothers, 
 K. N. Kudin, V. N. Staroverov, T. Keith, R. Kobayashi, J. Normand, 
 K. Raghavachari, A. Rendell, J. C. Burant, S. S. Iyengar, J. Tomasi, 
 M. Cossi, N. Rega, J. M. Millam, M. Klene, J. E. Knox, J. B. Cross, 
 V. Bakken, C. Adamo, J. Jaramillo, R. Gomperts, R. E. Stratmann, 
 O. Yazyev, A. J. Austin, R. Cammi, C. Pomelli, J. W. Ochterski, 
 R. L. Martin, K. Morokuma, V. G. Zakrzewski, G. A. Voth, 
 P. Salvador, J. J. Dannenberg, S. Dapprich, A. D. Daniels, 
 O. Farkas, J. B. Foresman, J. V. Ortiz, J. Cioslowski, 
 and D. J. Fox, Gaussian, Inc., Wallingford CT, 2013.
 
 ******************************************
 Gaussian 09:  ES64L-G09RevD.01 24-Apr-2013
                26-May-2021 
 ******************************************
 %chk=/home/unibas/boittier/RDKit_G2/O.pdb/SCAN_1_2_6_8_S_17_20.0/1_SCAN_1_2_6_8_
 F/O.pdb.chk
 %nproc=8
 Will use up to    8 processors via shared memory.
 %mem=16GB
 -----------------------------
 #p wB97XD/6-31+G Opt=ModRedun
 -----------------------------
 1/14=-1,18=120,19=15,26=3,38=1/1,3;
 2/9=110,12=2,17=6,18=5,40=1/2;
 3/5=1,6=6,7=10,11=2,16=1,25=1,30=1,71=1,74=-58/1,2,3;
 4//1;
 5/5=2,38=5/2;
 6/7=2,8=2,9=2,10=2,28=1/1;
 7//1,2,3,16;
 1/14=-1,18=20,19=15,26=3/3(2);
 2/9=110/2;
 99//99;
 2/9=110/2;
 3/5=1,6=6,7=10,11=2,16=1,25=1,30=1,71=1,74=-58/1,2,3;
 4/5=5,16=3,69=1/1;
 5/5=2,38=5/2;
 7//1,2,3,16;
 1/14=-1,18=20,19=15,26=3/3(-5);
 2/9=110/2;
 6/7=2,8=2,9=2,10=2,19=2,28=1/1;
 99/9=1/99;
 Leave Link    1 at Wed May 26 09:01:13 2021, MaxMem=  2147483648 cpu:         0.2
 (Enter /opt/cluster/programs/g09_d.01/g09/l101.exe)
 -----
 O.pdb
 -----
 Symbolic Z-matrix:
 Charge =  0 Multiplicity = 1
 C                     1.78488  -0.55765  -0.07861 
 C                     0.48649   0.17191   0.0706 
 H                     1.83389  -1.41021   0.60187 
 H                     2.6142    0.12497   0.10624 
 H                     1.85692  -0.94184  -1.10152 
 O                    -0.57048  -0.69034   0.17773 
 O                     0.3377    1.39322   0.02079 
 C                    -1.90256  -0.15754  -0.10514 
 H                    -2.18266   0.58307   0.6456 
 H                    -2.56089  -1.0218   -0.06612 
 H                    -1.91213   0.30248  -1.09529 
 
 The following ModRedundant input section has been read:
 D       1       2       6       8 F                                           
 
 NAtoms=     11 NQM=       11 NQMF=       0 NMMI=      0 NMMIF=      0
                NMic=       0 NMicF=      0.
                    Isotopes and Nuclear Properties:
 (Nuclear quadrupole moments (NQMom) in fm**2, nuclear magnetic moments (NMagM)
  in nuclear magnetons)

  Atom         1           2           3           4           5           6           7           8           9          10
 IAtWgt=          12          12           1           1           1          16          16          12           1           1
 AtmWgt=  12.0000000  12.0000000   1.0078250   1.0078250   1.0078250  15.9949146  15.9949146  12.0000000   1.0078250   1.0078250
 NucSpn=           0           0           1           1           1           0           0           0           1           1
 AtZEff=   0.0000000   0.0000000   0.0000000   0.0000000   0.0000000   0.0000000   0.0000000   0.0000000   0.0000000   0.0000000
 NQMom=    0.0000000   0.0000000   0.0000000   0.0000000   0.0000000   0.0000000   0.0000000   0.0000000   0.0000000   0.0000000
 NMagM=    0.0000000   0.0000000   2.7928460   2.7928460   2.7928460   0.0000000   0.0000000   0.0000000   2.7928460   2.7928460
 AtZNuc=   6.0000000   6.0000000   1.0000000   1.0000000   1.0000000   8.0000000   8.0000000   6.0000000   1.0000000   1.0000000

  Atom        11
 IAtWgt=           1
 AtmWgt=   1.0078250
 NucSpn=           1
 AtZEff=   0.0000000
 NQMom=    0.0000000
 NMagM=    2.7928460
 AtZNuc=   1.0000000
 Leave Link  101 at Wed May 26 09:01:14 2021, MaxMem=  2147483648 cpu:         4.2
 (Enter /opt/cluster/programs/g09_d.01/g09/l103.exe)

 GradGradGradGradGradGradGradGradGradGradGradGradGradGradGradGradGradGrad
 Berny optimization.
 Initialization pass.
                           ----------------------------
                           !    Initial Parameters    !
                           ! (Angstroms and Degrees)  !
 --------------------------                            --------------------------
 ! Name  Definition              Value          Derivative Info.                !
 --------------------------------------------------------------------------------
 ! R1    R(1,2)                  1.4968         estimate D2E/DX2                !
 ! R2    R(1,3)                  1.0919         estimate D2E/DX2                !
 ! R3    R(1,4)                  1.0899         estimate D2E/DX2                !
 ! R4    R(1,5)                  1.095          estimate D2E/DX2                !
 ! R5    R(2,6)                  1.3683         estimate D2E/DX2                !
 ! R6    R(2,7)                  1.2314         estimate D2E/DX2                !
 ! R7    R(6,8)                  1.4623         estimate D2E/DX2                !
 ! R8    R(8,9)                  1.0911         estimate D2E/DX2                !
 ! R9    R(8,10)                 1.0871         estimate D2E/DX2                !
 ! R10   R(8,11)                 1.0918         estimate D2E/DX2                !
 ! A1    A(2,1,3)              110.9395         estimate D2E/DX2                !
 ! A2    A(2,1,4)              109.7474         estimate D2E/DX2                !
 ! A3    A(2,1,5)              108.7353         estimate D2E/DX2                !
 ! A4    A(3,1,4)              110.436          estimate D2E/DX2                !
 ! A5    A(3,1,5)              107.7734         estimate D2E/DX2                !
 ! A6    A(4,1,5)              109.1534         estimate D2E/DX2                !
 ! A7    A(1,2,6)              111.7615         estimate D2E/DX2                !
 ! A8    A(1,2,7)              125.7486         estimate D2E/DX2                !
 ! A9    A(6,2,7)              122.3352         estimate D2E/DX2                !
 ! A10   A(2,6,8)              117.3187         estimate D2E/DX2                !
 ! A11   A(6,8,9)              110.3687         estimate D2E/DX2                !
 ! A12   A(6,8,10)             104.7761         estimate D2E/DX2                !
 ! A13   A(6,8,11)             109.6895         estimate D2E/DX2                !
 ! A14   A(9,8,10)             111.0666         estimate D2E/DX2                !
 ! A15   A(9,8,11)             109.6167         estimate D2E/DX2                !
 ! A16   A(10,8,11)            111.2346         estimate D2E/DX2                !
 ! D1    D(3,1,2,6)            -42.5842         estimate D2E/DX2                !
 ! D2    D(3,1,2,7)            141.8716         estimate D2E/DX2                !
 ! D3    D(4,1,2,6)           -164.8993         estimate D2E/DX2                !
 ! D4    D(4,1,2,7)             19.5564         estimate D2E/DX2                !
 ! D5    D(5,1,2,6)             75.7692         estimate D2E/DX2                !
 ! D6    D(5,1,2,7)            -99.775          estimate D2E/DX2                !
 ! D7    D(1,2,6,8)           -160.6146         Frozen                          !
 ! D8    D(7,2,6,8)             15.1058         estimate D2E/DX2                !
 ! D9    D(2,6,8,9)            -66.2612         estimate D2E/DX2                !
 ! D10   D(2,6,8,10)           174.1039         estimate D2E/DX2                !
 ! D11   D(2,6,8,11)            54.6171         estimate D2E/DX2                !
 --------------------------------------------------------------------------------
 Trust Radius=3.00D-01 FncErr=1.00D-07 GrdErr=1.00D-06
 Number of steps in this run=     47 maximum allowed number of steps=    100.
 GradGradGradGradGradGradGradGradGradGradGradGradGradGradGradGradGradGrad

 Leave Link  103 at Wed May 26 09:01:14 2021, MaxMem=  2147483648 cpu:         0.1
 (Enter /opt/cluster/programs/g09_d.01/g09/l202.exe)
                          Input orientation:                          
 ---------------------------------------------------------------------
 Center     Atomic      Atomic             Coordinates (Angstroms)
 Number     Number       Type             X           Y           Z
 ---------------------------------------------------------------------
      1          6           0        1.784878   -0.557652   -0.078612
      2          6           0        0.486487    0.171908    0.070597
      3          1           0        1.833890   -1.410208    0.601867
      4          1           0        2.614201    0.124966    0.106236
      5          1           0        1.856920   -0.941837   -1.101515
      6          8           0       -0.570477   -0.690343    0.177731
      7          8           0        0.337702    1.393223    0.020786
      8          6           0       -1.902556   -0.157543   -0.105138
      9          1           0       -2.182655    0.583070    0.645599
     10          1           0       -2.560893   -1.021796   -0.066121
     11          1           0       -1.912126    0.302480   -1.095292
 ---------------------------------------------------------------------
                    Distance matrix (angstroms):
                    1          2          3          4          5
     1  C    0.000000
     2  C    1.496777   0.000000
     3  H    1.091927   2.144955   0.000000
     4  H    1.089914   2.128530   1.792009   0.000000
     5  H    1.095043   2.119519   1.766752   1.780507   0.000000
     6  O    2.372976   1.368257   2.545403   3.288163   2.755354
     7  O    2.431072   1.231352   3.230396   2.607341   3.003346
     8  C    3.709172   2.418046   4.003755   4.530517   3.967561
     9  H    4.191306   2.761159   4.484161   4.848773   4.657887
    10  H    4.370505   3.275690   4.462196   5.303430   4.538227
    11  H    3.929542   2.670148   4.454917   4.686450   3.969140
                    6          7          8          9         10
     6  O    0.000000
     7  O    2.278304   0.000000
     8  C    1.462301   2.727542   0.000000
     9  H    2.107036   2.720099   1.091132   0.000000
    10  H    2.032506   3.773821   1.087135   1.795885   0.000000
    11  H    2.099121   2.738079   1.091841   1.783989   1.798277
                   11
    11  H    0.000000
 Stoichiometry    C3H6O2
 Framework group  C1[X(C3H6O2)]
 Deg. of freedom    27
 Full point group                 C1      NOp   1
 Largest Abelian subgroup         C1      NOp   1
 Largest concise Abelian subgroup C1      NOp   1
                         Standard orientation:                         
 ---------------------------------------------------------------------
 Center     Atomic      Atomic             Coordinates (Angstroms)
 Number     Number       Type             X           Y           Z
 ---------------------------------------------------------------------
      1          6           0       -1.784878   -0.557652    0.078612
      2          6           0       -0.486487    0.171908   -0.070597
      3          1           0       -1.833890   -1.410208   -0.601867
      4          1           0       -2.614201    0.124967   -0.106236
      5          1           0       -1.856920   -0.941837    1.101515
      6          8           0        0.570477   -0.690343   -0.177731
      7          8           0       -0.337702    1.393223   -0.020786
      8          6           0        1.902556   -0.157543    0.105138
      9          1           0        2.182655    0.583070   -0.645599
     10          1           0        2.560893   -1.021796    0.066121
     11          1           0        1.912126    0.302480    1.095292
 ---------------------------------------------------------------------
 Rotational constants (GHZ):      9.8627322      4.0586172      3.0124064
 Leave Link  202 at Wed May 26 09:01:14 2021, MaxMem=  2147483648 cpu:         0.0
 (Enter /opt/cluster/programs/g09_d.01/g09/l301.exe)
 Standard basis: 6-31+G (6D, 7F)
 Ernie: Thresh=  0.10000D-02 Tol=  0.10000D-05 Strict=F.
 There are    77 symmetry adapted cartesian basis functions of A   symmetry.
 There are    77 symmetry adapted basis functions of A   symmetry.
    77 basis functions,   154 primitive gaussians,    77 cartesian basis functions
    20 alpha electrons       20 beta electrons
       nuclear repulsion energy       179.4399479288 Hartrees.
 IExCor= 4639 DFT=T Ex+Corr=wB97XD ExCW=0 ScaHFX=  1.000000
 ScaDFX=  1.000000  1.000000  1.000000  1.000000 ScalE2=  1.000000  1.000000
 IRadAn=      0 IRanWt=     -1 IRanGd=            0 ICorTp=0 IEmpDi=121
  HFx wShort=  0.000000 wLong=  0.200000 cFull=  0.222036 cShort=  0.000000 cLong=  0.777964
  DFx wShort=  0.000000 wLong=  0.200000 cFull=  0.000000 cShort=  0.000000 cLong=  1.000000
 NAtoms=   11 NActive=   11 NUniq=   11 SFac= 1.00D+00 NAtFMM=   60 NAOKFM=F Big=F
 Integral buffers will be    131072 words long.
 Raffenetti 2 integral format.
 Two-electron integral symmetry is turned on.
 R6Disp:  Grimme-D2 Dispersion energy=       -0.0031074960 Hartrees.
 Nuclear repulsion after empirical dispersion term =      179.4368404328 Hartrees.
 Leave Link  301 at Wed May 26 09:01:14 2021, MaxMem=  2147483648 cpu:         0.3
 (Enter /opt/cluster/programs/g09_d.01/g09/l302.exe)
 NPDir=0 NMtPBC=     1 NCelOv=     1 NCel=       1 NClECP=     1 NCelD=      1
         NCelK=      1 NCelE2=     1 NClLst=     1 CellRange=     0.0.
 One-electron integrals computed using PRISM.
 NBasis=    77 RedAO= T EigKep=  9.08D-05  NBF=    77
 NBsUse=    77 1.00D-06 EigRej= -1.00D+00 NBFU=    77
 Precomputing XC quadrature grid using
 IXCGrd= 4 IRadAn=           0 IRanWt=          -1 IRanGd=           0 AccXCQ= 0.00D+00.
 Generated NRdTot=       0 NPtTot=           0 NUsed=           0 NTot=          32
 NSgBfM=    77    77    77    77    77 MxSgAt=    11 MxSgA2=    11.
 Leave Link  302 at Wed May 26 09:01:14 2021, MaxMem=  2147483648 cpu:         0.9
 (Enter /opt/cluster/programs/g09_d.01/g09/l303.exe)
 DipDrv:  MaxL=1.
 Leave Link  303 at Wed May 26 09:01:14 2021, MaxMem=  2147483648 cpu:         0.2
 (Enter /opt/cluster/programs/g09_d.01/g09/l401.exe)
 ExpMin= 4.38D-02 ExpMax= 5.48D+03 ExpMxC= 8.25D+02 IAcc=2 IRadAn=         4 AccDes= 0.00D+00
 Harris functional with IExCor= 4639 and IRadAn=       4 diagonalized for initial guess.
 HarFok:  IExCor= 4639 AccDes= 0.00D+00 IRadAn=         4 IDoV= 1 UseB2=F ITyADJ=14
 ICtDFT=  3500011 ScaDFX=  1.000000  1.000000  1.000000  1.000000
 FoFCou: FMM=F IPFlag=           0 FMFlag=      100000 FMFlg1=           0
         NFxFlg=           0 DoJE=T BraDBF=F KetDBF=T FulRan=T
         wScrn=  0.000000 ICntrl=     500 IOpCl=  0 I1Cent=   200000004 NGrid=           0
         NMat0=    1 NMatS0=      1 NMatT0=    0 NMatD0=    1 NMtDS0=    0 NMtDT0=    0
 Petite list used in FoFCou.
 Harris En= -257.368466739977    
 JPrj=0 DoOrth=F DoCkMO=F.
 Leave Link  401 at Wed May 26 09:01:14 2021, MaxMem=  2147483648 cpu:         1.4
 (Enter /opt/cluster/programs/g09_d.01/g09/l502.exe)
 Closed shell SCF:
 Using DIIS extrapolation, IDIIS=  1040.
 Integral symmetry usage will be decided dynamically.
 Keep R1 ints in memory in canonical form, NReq=9956864.
 IVT=       37546 IEndB=       37546 NGot=  2147483648 MDV=  2138425091
 LenX=  2138425091 LenY=  2138418721
 Requested convergence on RMS density matrix=1.00D-08 within 128 cycles.
 Requested convergence on MAX density matrix=1.00D-06.
 Requested convergence on             energy=1.00D-06.
 No special actions if energy rises.
 FoFCou: FMM=F IPFlag=           0 FMFlag=           0 FMFlg1=           0
         NFxFlg=           0 DoJE=F BraDBF=F KetDBF=F FulRan=T
         wScrn=  0.000000 ICntrl=     600 IOpCl=  0 I1Cent=           0 NGrid=           0
         NMat0=    1 NMatS0=   3003 NMatT0=    0 NMatD0=    1 NMtDS0=    0 NMtDT0=    0
 Symmetry not used in FoFCou.

 Cycle   1  Pass 1  IDiag  1:
 E= -268.123853336811    
 DIIS: error= 2.49D-02 at cycle   1 NSaved=   1.
 NSaved= 1 IEnMin= 1 EnMin= -268.123853336811     IErMin= 1 ErrMin= 2.49D-02
 ErrMax= 2.49D-02  0.00D+00 EMaxC= 1.00D-01 BMatC= 1.48D-01 BMatP= 1.48D-01
 IDIUse=3 WtCom= 7.51D-01 WtEn= 2.49D-01
 Coeff-Com:  0.100D+01
 Coeff-En:   0.100D+01
 Coeff:      0.100D+01
 Gap=     0.503 Goal=   None    Shift=    0.000
 GapD=    0.503 DampG=2.000 DampE=0.500 DampFc=1.0000 IDamp=-1.
 RMSDP=1.04D-02 MaxDP=2.14D-01              OVMax= 1.06D-01

 Cycle   2  Pass 1  IDiag  1:
 E= -268.134801654676     Delta-E=       -0.010948317864 Rises=F Damp=F
 DIIS: error= 3.46D-02 at cycle   2 NSaved=   2.
 NSaved= 2 IEnMin= 2 EnMin= -268.134801654676     IErMin= 1 ErrMin= 2.49D-02
 ErrMax= 3.46D-02  0.00D+00 EMaxC= 1.00D-01 BMatC= 1.12D-01 BMatP= 1.48D-01
 IDIUse=3 WtCom= 6.54D-01 WtEn= 3.46D-01
 Coeff-Com:  0.460D+00 0.540D+00
 Coeff-En:   0.466D+00 0.534D+00
 Coeff:      0.462D+00 0.538D+00
 Gap=     0.442 Goal=   None    Shift=    0.000
 RMSDP=5.94D-03 MaxDP=9.92D-02 DE=-1.09D-02 OVMax= 7.53D-02

 Cycle   3  Pass 1  IDiag  1:
 E= -268.212131515939     Delta-E=       -0.077329861263 Rises=F Damp=F
 DIIS: error= 1.04D-02 at cycle   3 NSaved=   3.
 NSaved= 3 IEnMin= 3 EnMin= -268.212131515939     IErMin= 3 ErrMin= 1.04D-02
 ErrMax= 1.04D-02  0.00D+00 EMaxC= 1.00D-01 BMatC= 1.01D-02 BMatP= 1.12D-01
 IDIUse=3 WtCom= 8.96D-01 WtEn= 1.04D-01
 Coeff-Com:  0.108D+00 0.249D+00 0.644D+00
 Coeff-En:   0.000D+00 0.000D+00 0.100D+01
 Coeff:      0.965D-01 0.223D+00 0.681D+00
 Gap=     0.444 Goal=   None    Shift=    0.000
 RMSDP=1.67D-03 MaxDP=2.62D-02 DE=-7.73D-02 OVMax= 4.33D-02

 Cycle   4  Pass 1  IDiag  1:
 E= -268.217896478833     Delta-E=       -0.005764962894 Rises=F Damp=F
 DIIS: error= 4.85D-03 at cycle   4 NSaved=   4.
 NSaved= 4 IEnMin= 4 EnMin= -268.217896478833     IErMin= 4 ErrMin= 4.85D-03
 ErrMax= 4.85D-03  0.00D+00 EMaxC= 1.00D-01 BMatC= 2.39D-03 BMatP= 1.01D-02
 IDIUse=3 WtCom= 9.52D-01 WtEn= 4.85D-02
 Coeff-Com: -0.219D-02 0.466D-01 0.374D+00 0.581D+00
 Coeff-En:   0.000D+00 0.000D+00 0.193D+00 0.807D+00
 Coeff:     -0.208D-02 0.443D-01 0.366D+00 0.592D+00
 Gap=     0.431 Goal=   None    Shift=    0.000
 RMSDP=1.37D-03 MaxDP=3.08D-02 DE=-5.76D-03 OVMax= 1.18D-02

 Cycle   5  Pass 1  IDiag  1:
 E= -268.219610452506     Delta-E=       -0.001713973673 Rises=F Damp=F
 DIIS: error= 1.20D-03 at cycle   5 NSaved=   5.
 NSaved= 5 IEnMin= 5 EnMin= -268.219610452506     IErMin= 5 ErrMin= 1.20D-03
 ErrMax= 1.20D-03  0.00D+00 EMaxC= 1.00D-01 BMatC= 1.13D-04 BMatP= 2.39D-03
 IDIUse=3 WtCom= 9.88D-01 WtEn= 1.20D-02
 Coeff-Com: -0.603D-02 0.785D-02 0.154D+00 0.311D+00 0.534D+00
 Coeff-En:   0.000D+00 0.000D+00 0.000D+00 0.000D+00 0.100D+01
 Coeff:     -0.596D-02 0.776D-02 0.152D+00 0.307D+00 0.539D+00
 Gap=     0.427 Goal=   None    Shift=    0.000
 RMSDP=1.50D-04 MaxDP=2.21D-03 DE=-1.71D-03 OVMax= 2.53D-03

 Cycle   6  Pass 1  IDiag  1:
 E= -268.219700748404     Delta-E=       -0.000090295899 Rises=F Damp=F
 DIIS: error= 1.23D-04 at cycle   6 NSaved=   6.
 NSaved= 6 IEnMin= 6 EnMin= -268.219700748404     IErMin= 6 ErrMin= 1.23D-04
 ErrMax= 1.23D-04  0.00D+00 EMaxC= 1.00D-01 BMatC= 2.23D-06 BMatP= 1.13D-04
 IDIUse=3 WtCom= 9.99D-01 WtEn= 1.23D-03
 Coeff-Com: -0.950D-04-0.645D-02-0.297D-01-0.444D-01 0.329D-01 0.105D+01
 Coeff-En:   0.000D+00 0.000D+00 0.000D+00 0.000D+00 0.000D+00 0.100D+01
 Coeff:     -0.949D-04-0.645D-02-0.297D-01-0.443D-01 0.328D-01 0.105D+01
 Gap=     0.428 Goal=   None    Shift=    0.000
 RMSDP=2.13D-04 MaxDP=5.67D-03 DE=-9.03D-05 OVMax= 1.04D-03

 Cycle   7  Pass 1  IDiag  1:
 E= -268.219704978037     Delta-E=       -0.000004229632 Rises=F Damp=F
 DIIS: error= 4.87D-05 at cycle   7 NSaved=   7.
 NSaved= 7 IEnMin= 7 EnMin= -268.219704978037     IErMin= 7 ErrMin= 4.87D-05
 ErrMax= 4.87D-05  0.00D+00 EMaxC= 1.00D-01 BMatC= 2.51D-07 BMatP= 2.23D-06
 IDIUse=1 WtCom= 1.00D+00 WtEn= 0.00D+00
 Coeff-Com:  0.468D-03-0.264D-02-0.191D-01-0.363D-01-0.238D-01 0.319D+00
 Coeff-Com:  0.762D+00
 Coeff:      0.468D-03-0.264D-02-0.191D-01-0.363D-01-0.238D-01 0.319D+00
 Coeff:      0.762D+00
 Gap=     0.428 Goal=   None    Shift=    0.000
 RMSDP=3.31D-05 MaxDP=7.70D-04 DE=-4.23D-06 OVMax= 2.61D-04

 Cycle   8  Pass 1  IDiag  1:
 E= -268.219705377368     Delta-E=       -0.000000399331 Rises=F Damp=F
 DIIS: error= 1.40D-05 at cycle   8 NSaved=   8.
 NSaved= 8 IEnMin= 8 EnMin= -268.219705377368     IErMin= 8 ErrMin= 1.40D-05
 ErrMax= 1.40D-05  0.00D+00 EMaxC= 1.00D-01 BMatC= 1.69D-08 BMatP= 2.51D-07
 IDIUse=1 WtCom= 1.00D+00 WtEn= 0.00D+00
 Coeff-Com: -0.395D-04 0.797D-03 0.453D-02 0.562D-02-0.120D-02-0.138D+00
 Coeff-Com: -0.500D-01 0.118D+01
 Coeff:     -0.395D-04 0.797D-03 0.453D-02 0.562D-02-0.120D-02-0.138D+00
 Coeff:     -0.500D-01 0.118D+01
 Gap=     0.428 Goal=   None    Shift=    0.000
 RMSDP=1.06D-05 MaxDP=1.61D-04 DE=-3.99D-07 OVMax= 1.66D-04

 Cycle   9  Pass 1  IDiag  1:
 E= -268.219705422192     Delta-E=       -0.000000044824 Rises=F Damp=F
 DIIS: error= 2.19D-06 at cycle   9 NSaved=   9.
 NSaved= 9 IEnMin= 9 EnMin= -268.219705422192     IErMin= 9 ErrMin= 2.19D-06
 ErrMax= 2.19D-06  0.00D+00 EMaxC= 1.00D-01 BMatC= 3.80D-10 BMatP= 1.69D-08
 IDIUse=1 WtCom= 1.00D+00 WtEn= 0.00D+00
 Coeff-Com: -0.948D-05 0.768D-05 0.222D-03 0.602D-03 0.195D-02 0.552D-02
 Coeff-Com: -0.229D-01-0.136D+00 0.115D+01
 Coeff:     -0.948D-05 0.768D-05 0.222D-03 0.602D-03 0.195D-02 0.552D-02
 Coeff:     -0.229D-01-0.136D+00 0.115D+01
 Gap=     0.428 Goal=   None    Shift=    0.000
 RMSDP=2.47D-06 MaxDP=5.44D-05 DE=-4.48D-08 OVMax= 2.23D-05

 Cycle  10  Pass 1  IDiag  1:
 E= -268.219705423257     Delta-E=       -0.000000001065 Rises=F Damp=F
 DIIS: error= 5.03D-07 at cycle  10 NSaved=  10.
 NSaved=10 IEnMin=10 EnMin= -268.219705423257     IErMin=10 ErrMin= 5.03D-07
 ErrMax= 5.03D-07  0.00D+00 EMaxC= 1.00D-01 BMatC= 4.27D-11 BMatP= 3.80D-10
 IDIUse=1 WtCom= 1.00D+00 WtEn= 0.00D+00
 Coeff-Com:  0.852D-07-0.389D-04-0.175D-03-0.159D-03 0.659D-03 0.854D-02
 Coeff-Com: -0.417D-02-0.953D-01 0.325D+00 0.765D+00
 Coeff:      0.852D-07-0.389D-04-0.175D-03-0.159D-03 0.659D-03 0.854D-02
 Coeff:     -0.417D-02-0.953D-01 0.325D+00 0.765D+00
 Gap=     0.428 Goal=   None    Shift=    0.000
 RMSDP=3.80D-07 MaxDP=8.53D-06 DE=-1.06D-09 OVMax= 2.99D-06

 Cycle  11  Pass 1  IDiag  1:
 E= -268.219705423322     Delta-E=       -0.000000000065 Rises=F Damp=F
 DIIS: error= 1.39D-07 at cycle  11 NSaved=  11.
 NSaved=11 IEnMin=11 EnMin= -268.219705423322     IErMin=11 ErrMin= 1.39D-07
 ErrMax= 1.39D-07  0.00D+00 EMaxC= 1.00D-01 BMatC= 3.27D-12 BMatP= 4.27D-11
 IDIUse=1 WtCom= 1.00D+00 WtEn= 0.00D+00
 Coeff-Com:  0.882D-06-0.918D-05-0.615D-04-0.109D-03-0.911D-04 0.104D-02
 Coeff-Com:  0.147D-02-0.317D-02-0.698D-01 0.151D+00 0.920D+00
 Coeff:      0.882D-06-0.918D-05-0.615D-04-0.109D-03-0.911D-04 0.104D-02
 Coeff:      0.147D-02-0.317D-02-0.698D-01 0.151D+00 0.920D+00
 Gap=     0.428 Goal=   None    Shift=    0.000
 RMSDP=1.01D-07 MaxDP=1.42D-06 DE=-6.49D-11 OVMax= 1.75D-06

 Cycle  12  Pass 1  IDiag  1:
 E= -268.219705423327     Delta-E=       -0.000000000006 Rises=F Damp=F
 DIIS: error= 6.04D-08 at cycle  12 NSaved=  12.
 NSaved=12 IEnMin=12 EnMin= -268.219705423327     IErMin=12 ErrMin= 6.04D-08
 ErrMax= 6.04D-08  0.00D+00 EMaxC= 1.00D-01 BMatC= 1.22D-13 BMatP= 3.27D-12
 IDIUse=1 WtCom= 1.00D+00 WtEn= 0.00D+00
 Coeff-Com: -0.154D-06 0.320D-05 0.170D-04 0.225D-04-0.340D-04-0.622D-03
 Coeff-Com:  0.101D-04 0.606D-02-0.105D-01-0.645D-01-0.119D+00 0.119D+01
 Coeff:     -0.154D-06 0.320D-05 0.170D-04 0.225D-04-0.340D-04-0.622D-03
 Coeff:      0.101D-04 0.606D-02-0.105D-01-0.645D-01-0.119D+00 0.119D+01
 Gap=     0.428 Goal=   None    Shift=    0.000
 RMSDP=3.68D-08 MaxDP=7.93D-07 DE=-5.63D-12 OVMax= 8.10D-07

 Cycle  13  Pass 1  IDiag  1:
 E= -268.219705423331     Delta-E=       -0.000000000003 Rises=F Damp=F
 DIIS: error= 2.37D-08 at cycle  13 NSaved=  13.
 NSaved=13 IEnMin=13 EnMin= -268.219705423331     IErMin=13 ErrMin= 2.37D-08
 ErrMax= 2.37D-08  0.00D+00 EMaxC= 1.00D-01 BMatC= 1.04D-14 BMatP= 1.22D-13
 IDIUse=1 WtCom= 1.00D+00 WtEn= 0.00D+00
 Coeff-Com: -0.127D-07-0.331D-06-0.537D-06 0.167D-05 0.165D-04 0.125D-03
 Coeff-Com: -0.980D-04-0.167D-02 0.792D-02 0.117D-01-0.227D-01-0.396D+00
 Coeff-Com:  0.140D+01
 Coeff:     -0.127D-07-0.331D-06-0.537D-06 0.167D-05 0.165D-04 0.125D-03
 Coeff:     -0.980D-04-0.167D-02 0.792D-02 0.117D-01-0.227D-01-0.396D+00
 Coeff:      0.140D+01
 Gap=     0.428 Goal=   None    Shift=    0.000
 RMSDP=1.17D-08 MaxDP=1.67D-07 DE=-3.47D-12 OVMax= 3.48D-07

 Cycle  14  Pass 1  IDiag  1:
 E= -268.219705423332     Delta-E=       -0.000000000001 Rises=F Damp=F
 DIIS: error= 4.74D-09 at cycle  14 NSaved=  14.
 NSaved=14 IEnMin=14 EnMin= -268.219705423332     IErMin=14 ErrMin= 4.74D-09
 ErrMax= 4.74D-09  0.00D+00 EMaxC= 1.00D-01 BMatC= 5.13D-16 BMatP= 1.04D-14
 IDIUse=1 WtCom= 1.00D+00 WtEn= 0.00D+00
 Coeff-Com:  0.123D-07-0.109D-07-0.611D-06-0.156D-05-0.390D-05-0.145D-04
 Coeff-Com:  0.372D-04 0.254D-03-0.208D-02-0.365D-03 0.135D-01 0.686D-01
 Coeff-Com: -0.481D+00 0.140D+01
 Coeff:      0.123D-07-0.109D-07-0.611D-06-0.156D-05-0.390D-05-0.145D-04
 Coeff:      0.372D-04 0.254D-03-0.208D-02-0.365D-03 0.135D-01 0.686D-01
 Coeff:     -0.481D+00 0.140D+01
 Gap=     0.428 Goal=   None    Shift=    0.000
 RMSDP=2.46D-09 MaxDP=3.39D-08 DE=-9.66D-13 OVMax= 7.90D-08

 SCF Done:  E(RwB97XD) =  -268.219705423     A.U. after   14 cycles
            NFock= 14  Conv=0.25D-08     -V/T= 2.0057
 KE= 2.666870940092D+02 PE=-9.865130775269D+02 EE= 2.721694376615D+02
 Leave Link  502 at Wed May 26 09:01:16 2021, MaxMem=  2147483648 cpu:        15.3
 (Enter /opt/cluster/programs/g09_d.01/g09/l601.exe)
 Copying SCF densities to generalized density rwf, IOpCl= 0 IROHF=0.

 **********************************************************************

            Population analysis using the SCF density.

 **********************************************************************

 Orbital symmetries:
       Occupied  (A) (A) (A) (A) (A) (A) (A) (A) (A) (A) (A) (A)
                 (A) (A) (A) (A) (A) (A) (A) (A)
       Virtual   (A) (A) (A) (A) (A) (A) (A) (A) (A) (A) (A) (A)
                 (A) (A) (A) (A) (A) (A) (A) (A) (A) (A) (A) (A)
                 (A) (A) (A) (A) (A) (A) (A) (A) (A) (A) (A) (A)
                 (A) (A) (A) (A) (A) (A) (A) (A) (A) (A) (A) (A)
                 (A) (A) (A) (A) (A) (A) (A) (A) (A)
 The electronic state is 1-A.
 Alpha  occ. eigenvalues --  -19.32491 -19.27644 -10.45037 -10.35633 -10.31065
 Alpha  occ. eigenvalues --   -1.22378  -1.13511  -0.88093  -0.81412  -0.66543
 Alpha  occ. eigenvalues --   -0.59628  -0.58577  -0.56881  -0.52937  -0.51640
 Alpha  occ. eigenvalues --   -0.49544  -0.46272  -0.44225  -0.39072  -0.36739
 Alpha virt. eigenvalues --    0.06022   0.07226   0.08036   0.10086   0.10214
 Alpha virt. eigenvalues --    0.11178   0.12779   0.13223   0.15363   0.15856
 Alpha virt. eigenvalues --    0.16582   0.19829   0.20697   0.22723   0.24775
 Alpha virt. eigenvalues --    0.26542   0.26590   0.27686   0.30283   0.31328
 Alpha virt. eigenvalues --    0.33535   0.34359   0.35912   0.36297   0.37231
 Alpha virt. eigenvalues --    0.40595   0.41543   0.42510   0.43543   0.46372
 Alpha virt. eigenvalues --    0.55574   0.72608   0.74478   0.75722   0.76010
 Alpha virt. eigenvalues --    0.80179   0.81986   0.82845   0.91678   0.95034
 Alpha virt. eigenvalues --    1.06654   1.09826   1.13134   1.15450   1.18353
 Alpha virt. eigenvalues --    1.21198   1.25405   1.28317   1.28915   1.36971
 Alpha virt. eigenvalues --    1.40247   1.45949   1.48079   1.53436   1.63456
 Alpha virt. eigenvalues --    1.98565   2.00468
          Condensed to atoms (all electrons):
               1          2          3          4          5          6
     1  C    7.402618  -1.052845   0.358646   0.359961   0.359144  -0.616767
     2  C   -1.052845   6.287521  -0.024773  -0.023216  -0.015116   0.255115
     3  H    0.358646  -0.024773   0.462845  -0.023341  -0.021846   0.002076
     4  H    0.359961  -0.023216  -0.023341   0.460897  -0.021093   0.011133
     5  H    0.359144  -0.015116  -0.021846  -0.021093   0.459304  -0.001290
     6  O   -0.616767   0.255115   0.002076   0.011133  -0.001290   8.960435
     7  O   -0.027396   0.256465   0.005317  -0.005864  -0.003152  -0.247485
     8  C   -0.067331  -0.095584   0.000032   0.000405  -0.000601   0.063386
     9  H   -0.005918  -0.005936   0.000000   0.000012  -0.000011  -0.027505
    10  H    0.001288   0.006947  -0.000012   0.000001  -0.000004  -0.062739
    11  H    0.000728  -0.004383   0.000000  -0.000005   0.000049  -0.043322
               7          8          9         10         11
     1  C   -0.027396  -0.067331  -0.005918   0.001288   0.000728
     2  C    0.256465  -0.095584  -0.005936   0.006947  -0.004383
     3  H    0.005317   0.000032   0.000000  -0.000012   0.000000
     4  H   -0.005864   0.000405   0.000012   0.000001  -0.000005
     5  H   -0.003152  -0.000601  -0.000011  -0.000004   0.000049
     6  O   -0.247485   0.063386  -0.027505  -0.062739  -0.043322
     7  O    8.496438  -0.032504   0.002364   0.000511   0.003165
     8  C   -0.032504   5.315697   0.383684   0.399185   0.386982
     9  H    0.002364   0.383684   0.485668  -0.027474  -0.032883
    10  H    0.000511   0.399185  -0.027474   0.489959  -0.026968
    11  H    0.003165   0.386982  -0.032883  -0.026968   0.500148
 Mulliken charges:
               1
     1  C   -0.712129
     2  C    0.415805
     3  H    0.241055
     4  H    0.241109
     5  H    0.244615
     6  O   -0.293036
     7  O   -0.447860
     8  C   -0.353350
     9  H    0.227998
    10  H    0.219305
    11  H    0.216488
 Sum of Mulliken charges =   0.00000
 Mulliken charges with hydrogens summed into heavy atoms:
               1
     1  C    0.014650
     2  C    0.415805
     6  O   -0.293036
     7  O   -0.447860
     8  C    0.310441
 Electronic spatial extent (au):  <R**2>=            437.4735
 Charge=              0.0000 electrons
 Dipole moment (field-independent basis, Debye):
    X=              0.4859    Y=             -1.9664    Z=              0.5660  Tot=              2.1032
 Quadrupole moment (field-independent basis, Debye-Ang):
   XX=            -23.1031   YY=            -36.7018   ZZ=            -29.6069
   XY=              2.0668   XZ=              0.3579   YZ=             -0.5194
 Traceless Quadrupole moment (field-independent basis, Debye-Ang):
   XX=              6.7008   YY=             -6.8979   ZZ=              0.1970
   XY=              2.0668   XZ=              0.3579   YZ=             -0.5194
 Octapole moment (field-independent basis, Debye-Ang**2):
  XXX=              7.2469  YYY=             -6.8523  ZZZ=              0.8718  XYY=              1.7520
  XXY=             -2.2981  XXZ=              0.2234  XZZ=              0.3142  YZZ=              0.3886
  YYZ=             -0.2850  XYZ=             -0.1822
 Hexadecapole moment (field-independent basis, Debye-Ang**3):
 XXXX=           -348.1734 YYYY=           -156.0426 ZZZZ=            -42.4905 XXXY=             -8.0015
 XXXZ=              0.1566 YYYX=              1.8096 YYYZ=              0.8295 ZZZX=             -0.6857
 ZZZY=             -0.5661 XXYY=            -82.9836 XXZZ=            -68.8480 YYZZ=            -30.6029
 XXYZ=             -0.9745 YYXZ=              0.4870 ZZXY=              2.4031
 N-N= 1.794368404328D+02 E-N=-9.865130775854D+02  KE= 2.666870940092D+02
 No NMR shielding tensors so no spin-rotation constants.
 Leave Link  601 at Wed May 26 09:01:16 2021, MaxMem=  2147483648 cpu:         0.6
 (Enter /opt/cluster/programs/g09_d.01/g09/l701.exe)
 Compute integral first derivatives.
 ... and contract with generalized density number  0.
 R6Disp: Adding Grimme-D2 dispersion energy 1st derivatives to the gradient.
 Leave Link  701 at Wed May 26 09:01:16 2021, MaxMem=  2147483648 cpu:         0.6
 (Enter /opt/cluster/programs/g09_d.01/g09/l702.exe)
 L702 exits ... SP integral derivatives will be done elsewhere.
 Leave Link  702 at Wed May 26 09:01:17 2021, MaxMem=  2147483648 cpu:         0.2
 (Enter /opt/cluster/programs/g09_d.01/g09/l703.exe)
 Compute integral first derivatives, UseDBF=F ICtDFT=           0.
 Integral derivatives from FoFJK, PRISM(SPDF).
 Calling FoFJK, ICntrl=      2127 FMM=F ISym2X=0 I1Cent= 0 IOpClX= 0 NMat=1 NMatS=1 NMatT=0.
 FoFJK:  IHMeth= 1 ICntrl=    2127 DoSepK=T KAlg= 0 I1Cent=   0 FoldK=F
 IRaf=         1 NMat=   1 IRICut=       1 DoRegI=T DoRafI=F ISym2E= 0.
 FoFCou: FMM=F IPFlag=           0 FMFlag=      100000 FMFlg1=         800
         NFxFlg=           0 DoJE=F BraDBF=F KetDBF=F FulRan=T
         wScrn=  0.000000 ICntrl=    2527 IOpCl=  0 I1Cent=           0 NGrid=           0
         NMat0=    1 NMatS0=      1 NMatT0=    0 NMatD0=    1 NMtDS0=    0 NMtDT0=    0
 Symmetry not used in FoFCou.
 Leave Link  703 at Wed May 26 09:01:17 2021, MaxMem=  2147483648 cpu:         3.6
 (Enter /opt/cluster/programs/g09_d.01/g09/l716.exe)
 Dipole        = 1.91166106D-01-7.73645631D-01 2.22700314D-01
 ***** Axes restored to original set *****
 -------------------------------------------------------------------
 Center     Atomic                   Forces (Hartrees/Bohr)
 Number     Number              X              Y              Z
 -------------------------------------------------------------------
      1        6           0.000505447   -0.000057251    0.004638586
      2        6          -0.000953610    0.000725465   -0.004172498
      3        1           0.000003795    0.000020030    0.000013375
      4        1           0.000002451    0.000015206    0.000001694
      5        1           0.000005020    0.000005938    0.000012744
      6        8           0.000955128   -0.001881533   -0.005299754
      7        8          -0.000006596   -0.000021776   -0.000008324
      8        6          -0.000492015    0.001222877    0.004823412
      9        1          -0.000010215   -0.000004202   -0.000004867
     10        1          -0.000002806   -0.000009409    0.000002976
     11        1          -0.000006598   -0.000015344   -0.000007343
 -------------------------------------------------------------------
 Cartesian Forces:  Max     0.005299754 RMS     0.001724736
 Leave Link  716 at Wed May 26 09:01:17 2021, MaxMem=  2147483648 cpu:         0.2
 (Enter /opt/cluster/programs/g09_d.01/g09/l103.exe)

 GradGradGradGradGradGradGradGradGradGradGradGradGradGradGradGradGradGrad
 Berny optimization.
 FormGI is forming the generalized inverse of G from B-inverse, IUseBI=4.
 Internal  Forces:  Max     0.007597724 RMS     0.001588580
 Search for a local minimum.
 Step number   1 out of a maximum of   47
 All quantities printed in internal units (Hartrees-Bohrs-Radians)
 RMS Force = .80923D-05 SwitMx=.10000D-02 MixMth= 2
 Mixed Optimization -- En-DIIS/RFO-DIIS
 Second derivative matrix not updated -- first step.
 ITU=  0
     Eigenvalues ---    0.00809   0.00868   0.01320   0.07339   0.07641
     Eigenvalues ---    0.10134   0.10625   0.16000   0.16000   0.16000
     Eigenvalues ---    0.16000   0.16000   0.16000   0.24926   0.25000
     Eigenvalues ---    0.25000   0.32718   0.34236   0.34591   0.34601
     Eigenvalues ---    0.34682   0.34823   0.35146   0.36678   0.51313
     Eigenvalues ---    0.905251000.000001000.000001000.000001000.00000
     Eigenvalues --- 1000.000001000.000001000.000001000.000001000.00000
     Eigenvalues --- 1000.000001000.00000
 RFO step:  Lambda= 0.00000000D+00 EMin= 8.08586320D-03
 Linear search not attempted -- first point.
 Iteration  1 RMS(Cart)=  0.00007209 RMS(Int)=  0.00000000
 Iteration  2 RMS(Cart)=  0.00000000 RMS(Int)=  0.00000000
 Iteration  1 RMS(Cart)=  0.00000000 RMS(Int)=  0.00000000
 ITry= 1 IFail=0 DXMaxC= 1.51D-04 DCOld= 1.00D+10 DXMaxT= 3.00D-01 DXLimC= 3.00D+00 Rises=F
 Variable       Old X    -DE/DX   Delta X   Delta X   Delta X     New X
                                 (Linear)    (Quad)   (Total)
    R1        2.82850   0.00000   0.00000   0.00001   0.00001   2.82850
    R2        2.06344   0.00000   0.00000  -0.00001  -0.00001   2.06343
    R3        2.05964   0.00000   0.00000   0.00001   0.00001   2.05965
    R4        2.06933  -0.00001   0.00000  -0.00002  -0.00002   2.06931
    R5        2.58563   0.00003   0.00000   0.00005   0.00005   2.58568
    R6        2.32692  -0.00002   0.00000  -0.00003  -0.00003   2.32689
    R7        2.76335  -0.00002   0.00000  -0.00005  -0.00005   2.76330
    R8        2.06194   0.00000   0.00000   0.00001   0.00001   2.06195
    R9        2.05439   0.00000   0.00000   0.00001   0.00001   2.05439
   R10        2.06328   0.00000   0.00000   0.00001   0.00001   2.06329
    A1        1.93626  -0.00001   0.00000  -0.00004  -0.00004   1.93622
    A2        1.91545   0.00000   0.00000  -0.00001  -0.00001   1.91545
    A3        1.89779   0.00000   0.00000   0.00003   0.00003   1.89782
    A4        1.92747   0.00000   0.00000  -0.00003  -0.00003   1.92744
    A5        1.88100   0.00000   0.00000   0.00005   0.00005   1.88105
    A6        1.90509   0.00000   0.00000   0.00000   0.00000   1.90509
    A7        1.95061   0.00005   0.00000  -0.00004  -0.00004   1.95057
    A8        2.19473   0.00032   0.00000   0.00003   0.00003   2.19476
    A9        2.13515  -0.00016   0.00000   0.00001   0.00001   2.13516
   A10        2.04760   0.00001   0.00000   0.00003   0.00003   2.04763
   A11        1.92630   0.00000   0.00000   0.00003   0.00003   1.92633
   A12        1.82869   0.00001   0.00000   0.00004   0.00004   1.82872
   A13        1.91444   0.00001   0.00000   0.00004   0.00004   1.91448
   A14        1.93848  -0.00001   0.00000  -0.00005  -0.00005   1.93843
   A15        1.91317   0.00000   0.00000  -0.00001  -0.00001   1.91316
   A16        1.94141  -0.00001   0.00000  -0.00004  -0.00004   1.94137
    D1       -0.74323   0.00150   0.00000  -0.00017  -0.00017  -0.74341
    D2        2.47613  -0.00150   0.00000  -0.00013  -0.00013   2.47600
    D3       -2.87804   0.00150   0.00000  -0.00010  -0.00010  -2.87814
    D4        0.34132  -0.00150   0.00000  -0.00006  -0.00006   0.34126
    D5        1.32242   0.00150   0.00000  -0.00012  -0.00012   1.32230
    D6       -1.74140  -0.00150   0.00000  -0.00008  -0.00008  -1.74148
    D7       -2.80325  -0.00760   0.00000   0.00000   0.00000  -2.80325
    D8        0.26365  -0.00469   0.00000  -0.00004  -0.00004   0.26361
    D9       -1.15648   0.00000   0.00000  -0.00003  -0.00003  -1.15651
   D10        3.03869   0.00000   0.00000  -0.00001  -0.00001   3.03868
   D11        0.95325   0.00000   0.00000   0.00000   0.00000   0.95325
         Item               Value     Threshold  Converged?
 Maximum Force            0.000028     0.000450     YES
 RMS     Force            0.000008     0.000300     YES
 Maximum Displacement     0.000151     0.001800     YES
 RMS     Displacement     0.000072     0.001200     YES
 Predicted change in Energy=-3.668069D-09
 Optimization completed.
    -- Stationary point found.
                           ----------------------------
                           !   Optimized Parameters   !
                           ! (Angstroms and Degrees)  !
 --------------------------                            --------------------------
 ! Name  Definition              Value          Derivative Info.                !
 --------------------------------------------------------------------------------
 ! R1    R(1,2)                  1.4968         -DE/DX =    0.0                 !
 ! R2    R(1,3)                  1.0919         -DE/DX =    0.0                 !
 ! R3    R(1,4)                  1.0899         -DE/DX =    0.0                 !
 ! R4    R(1,5)                  1.095          -DE/DX =    0.0                 !
 ! R5    R(2,6)                  1.3683         -DE/DX =    0.0                 !
 ! R6    R(2,7)                  1.2314         -DE/DX =    0.0                 !
 ! R7    R(6,8)                  1.4623         -DE/DX =    0.0                 !
 ! R8    R(8,9)                  1.0911         -DE/DX =    0.0                 !
 ! R9    R(8,10)                 1.0871         -DE/DX =    0.0                 !
 ! R10   R(8,11)                 1.0918         -DE/DX =    0.0                 !
 ! A1    A(2,1,3)              110.9395         -DE/DX =    0.0                 !
 ! A2    A(2,1,4)              109.7474         -DE/DX =    0.0                 !
 ! A3    A(2,1,5)              108.7353         -DE/DX =    0.0                 !
 ! A4    A(3,1,4)              110.436          -DE/DX =    0.0                 !
 ! A5    A(3,1,5)              107.7734         -DE/DX =    0.0                 !
 ! A6    A(4,1,5)              109.1534         -DE/DX =    0.0                 !
 ! A7    A(1,2,6)              111.7615         -DE/DX =    0.0001              !
 ! A8    A(1,2,7)              125.7486         -DE/DX =    0.0003              !
 ! A9    A(6,2,7)              122.3352         -DE/DX =   -0.0002              !
 ! A10   A(2,6,8)              117.3187         -DE/DX =    0.0                 !
 ! A11   A(6,8,9)              110.3687         -DE/DX =    0.0                 !
 ! A12   A(6,8,10)             104.7761         -DE/DX =    0.0                 !
 ! A13   A(6,8,11)             109.6895         -DE/DX =    0.0                 !
 ! A14   A(9,8,10)             111.0666         -DE/DX =    0.0                 !
 ! A15   A(9,8,11)             109.6167         -DE/DX =    0.0                 !
 ! A16   A(10,8,11)            111.2346         -DE/DX =    0.0                 !
 ! D1    D(3,1,2,6)            -42.5842         -DE/DX =    0.0015              !
 ! D2    D(3,1,2,7)            141.8716         -DE/DX =   -0.0015              !
 ! D3    D(4,1,2,6)           -164.8993         -DE/DX =    0.0015              !
 ! D4    D(4,1,2,7)             19.5564         -DE/DX =   -0.0015              !
 ! D5    D(5,1,2,6)             75.7692         -DE/DX =    0.0015              !
 ! D6    D(5,1,2,7)            -99.775          -DE/DX =   -0.0015              !
 ! D7    D(1,2,6,8)           -160.6146         -DE/DX =   -0.0076              !
 ! D8    D(7,2,6,8)             15.1058         -DE/DX =   -0.0047              !
 ! D9    D(2,6,8,9)            -66.2612         -DE/DX =    0.0                 !
 ! D10   D(2,6,8,10)           174.1039         -DE/DX =    0.0                 !
 ! D11   D(2,6,8,11)            54.6171         -DE/DX =    0.0                 !
 --------------------------------------------------------------------------------
 Lowest energy point so far.  Saving SCF results.
 GradGradGradGradGradGradGradGradGradGradGradGradGradGradGradGradGradGrad

 Largest change from initial coordinates is atom    9       0.000 Angstoms.
 Leave Link  103 at Wed May 26 09:01:17 2021, MaxMem=  2147483648 cpu:         0.0
 (Enter /opt/cluster/programs/g09_d.01/g09/l202.exe)
                          Input orientation:                          
 ---------------------------------------------------------------------
 Center     Atomic      Atomic             Coordinates (Angstroms)
 Number     Number       Type             X           Y           Z
 ---------------------------------------------------------------------
      1          6           0        1.784878   -0.557652   -0.078612
      2          6           0        0.486487    0.171908    0.070597
      3          1           0        1.833890   -1.410208    0.601867
      4          1           0        2.614201    0.124966    0.106236
      5          1           0        1.856920   -0.941837   -1.101515
      6          8           0       -0.570477   -0.690343    0.177731
      7          8           0        0.337702    1.393223    0.020786
      8          6           0       -1.902556   -0.157543   -0.105138
      9          1           0       -2.182655    0.583070    0.645599
     10          1           0       -2.560893   -1.021796   -0.066121
     11          1           0       -1.912126    0.302480   -1.095292
 ---------------------------------------------------------------------
                    Distance matrix (angstroms):
                    1          2          3          4          5
     1  C    0.000000
     2  C    1.496777   0.000000
     3  H    1.091927   2.144955   0.000000
     4  H    1.089914   2.128530   1.792009   0.000000
     5  H    1.095043   2.119519   1.766752   1.780507   0.000000
     6  O    2.372976   1.368257   2.545403   3.288163   2.755354
     7  O    2.431072   1.231352   3.230396   2.607341   3.003346
     8  C    3.709172   2.418046   4.003755   4.530517   3.967561
     9  H    4.191306   2.761159   4.484161   4.848773   4.657887
    10  H    4.370505   3.275690   4.462196   5.303430   4.538227
    11  H    3.929542   2.670148   4.454917   4.686450   3.969140
                    6          7          8          9         10
     6  O    0.000000
     7  O    2.278304   0.000000
     8  C    1.462301   2.727542   0.000000
     9  H    2.107036   2.720099   1.091132   0.000000
    10  H    2.032506   3.773821   1.087135   1.795885   0.000000
    11  H    2.099121   2.738079   1.091841   1.783989   1.798277
                   11
    11  H    0.000000
 Stoichiometry    C3H6O2
 Framework group  C1[X(C3H6O2)]
 Deg. of freedom    27
 Full point group                 C1      NOp   1
 RotChk:  IX=0 Diff= 3.93D-17
 Largest Abelian subgroup         C1      NOp   1
 Largest concise Abelian subgroup C1      NOp   1
                         Standard orientation:                         
 ---------------------------------------------------------------------
 Center     Atomic      Atomic             Coordinates (Angstroms)
 Number     Number       Type             X           Y           Z
 ---------------------------------------------------------------------
      1          6           0       -1.784878   -0.557652    0.078612
      2          6           0       -0.486487    0.171908   -0.070597
      3          1           0       -1.833890   -1.410208   -0.601867
      4          1           0       -2.614201    0.124967   -0.106236
      5          1           0       -1.856920   -0.941837    1.101515
      6          8           0        0.570477   -0.690343   -0.177731
      7          8           0       -0.337702    1.393223   -0.020786
      8          6           0        1.902556   -0.157543    0.105138
      9          1           0        2.182655    0.583070   -0.645599
     10          1           0        2.560893   -1.021796    0.066121
     11          1           0        1.912126    0.302480    1.095292
 ---------------------------------------------------------------------
 Rotational constants (GHZ):      9.8627322      4.0586172      3.0124064
 Leave Link  202 at Wed May 26 09:01:17 2021, MaxMem=  2147483648 cpu:         0.0
 (Enter /opt/cluster/programs/g09_d.01/g09/l9999.exe)
 1\1\GINC-NODE05\FOpt\RwB97XD\6-31+G\C3H6O2\BOITTIER\26-May-2021\0\\#p 
 wB97XD/6-31+G Opt=ModRedun\\O.pdb\\0,1\C,1.784878,-0.557652,-0.078612\
 C,0.486487,0.171908,0.070597\H,1.83389,-1.410208,0.601867\H,2.614201,0
 .124966,0.106236\H,1.85692,-0.941837,-1.101515\O,-0.570477,-0.690343,0
 .177731\O,0.337702,1.393223,0.020786\C,-1.902556,-0.157543,-0.105138\H
 ,-2.182655,0.58307,0.645599\H,-2.560893,-1.021796,-0.066121\H,-1.91212
 6,0.30248,-1.095292\\Version=ES64L-G09RevD.01\State=1-A\HF=-268.219705
 4\RMSD=2.465e-09\RMSF=1.725e-03\Dipole=-0.1911662,-0.7736456,-0.222700
 3\Quadrupole=4.9819127,-5.1284125,0.1464998,-1.5366264,0.2660771,0.386
 1755\PG=C01 [X(C3H6O2)]\\@


 TELEVISION IS CALLED A MEDIUM BECAUSE IT ISN'T
 RARE, AND IT ISN'T WELL DONE.
 Job cpu time:       0 days  0 hours  0 minutes 28.5 seconds.
 File lengths (MBytes):  RWF=      5 Int=      0 D2E=      0 Chk=      2 Scr=      1
 Normal termination of Gaussian 09 at Wed May 26 09:01:17 2021.
