O.pdb                                                                   
FOpt      RwB97XD                                                     6-31+G              
Number of atoms                            I               11
Info1-9                                    I   N=           9
          22          22           0           0           0         100
           2          18        -802
Charge                                     I                0
Multiplicity                               I                1
Number of electrons                        I               40
Number of alpha electrons                  I               20
Number of beta electrons                   I               20
Number of basis functions                  I               77
Number of independent functions            I               77
Number of point charges in /Mol/           I                0
Number of translation vectors              I                0
Atomic numbers                             I   N=          11
           6           6           1           1           1           8
           8           6           1           1           1
Nuclear charges                            R   N=          11
  6.00000000E+00  6.00000000E+00  1.00000000E+00  1.00000000E+00  1.00000000E+00
  8.00000000E+00  8.00000000E+00  6.00000000E+00  1.00000000E+00  1.00000000E+00
  1.00000000E+00
Current cartesian coordinates              R   N=          33
 -3.37293117E+00 -1.05380875E+00  1.48554773E-01 -9.19327577E-01  3.24859499E-01
 -1.33409374E-01 -3.46555066E+00 -2.66490609E+00 -1.13736418E+00 -4.94012434E+00
  2.36152538E-01 -2.00757323E-01 -3.50907092E+00 -1.77981317E+00  2.08156130E+00
  1.07804469E+00 -1.30455903E+00 -3.35863293E-01 -6.38164351E-01  2.63281033E+00
 -3.92802253E-02  3.59530933E+00 -2.97713297E-01  1.98681648E-01  4.12461992E+00
  1.10184237E+00 -1.22000568E+00  4.83938573E+00 -1.93091495E+00  1.24950204E-01
  3.61339413E+00  5.71604186E-01  2.06980154E+00
Force Field                                I                0
Int Atom Types                             I   N=          11
           0           0           0           0           0           0
           0           0           0           0           0
MM charges                                 R   N=          11
  0.00000000E+00  0.00000000E+00  0.00000000E+00  0.00000000E+00  0.00000000E+00
  0.00000000E+00  0.00000000E+00  0.00000000E+00  0.00000000E+00  0.00000000E+00
  0.00000000E+00
Integer atomic weights                     I   N=          11
          12          12           1           1           1          16
          16          12           1           1           1
Real atomic weights                        R   N=          11
  1.20000000E+01  1.20000000E+01  1.00782504E+00  1.00782504E+00  1.00782504E+00
  1.59949146E+01  1.59949146E+01  1.20000000E+01  1.00782504E+00  1.00782504E+00
  1.00782504E+00
Atom fragment info                         I   N=          11
           0           0           0           0           0           0
           0           0           0           0           0
Atom residue num                           I   N=          11
           0           0           0           0           0           0
           0           0           0           0           0
Nuclear spins                              I   N=          11
           0           0           1           1           1           0
           0           0           1           1           1
Nuclear ZEff                               R   N=          11
 -3.60000000E+00 -3.60000000E+00 -1.00000000E+00 -1.00000000E+00 -1.00000000E+00
 -5.60000000E+00 -5.60000000E+00 -3.60000000E+00 -1.00000000E+00 -1.00000000E+00
 -1.00000000E+00
Nuclear ZNuc                               R   N=          11
  6.00000000E+00  6.00000000E+00  1.00000000E+00  1.00000000E+00  1.00000000E+00
  8.00000000E+00  8.00000000E+00  6.00000000E+00  1.00000000E+00  1.00000000E+00
  1.00000000E+00
Nuclear QMom                               R   N=          11
  0.00000000E+00  0.00000000E+00  0.00000000E+00  0.00000000E+00  0.00000000E+00
  0.00000000E+00  0.00000000E+00  0.00000000E+00  0.00000000E+00  0.00000000E+00
  0.00000000E+00
Nuclear GFac                               R   N=          11
  0.00000000E+00  0.00000000E+00  2.79284600E+00  2.79284600E+00  2.79284600E+00
  0.00000000E+00  0.00000000E+00  0.00000000E+00  2.79284600E+00  2.79284600E+00
  2.79284600E+00
MicOpt                                     I   N=          11
          -1          -1          -1          -1          -1          -1
          -1          -1          -1          -1          -1
Number of contracted shells                I               32
Number of primitive shells                 I               79
Pure/Cartesian d shells                    I                1
Pure/Cartesian f shells                    I                0
Highest angular momentum                   I                1
Largest degree of contraction              I                6
Shell types                                I   N=          32
           0          -1          -1          -1           0          -1
          -1          -1           0           0           0           0
           0           0           0          -1          -1          -1
           0          -1          -1          -1           0          -1
          -1          -1           0           0           0           0
           0           0
Number of primitives per shell             I   N=          32
           6           3           1           1           6           3
           1           1           3           1           3           1
           3           1           6           3           1           1
           6           3           1           1           6           3
           1           1           3           1           3           1
           3           1
Shell to atom map                          I   N=          32
           1           1           1           1           2           2
           2           2           3           3           4           4
           5           5           6           6           6           6
           7           7           7           7           8           8
           8           8           9           9          10          10
          11          11
Primitive exponents                        R   N=          79
  3.04752488E+03  4.57369518E+02  1.03948685E+02  2.92101553E+01  9.28666296E+00
  3.16392696E+00  7.86827235E+00  1.88128854E+00  5.44249258E-01  1.68714478E-01
  4.38000000E-02  3.04752488E+03  4.57369518E+02  1.03948685E+02  2.92101553E+01
  9.28666296E+00  3.16392696E+00  7.86827235E+00  1.88128854E+00  5.44249258E-01
  1.68714478E-01  4.38000000E-02  1.87311370E+01  2.82539436E+00  6.40121692E-01
  1.61277759E-01  1.87311370E+01  2.82539436E+00  6.40121692E-01  1.61277759E-01
  1.87311370E+01  2.82539436E+00  6.40121692E-01  1.61277759E-01  5.48467166E+03
  8.25234946E+02  1.88046958E+02  5.29645000E+01  1.68975704E+01  5.79963534E+00
  1.55396162E+01  3.59993359E+00  1.01376175E+00  2.70005823E-01  8.45000000E-02
  5.48467166E+03  8.25234946E+02  1.88046958E+02  5.29645000E+01  1.68975704E+01
  5.79963534E+00  1.55396162E+01  3.59993359E+00  1.01376175E+00  2.70005823E-01
  8.45000000E-02  3.04752488E+03  4.57369518E+02  1.03948685E+02  2.92101553E+01
  9.28666296E+00  3.16392696E+00  7.86827235E+00  1.88128854E+00  5.44249258E-01
  1.68714478E-01  4.38000000E-02  1.87311370E+01  2.82539436E+00  6.40121692E-01
  1.61277759E-01  1.87311370E+01  2.82539436E+00  6.40121692E-01  1.61277759E-01
  1.87311370E+01  2.82539436E+00  6.40121692E-01  1.61277759E-01
Contraction coefficients                   R   N=          79
  1.83473713E-03  1.40373228E-02  6.88426223E-02  2.32184443E-01  4.67941348E-01
  3.62311985E-01 -1.19332420E-01 -1.60854152E-01  1.14345644E+00  1.00000000E+00
  1.00000000E+00  1.83473713E-03  1.40373228E-02  6.88426223E-02  2.32184443E-01
  4.67941348E-01  3.62311985E-01 -1.19332420E-01 -1.60854152E-01  1.14345644E+00
  1.00000000E+00  1.00000000E+00  3.34946043E-02  2.34726953E-01  8.13757326E-01
  1.00000000E+00  3.34946043E-02  2.34726953E-01  8.13757326E-01  1.00000000E+00
  3.34946043E-02  2.34726953E-01  8.13757326E-01  1.00000000E+00  1.83107443E-03
  1.39501722E-02  6.84450781E-02  2.32714336E-01  4.70192898E-01  3.58520853E-01
 -1.10777550E-01 -1.48026263E-01  1.13076702E+00  1.00000000E+00  1.00000000E+00
  1.83107443E-03  1.39501722E-02  6.84450781E-02  2.32714336E-01  4.70192898E-01
  3.58520853E-01 -1.10777550E-01 -1.48026263E-01  1.13076702E+00  1.00000000E+00
  1.00000000E+00  1.83473713E-03  1.40373228E-02  6.88426223E-02  2.32184443E-01
  4.67941348E-01  3.62311985E-01 -1.19332420E-01 -1.60854152E-01  1.14345644E+00
  1.00000000E+00  1.00000000E+00  3.34946043E-02  2.34726953E-01  8.13757326E-01
  1.00000000E+00  3.34946043E-02  2.34726953E-01  8.13757326E-01  1.00000000E+00
  3.34946043E-02  2.34726953E-01  8.13757326E-01  1.00000000E+00
P(S=P) Contraction coefficients            R   N=          79
  0.00000000E+00  0.00000000E+00  0.00000000E+00  0.00000000E+00  0.00000000E+00
  0.00000000E+00  6.89990666E-02  3.16423961E-01  7.44308291E-01  1.00000000E+00
  1.00000000E+00  0.00000000E+00  0.00000000E+00  0.00000000E+00  0.00000000E+00
  0.00000000E+00  0.00000000E+00  6.89990666E-02  3.16423961E-01  7.44308291E-01
  1.00000000E+00  1.00000000E+00  0.00000000E+00  0.00000000E+00  0.00000000E+00
  0.00000000E+00  0.00000000E+00  0.00000000E+00  0.00000000E+00  0.00000000E+00
  0.00000000E+00  0.00000000E+00  0.00000000E+00  0.00000000E+00  0.00000000E+00
  0.00000000E+00  0.00000000E+00  0.00000000E+00  0.00000000E+00  0.00000000E+00
  7.08742682E-02  3.39752839E-01  7.27158577E-01  1.00000000E+00  1.00000000E+00
  0.00000000E+00  0.00000000E+00  0.00000000E+00  0.00000000E+00  0.00000000E+00
  0.00000000E+00  7.08742682E-02  3.39752839E-01  7.27158577E-01  1.00000000E+00
  1.00000000E+00  0.00000000E+00  0.00000000E+00  0.00000000E+00  0.00000000E+00
  0.00000000E+00  0.00000000E+00  6.89990666E-02  3.16423961E-01  7.44308291E-01
  1.00000000E+00  1.00000000E+00  0.00000000E+00  0.00000000E+00  0.00000000E+00
  0.00000000E+00  0.00000000E+00  0.00000000E+00  0.00000000E+00  0.00000000E+00
  0.00000000E+00  0.00000000E+00  0.00000000E+00  0.00000000E+00
Coordinates of each shell                  R   N=          96
 -3.37293117E+00 -1.05380875E+00  1.48554773E-01 -3.37293117E+00 -1.05380875E+00
  1.48554773E-01 -3.37293117E+00 -1.05380875E+00  1.48554773E-01 -3.37293117E+00
 -1.05380875E+00  1.48554773E-01 -9.19327577E-01  3.24859499E-01 -1.33409374E-01
 -9.19327577E-01  3.24859499E-01 -1.33409374E-01 -9.19327577E-01  3.24859499E-01
 -1.33409374E-01 -9.19327577E-01  3.24859499E-01 -1.33409374E-01 -3.46555066E+00
 -2.66490609E+00 -1.13736418E+00 -3.46555066E+00 -2.66490609E+00 -1.13736418E+00
 -4.94012434E+00  2.36152538E-01 -2.00757323E-01 -4.94012434E+00  2.36152538E-01
 -2.00757323E-01 -3.50907092E+00 -1.77981317E+00  2.08156130E+00 -3.50907092E+00
 -1.77981317E+00  2.08156130E+00  1.07804469E+00 -1.30455903E+00 -3.35863293E-01
  1.07804469E+00 -1.30455903E+00 -3.35863293E-01  1.07804469E+00 -1.30455903E+00
 -3.35863293E-01  1.07804469E+00 -1.30455903E+00 -3.35863293E-01 -6.38164351E-01
  2.63281033E+00 -3.92802253E-02 -6.38164351E-01  2.63281033E+00 -3.92802253E-02
 -6.38164351E-01  2.63281033E+00 -3.92802253E-02 -6.38164351E-01  2.63281033E+00
 -3.92802253E-02  3.59530933E+00 -2.97713297E-01  1.98681648E-01  3.59530933E+00
 -2.97713297E-01  1.98681648E-01  3.59530933E+00 -2.97713297E-01  1.98681648E-01
  3.59530933E+00 -2.97713297E-01  1.98681648E-01  4.12461992E+00  1.10184237E+00
 -1.22000568E+00  4.12461992E+00  1.10184237E+00 -1.22000568E+00  4.83938573E+00
 -1.93091495E+00  1.24950204E-01  4.83938573E+00 -1.93091495E+00  1.24950204E-01
  3.61339413E+00  5.71604186E-01  2.06980154E+00  3.61339413E+00  5.71604186E-01
  2.06980154E+00
Constraint Structure                       R   N=          33
 -3.37293117E+00 -1.05380875E+00  1.48554773E-01 -9.19327577E-01  3.24859499E-01
 -1.33409374E-01 -3.46555066E+00 -2.66490609E+00 -1.13736418E+00 -4.94012434E+00
  2.36152538E-01 -2.00757323E-01 -3.50907092E+00 -1.77981317E+00  2.08156130E+00
  1.07804469E+00 -1.30455903E+00 -3.35863293E-01 -6.38164351E-01  2.63281033E+00
 -3.92802253E-02  3.59530933E+00 -2.97713297E-01  1.98681648E-01  4.12461992E+00
  1.10184237E+00 -1.22000568E+00  4.83938573E+00 -1.93091495E+00  1.24950204E-01
  3.61339413E+00  5.71604186E-01  2.06980154E+00
Num ILSW                                   I              100
ILSW                                       I   N=         100
           0           1           0           0           2           0
           0           0           0           0        4639          -1
           0           0           0           0           2           0
           0           0           0           0           1           0
           1           0           0           0           0           0
           0           0      100000           0          -1           0
           0           0           0           0           0           0
           0           0           0           1           0           0
           0           0           1           0           0           0
           0           0         121          41           0           0
           0           0          58           0           0           0
           0           0           0          11           0           0
           0           0           0           0           0           0
           0           0           0           0           0           0
           0           0           0           0           0           0
           0           0           0           0           0           0
           0           0           0           0
Num RLSW                                   I               41
RLSW                                       R   N=          41
  1.00000000E+00  1.00000000E+00  1.00000000E+00  1.00000000E+00  1.00000000E+00
  0.00000000E+00  2.00000000E-01  2.22036000E-01  0.00000000E+00  7.77964000E-01
  0.00000000E+00  2.00000000E-01  0.00000000E+00  0.00000000E+00  1.00000000E+00
  0.00000000E+00  0.00000000E+00  1.00000000E+00  0.00000000E+00  0.00000000E+00
  0.00000000E+00  0.00000000E+00  1.00000000E+00  0.00000000E+00  0.00000000E+00
  0.00000000E+00  0.00000000E+00  1.00000000E+00  0.00000000E+00  0.00000000E+00
  0.00000000E+00  0.00000000E+00  1.00000000E+00  0.00000000E+00  0.00000000E+00
  0.00000000E+00  0.00000000E+00  0.00000000E+00  1.00000000E+00  1.00000000E+00
  0.00000000E+00
MxBond                                     I                4
NBond                                      I   N=          11
           4           3           1           1           1           2
           1           4           1           1           1
IBond                                      I   N=          44
           2           3           4           5           1           6
           7           0           1           0           0           0
           1           0           0           0           1           0
           0           0           2           8           0           0
           2           0           0           0           6           9
          10          11           8           0           0           0
           8           0           0           0           8           0
           0           0
RBond                                      R   N=          44
  1.00000000E+00  1.00000000E+00  1.00000000E+00  1.00000000E+00  1.00000000E+00
  1.50000000E+00  2.00000000E+00  0.00000000E+00  1.00000000E+00  0.00000000E+00
  0.00000000E+00  0.00000000E+00  1.00000000E+00  0.00000000E+00  0.00000000E+00
  0.00000000E+00  1.00000000E+00  0.00000000E+00  0.00000000E+00  0.00000000E+00
  1.50000000E+00  1.00000000E+00  0.00000000E+00  0.00000000E+00  2.00000000E+00
  0.00000000E+00  0.00000000E+00  0.00000000E+00  1.00000000E+00  1.00000000E+00
  1.00000000E+00  1.00000000E+00  1.00000000E+00  0.00000000E+00  0.00000000E+00
  0.00000000E+00  1.00000000E+00  0.00000000E+00  0.00000000E+00  0.00000000E+00
  1.00000000E+00  0.00000000E+00  0.00000000E+00  0.00000000E+00
Virial Ratio                               R      2.005746852579658E+00
SCF Energy                                 R     -2.682197054233318E+02
Total Energy                               R     -2.682197054233318E+02
RMS Force                                  R      1.724735518208543E-03
RMS Density                                R      2.464598905161457E-09
External E-field                           R   N=          35
  0.00000000E+00  0.00000000E+00  0.00000000E+00  0.00000000E+00  0.00000000E+00
  0.00000000E+00  0.00000000E+00  0.00000000E+00  0.00000000E+00  0.00000000E+00
  0.00000000E+00  0.00000000E+00  0.00000000E+00  0.00000000E+00  0.00000000E+00
  0.00000000E+00  0.00000000E+00  0.00000000E+00  0.00000000E+00  0.00000000E+00
  0.00000000E+00  0.00000000E+00  0.00000000E+00  0.00000000E+00  0.00000000E+00
  0.00000000E+00  0.00000000E+00  0.00000000E+00  0.00000000E+00  0.00000000E+00
  0.00000000E+00  0.00000000E+00  0.00000000E+00  0.00000000E+00  0.00000000E+00
IOpCl                                      I                0
IROHF                                      I                0
Alpha Orbital Energies                     R   N=          77
 -1.93249071E+01 -1.92764369E+01 -1.04503711E+01 -1.03563265E+01 -1.03106483E+01
 -1.22378353E+00 -1.13511165E+00 -8.80930543E-01 -8.14122491E-01 -6.65431889E-01
 -5.96276997E-01 -5.85772918E-01 -5.68809317E-01 -5.29367099E-01 -5.16402917E-01
 -4.95444950E-01 -4.62719407E-01 -4.42251577E-01 -3.90724170E-01 -3.67388206E-01
  6.02177979E-02  7.22615250E-02  8.03608183E-02  1.00861923E-01  1.02143353E-01
  1.11783225E-01  1.27787428E-01  1.32234384E-01  1.53629682E-01  1.58557827E-01
  1.65817645E-01  1.98287651E-01  2.06973268E-01  2.27226381E-01  2.47747299E-01
  2.65416591E-01  2.65897317E-01  2.76858603E-01  3.02825741E-01  3.13276521E-01
  3.35353446E-01  3.43585738E-01  3.59123617E-01  3.62969177E-01  3.72314329E-01
  4.05950209E-01  4.15430443E-01  4.25100296E-01  4.35432016E-01  4.63717992E-01
  5.55742319E-01  7.26075171E-01  7.44781687E-01  7.57222559E-01  7.60095326E-01
  8.01786565E-01  8.19860491E-01  8.28452566E-01  9.16782233E-01  9.50341355E-01
  1.06654131E+00  1.09826378E+00  1.13133546E+00  1.15450174E+00  1.18353319E+00
  1.21197506E+00  1.25405475E+00  1.28317109E+00  1.28914743E+00  1.36970786E+00
  1.40247325E+00  1.45948868E+00  1.48079111E+00  1.53436148E+00  1.63455823E+00
  1.98564742E+00  2.00468442E+00
Alpha MO coefficients                      R   N=        5929
 -2.84119043E-05 -3.77046973E-04 -7.65675293E-05 -3.23319105E-05  1.91579919E-06
  1.96762289E-03 -1.90399770E-04  1.42584605E-03 -6.86628554E-05  1.59512089E-02
  4.02656960E-03  9.37964936E-04 -3.83362984E-04  8.62937239E-05  3.31624809E-04
  3.87940998E-04 -1.57925594E-04 -7.77498033E-06  3.78780221E-03  4.85924168E-03
 -1.62155105E-03 -2.97953400E-04 -1.96284567E-02  2.68459605E-03  5.17592207E-03
 -6.24417513E-04  9.40822430E-05 -3.73536710E-04 -1.78861973E-04 -6.17084288E-04
  3.07347016E-05 -3.58873790E-04  9.95237416E-01  2.98868282E-02  8.93621319E-05
  1.87976492E-03  4.26037976E-04 -2.16855365E-02  3.15788654E-04 -3.98309507E-03
 -8.55705941E-04  9.63088773E-03 -8.75509152E-04  1.23872985E-03  2.17719863E-04
 -3.24593647E-04 -8.57382587E-05  6.00223639E-05  7.18995388E-05  2.25754663E-05
 -3.29269779E-04 -1.08032453E-03  6.32096072E-04 -3.22271938E-06 -1.50207704E-03
 -8.64080596E-04  2.14329543E-04  1.58376726E-04 -3.18866919E-05 -1.65759525E-04
 -7.01512082E-04 -1.92042116E-04 -1.13434242E-04  4.46069153E-03 -1.34840704E-03
 -3.04887793E-04 -2.85897652E-04  1.06927757E-03  1.92094244E-04  1.29356913E-04
  2.88642505E-04 -3.18469817E-04 -1.25911633E-03 -2.40775381E-04 -1.01739537E-03
 -3.09753860E-04 -1.28658000E-03 -1.31956405E-05 -2.49782864E-04  1.86690274E-05
 -9.12580343E-05  3.34242328E-06  3.09722538E-03  1.97132243E-03 -1.19331812E-03
 -5.36152244E-04  3.62326050E-04 -3.33930443E-04  1.02054413E-03  3.79300291E-04
  2.41180749E-04  4.14220594E-04 -1.71689203E-04 -5.81059906E-05 -2.06245656E-05
  6.80257940E-03  2.71876058E-03  1.02872120E-02  4.64027505E-04 -7.33735616E-03
 -1.48042854E-03 -2.78671940E-03 -6.48770900E-04 -2.36699093E-04 -5.06472268E-04
  1.51019399E-04  1.47032593E-04 -3.84498338E-05 -1.30921043E-04  3.41984112E-04
 -1.15414735E-04  2.56030264E-04  2.98516915E-06 -2.22467048E-06  4.91107426E-04
 -1.70502764E-03 -1.21918082E-03 -5.69401305E-05 -1.53972126E-03 -1.37670001E-03
 -4.06432631E-04 -2.32754198E-04  9.95239861E-01  2.98601889E-02 -1.71179663E-04
 -2.27777410E-03 -7.66768370E-05 -2.38893158E-02  3.37579578E-04  5.97995454E-03
  1.87461378E-04  7.03723473E-03  1.95966343E-04 -3.00183126E-04  1.36137651E-04
 -1.26772460E-05 -1.39392064E-04 -1.19034159E-04 -1.11511793E-04 -3.01548853E-05
  2.11486458E-03 -1.48011135E-04 -8.32376865E-04 -3.09726314E-04  4.06660159E-03
 -1.40828091E-03  4.22541405E-04  2.06378208E-05 -2.39135170E-05 -3.54009581E-04
 -1.92558750E-04 -4.77819651E-04  3.83301709E-05 -3.42198689E-04  7.65844503E-04
 -7.00938123E-04 -1.68877136E-04 -2.68990450E-04  1.24996696E-04  6.04383202E-03
  1.62030449E-03  1.94027287E-03 -9.53126731E-04  5.44335704E-03  1.01118816E-03
 -7.65541796E-04 -5.91460448E-04  9.95566794E-01  3.70484608E-02  1.16796680E-03
  5.62649324E-04 -2.19549265E-05 -3.57321689E-02 -4.41214064E-04  6.00280871E-04
  1.35124760E-05 -1.72530413E-02 -2.18192081E-03  4.11011446E-03  1.96216465E-04
 -8.88250434E-05 -9.84662092E-04 -1.40240369E-04 -1.52427124E-03 -1.74424013E-04
  4.15103076E-04  4.01195162E-05  4.57680377E-04  1.83354882E-04 -1.98009694E-04
 -4.44637440E-05 -1.68492960E-04  9.52184976E-05 -8.59036643E-06  9.88638610E-05
  1.20719727E-02 -6.92544694E-03  4.06741369E-03  3.84207859E-04 -1.31074849E-04
  3.58860818E-05  1.19670597E-04  5.10908283E-04  3.60800272E-05  6.79203672E-04
 -4.24561442E-04  1.16385040E-04 -4.44305089E-05  8.98189325E-03 -7.88359521E-04
 -5.20152487E-03 -2.90455698E-05 -7.92937838E-05 -3.92640617E-04 -8.20510667E-05
  4.66256782E-05  8.28853008E-07  1.15572588E-03  4.08610571E-04  2.80438133E-04
  2.85867795E-05  7.51569716E-03 -2.40651210E-03 -7.93969910E-04 -5.08534411E-04
  4.60030721E-05 -1.85182791E-03 -4.22621441E-05  4.29665581E-04 -4.29219543E-05
 -1.56739987E-03 -1.48418326E-04 -5.52647973E-04  3.87773195E-05  2.24541605E-05
 -3.99027470E-06  4.34617769E-03  2.24491727E-03  5.77169662E-04 -9.61599648E-05
 -1.29239545E-03  8.76418316E-04 -2.43131928E-04  6.81002698E-04 -1.29109475E-05
 -2.63447191E-04 -1.60066834E-04 -1.55053518E-04  4.53573630E-05 -7.20213256E-04
  2.58345345E-03  3.05671225E-03 -4.18217385E-04  4.07327889E-03 -2.52597831E-03
 -2.37290310E-03 -1.10874781E-03 -2.23080115E-04  3.65213484E-04 -9.53883871E-05
  1.54749189E-04 -2.36474486E-05 -6.98611785E-04  4.68775136E-05  3.71680574E-04
  9.61728792E-07  2.27101093E-06 -4.39447061E-05  1.29476830E-03 -3.79783006E-05
 -7.43210090E-05  2.86672845E-04  1.46442521E-02  8.67233959E-03  3.76409646E-03
  1.58121545E-03  1.11753777E-05  1.89878650E-06 -8.78540927E-05  1.07711361E-04
 -1.11088693E-05 -1.41171081E-03 -2.45093022E-04  1.43295767E-04  7.51744951E-05
 -1.63943670E-03  5.23166962E-04  2.19049481E-03  5.50137029E-04  9.95553406E-01
  3.73535555E-02 -1.20649003E-03 -4.12596834E-04 -2.42698757E-04 -3.61370589E-02
  3.49228783E-03  9.48176704E-04  6.64628445E-04 -8.64099787E-03  2.92639655E-03
  1.20037471E-03  7.06791324E-04 -4.79878908E-04  5.58801619E-03 -4.72815530E-04
  4.92118653E-03 -5.19942385E-04  5.75516621E-03  9.95475127E-01  3.75942947E-02
  4.48759072E-04  1.92430273E-05  8.48577105E-05 -3.88176265E-02 -3.79395121E-03
 -1.40597047E-03 -9.22554485E-05 -1.88317617E-02 -3.42944588E-03 -2.41561924E-03
  6.53637120E-04 -7.42966462E-04 -7.89163882E-04  6.50646367E-04  3.45523248E-04
 -3.22942372E-05  6.75032465E-03 -7.51141858E-03 -2.81077501E-03  7.69954862E-04
  1.01967799E-02 -7.45719930E-03 -8.41649120E-04 -2.06432427E-04 -5.03969809E-04
  7.41201936E-03 -5.44227733E-04  6.92475023E-03 -5.35396570E-04  8.05663660E-03
 -8.29007310E-06 -2.76894873E-04  2.00876396E-04 -4.01125215E-05 -1.78509358E-05
  3.11467014E-04 -1.06585499E-03  5.76356155E-04  8.15024889E-07  1.65185464E-03
 -3.31174022E-03 -3.54806471E-04  3.19470271E-04 -1.58939426E-06 -1.62475575E-04
  2.72786521E-05  1.12575601E-04  1.70436646E-05  1.90064583E-04  7.21460334E-04
 -3.72380988E-04 -1.85436740E-04  2.13117771E-03  5.37260005E-04 -1.27421626E-03
  2.99080001E-04  1.06726087E-05 -5.11212684E-04 -2.65724411E-05 -2.70595903E-05
  8.69839217E-05  2.55381722E-03 -9.52019555E-04 -1.23130750E-04 -7.09996773E-04
  5.22301667E-03 -1.62497383E-03  3.74405679E-05 -2.74797710E-04 -1.86664444E-04
 -1.83466985E-04 -1.07647635E-04  2.77557853E-04  3.47097591E-06 -1.08468764E-04
 -1.70555816E-02  3.18617285E-02  2.22201763E-02  1.14531935E-02 -1.95397859E-03
  3.13294906E-03 -2.60587884E-03 -4.83893346E-03  2.18132507E-03 -6.44577145E-02
 -1.72193975E-02 -5.82457882E-03  2.82004472E-05 -1.18945735E-01  2.43416186E-01
  9.00107628E-02  5.16432681E-02 -2.48802928E-04  3.37576197E-02 -3.79379944E-02
 -3.37292358E-02  1.16091621E-03  1.19781488E-01  3.17617031E-03 -1.54710862E-02
  6.58597593E-03  4.82162206E-03  1.62645559E-04  4.89502211E-03  1.01749723E-03
  4.79235136E-03 -1.97089802E-03 -1.50212641E-01  3.22366748E-01 -2.20150543E-02
  9.90402364E-02  2.10971367E-02  3.54037221E-01 -4.95761639E-03  6.65333623E-02
  1.44338774E-02 -4.31515555E-02  1.96965247E-02 -1.44201537E-02 -3.16293081E-03
 -1.12626742E-01  2.45179553E-01 -3.18374747E-03 -1.17611552E-01 -4.71706203E-03
  2.43712471E-01  3.73754928E-03 -5.08526702E-02 -1.55631079E-03  6.48144637E-04
  6.69047776E-03 -4.64188114E-03 -2.39511338E-03 -4.08513117E-02  7.53249339E-02
 -5.48721589E-02 -1.50273332E-02 -9.89201774E-03  2.27400443E-02  4.03707761E-03
  9.11313600E-03  3.06943056E-03 -3.18737955E-02  7.93108952E-03 -1.42072275E-03
 -4.21796349E-04  1.20563795E-02  1.45426136E-03  1.15452474E-02  4.09206241E-03
  1.22131627E-02  2.71915971E-03 -4.70339688E-03  8.84372660E-03  5.30878894E-04
  1.42948750E-02  8.67160519E-05 -3.39841737E-05 -1.24170854E-02  1.67315491E-02
  3.72738831E-03  1.43932828E-01  3.52377459E-02  1.17472176E-02 -5.05189543E-03
 -4.52658686E-02  9.47994923E-02 -5.16732271E-02  2.25564537E-01  1.35553601E-02
  2.90810950E-02  2.11750795E-02 -7.52924884E-02 -5.30130173E-03 -9.26664525E-02
  6.33346326E-02  2.94484018E-02 -4.15563002E-03  3.41192479E-04  9.24362718E-04
  3.29063656E-03 -5.28172738E-03  1.15147260E-03 -3.69361282E-03  1.37265190E-01
 -2.96481874E-01 -1.00197079E-02 -5.77618031E-02 -1.84916946E-02 -3.54087247E-01
 -1.78994931E-03 -4.63221874E-02 -1.45549898E-02 -1.04767667E-02  3.08366536E-02
  1.04893899E-03  2.61126699E-03 -1.58578577E-01  3.48752788E-01 -2.50966075E-02
 -1.38294251E-01 -4.80538847E-03  3.57651676E-01 -1.01477807E-02 -5.75301172E-02
 -1.52176135E-03  1.19964156E-02 -1.61285064E-02 -1.05584033E-02 -4.61882315E-04
  4.36808326E-02 -8.65310967E-02  5.49875395E-02  2.22637758E-02  1.09466512E-02
 -3.08908910E-02 -1.27688781E-02  5.08796472E-03 -3.62164920E-04 -4.59462732E-02
  1.92978732E-02  1.10883742E-03  4.30215970E-03 -1.41635212E-02 -2.37259442E-03
 -1.44059840E-02 -5.84718717E-04 -1.46767793E-02 -3.55973970E-03 -1.48258303E-01
  2.78461614E-01  5.60326017E-02  1.62502580E-02 -3.43163154E-03  2.82803266E-01
  1.54242829E-02 -7.13634893E-04  5.23834274E-04  3.76887837E-02  8.64786215E-03
  9.92910629E-03 -2.76760076E-04 -8.34079714E-02  1.77275993E-01 -8.99380657E-02
 -1.60432330E-01  3.97808516E-03  1.36039403E-01 -9.73498689E-03 -5.51613760E-03
  1.95865499E-03  1.90984756E-02  1.32931840E-02 -1.76752917E-02 -6.42802186E-04
  8.70583608E-02  4.89193294E-03  7.99472262E-02  3.19345470E-03  8.76571429E-02
  3.26595439E-03  7.49821291E-03 -1.62146753E-02 -1.84125797E-01 -3.66664386E-03
 -9.29848831E-03 -2.24855528E-02 -8.02777582E-02 -6.59296506E-03 -5.25655196E-03
  7.19082685E-03  3.07717358E-02  3.32677602E-03  1.40514008E-03  4.51333739E-02
 -1.02156099E-01 -2.35115306E-02  4.77726179E-03  2.40713543E-03 -1.18611312E-01
 -1.04885485E-02  4.83417622E-03  4.30497042E-04 -2.41971212E-02  4.75592278E-03
  1.65485935E-02 -3.71816344E-04  9.41397241E-02 -1.81778276E-01  3.10878941E-02
  1.81571570E-02  8.57957739E-03 -1.77798821E-01  3.78558823E-03 -4.71055817E-03
  4.67801244E-04 -5.05344526E-02  1.81382219E-02  4.86898202E-03  3.18909675E-03
 -5.30279867E-02 -9.33909914E-04 -5.72839717E-02 -1.11540935E-02 -5.29721895E-02
 -8.55799545E-04 -1.15402157E-01  2.17149137E-01 -1.64350299E-02  9.86074616E-03
  7.23590367E-03  2.44806152E-01 -7.65179773E-03  8.72684330E-03  8.23198583E-04
  1.44688308E-01  2.77187500E-02  1.54025732E-02 -6.35512524E-03  1.36559731E-02
 -3.49997738E-02 -1.68787126E-01  3.83791984E-02  2.68205172E-02 -2.07483448E-02
 -4.63186397E-03 -6.93459987E-03  5.37435801E-03 -1.68171757E-01  3.36166165E-02
  2.92884818E-02  2.24644259E-04  7.36977533E-02  4.35161372E-03  8.45649184E-02
  6.43890001E-03  8.06257525E-02  1.12723118E-02  4.02893357E-02 -9.22479648E-02
  1.89582766E-01 -4.26309561E-02  2.00736184E-02 -1.35305569E-01  8.58108119E-02
 -2.59277240E-02  6.98616700E-03 -3.96669067E-02 -2.92217350E-02 -2.91954147E-03
 -4.69058838E-03  1.83388747E-03 -5.43607126E-03 -3.31467630E-02  1.07013136E-02
  8.06515211E-03 -2.23266685E-03 -1.20397349E-02  3.44971254E-03  2.86812840E-03
  1.39514313E-02 -8.82204191E-03 -7.46576421E-03 -1.34332124E-03 -1.50218512E-01
  2.93267647E-01  2.82110790E-02 -9.26796931E-03  4.76330390E-03  3.20549656E-01
  7.62343974E-03 -3.57333097E-03  2.53638217E-03  5.59926684E-02 -1.72597448E-02