 Entering Gaussian System, Link 0=/opt/cluster/programs/g09_d.01/g09//g09
 Input=/home/unibas/boittier/RDKit_G2/O.pdb/SCAN_1_2_6_8_S_17_20.0/6_SCAN_1_2_6_8_F/6_SCAN_O.pdb.com
 Output=/scratch/boittier/6_SCAN_O.pdb/6_SCAN_O.pdb.out
 Initial command:
 /opt/cluster/programs/g09_d.01/g09/l1.exe "/scratch/boittier/6_SCAN_O.pdb/Gau-143874.inp" -scrdir="/scratch/boittier/6_SCAN_O.pdb/"
 Entering Link 1 = /opt/cluster/programs/g09_d.01/g09/l1.exe PID=    143876.
  
 Copyright (c) 1988,1990,1992,1993,1995,1998,2003,2009,2013,
            Gaussian, Inc.  All Rights Reserved.
  
 This is part of the Gaussian(R) 09 program.  It is based on
 the Gaussian(R) 03 system (copyright 2003, Gaussian, Inc.),
 the Gaussian(R) 98 system (copyright 1998, Gaussian, Inc.),
 the Gaussian(R) 94 system (copyright 1995, Gaussian, Inc.),
 the Gaussian 92(TM) system (copyright 1992, Gaussian, Inc.),
 the Gaussian 90(TM) system (copyright 1990, Gaussian, Inc.),
 the Gaussian 88(TM) system (copyright 1988, Gaussian, Inc.),
 the Gaussian 86(TM) system (copyright 1986, Carnegie Mellon
 University), and the Gaussian 82(TM) system (copyright 1983,
 Carnegie Mellon University). Gaussian is a federally registered
 trademark of Gaussian, Inc.
  
 This software contains proprietary and confidential information,
 including trade secrets, belonging to Gaussian, Inc.
  
 This software is provided under written license and may be
 used, copied, transmitted, or stored only in accord with that
 written license.
  
 The following legend is applicable only to US Government
 contracts under FAR:
  
                    RESTRICTED RIGHTS LEGEND
  
 Use, reproduction and disclosure by the US Government is
 subject to restrictions as set forth in subparagraphs (a)
 and (c) of the Commercial Computer Software - Restricted
 Rights clause in FAR 52.227-19.
  
 Gaussian, Inc.
 340 Quinnipiac St., Bldg. 40, Wallingford CT 06492
  
  
 ---------------------------------------------------------------
 Warning -- This program may not be used in any manner that
 competes with the business of Gaussian, Inc. or will provide
 assistance to any competitor of Gaussian, Inc.  The licensee
 of this program is prohibited from giving any competitor of
 Gaussian, Inc. access to this program.  By using this program,
 the user acknowledges that Gaussian, Inc. is engaged in the
 business of creating and licensing software in the field of
 computational chemistry and represents and warrants to the
 licensee that it is not a competitor of Gaussian, Inc. and that
 it will not use this program in any manner prohibited above.
 ---------------------------------------------------------------
  

 Cite this work as:
 Gaussian 09, Revision D.01,
 M. J. Frisch, G. W. Trucks, H. B. Schlegel, G. E. Scuseria, 
 M. A. Robb, J. R. Cheeseman, G. Scalmani, V. Barone, B. Mennucci, 
 G. A. Petersson, H. Nakatsuji, M. Caricato, X. Li, H. P. Hratchian, 
 A. F. Izmaylov, J. Bloino, G. Zheng, J. L. Sonnenberg, M. Hada, 
 M. Ehara, K. Toyota, R. Fukuda, J. Hasegawa, M. Ishida, T. Nakajima, 
 Y. Honda, O. Kitao, H. Nakai, T. Vreven, J. A. Montgomery, Jr., 
 J. E. Peralta, F. Ogliaro, M. Bearpark, J. J. Heyd, E. Brothers, 
 K. N. Kudin, V. N. Staroverov, T. Keith, R. Kobayashi, J. Normand, 
 K. Raghavachari, A. Rendell, J. C. Burant, S. S. Iyengar, J. Tomasi, 
 M. Cossi, N. Rega, J. M. Millam, M. Klene, J. E. Knox, J. B. Cross, 
 V. Bakken, C. Adamo, J. Jaramillo, R. Gomperts, R. E. Stratmann, 
 O. Yazyev, A. J. Austin, R. Cammi, C. Pomelli, J. W. Ochterski, 
 R. L. Martin, K. Morokuma, V. G. Zakrzewski, G. A. Voth, 
 P. Salvador, J. J. Dannenberg, S. Dapprich, A. D. Daniels, 
 O. Farkas, J. B. Foresman, J. V. Ortiz, J. Cioslowski, 
 and D. J. Fox, Gaussian, Inc., Wallingford CT, 2013.
 
 ******************************************
 Gaussian 09:  ES64L-G09RevD.01 24-Apr-2013
                26-May-2021 
 ******************************************
 %chk=/home/unibas/boittier/RDKit_G2/O.pdb/SCAN_1_2_6_8_S_17_20.0/6_SCAN_1_2_6_8_
 F/O.pdb.chk
 %nproc=8
 Will use up to    8 processors via shared memory.
 %mem=16GB
 -----------------------------
 #p wB97XD/6-31+G Opt=ModRedun
 -----------------------------
 1/14=-1,18=120,19=15,26=3,38=1/1,3;
 2/9=110,12=2,17=6,18=5,40=1/2;
 3/5=1,6=6,7=10,11=2,16=1,25=1,30=1,71=1,74=-58/1,2,3;
 4//1;
 5/5=2,38=5/2;
 6/7=2,8=2,9=2,10=2,28=1/1;
 7//1,2,3,16;
 1/14=-1,18=20,19=15,26=3/3(2);
 2/9=110/2;
 99//99;
 2/9=110/2;
 3/5=1,6=6,7=10,11=2,16=1,25=1,30=1,71=1,74=-58/1,2,3;
 4/5=5,16=3,69=1/1;
 5/5=2,38=5/2;
 7//1,2,3,16;
 1/14=-1,18=20,19=15,26=3/3(-5);
 2/9=110/2;
 6/7=2,8=2,9=2,10=2,19=2,28=1/1;
 99/9=1/99;
 Leave Link    1 at Wed May 26 09:01:13 2021, MaxMem=  2147483648 cpu:         0.2
 (Enter /opt/cluster/programs/g09_d.01/g09/l101.exe)
 -----
 O.pdb
 -----
 Symbolic Z-matrix:
 Charge =  0 Multiplicity = 1
 C                     0.97027  -1.26297   0.01624 
 C                     0.57653   0.19008   0.03365 
 H                     0.7424   -1.71677   0.98506 
 H                     2.03709  -1.34512  -0.18966 
 H                     0.42133  -1.81773  -0.75252 
 O                    -0.70988   0.45763   0.47884 
 O                     1.34067   1.11592  -0.19558 
 C                    -1.85036  -0.10118  -0.23652 
 H                    -1.84397   0.23835  -1.27573 
 H                    -2.72526   0.29238   0.27546 
 H                    -1.85655  -1.1951   -0.18888 
 
 The following ModRedundant input section has been read:
 D       1       2       6       8 F                                           
 
 NAtoms=     11 NQM=       11 NQMF=       0 NMMI=      0 NMMIF=      0
                NMic=       0 NMicF=      0.
                    Isotopes and Nuclear Properties:
 (Nuclear quadrupole moments (NQMom) in fm**2, nuclear magnetic moments (NMagM)
  in nuclear magnetons)

  Atom         1           2           3           4           5           6           7           8           9          10
 IAtWgt=          12          12           1           1           1          16          16          12           1           1
 AtmWgt=  12.0000000  12.0000000   1.0078250   1.0078250   1.0078250  15.9949146  15.9949146  12.0000000   1.0078250   1.0078250
 NucSpn=           0           0           1           1           1           0           0           0           1           1
 AtZEff=   0.0000000   0.0000000   0.0000000   0.0000000   0.0000000   0.0000000   0.0000000   0.0000000   0.0000000   0.0000000
 NQMom=    0.0000000   0.0000000   0.0000000   0.0000000   0.0000000   0.0000000   0.0000000   0.0000000   0.0000000   0.0000000
 NMagM=    0.0000000   0.0000000   2.7928460   2.7928460   2.7928460   0.0000000   0.0000000   0.0000000   2.7928460   2.7928460
 AtZNuc=   6.0000000   6.0000000   1.0000000   1.0000000   1.0000000   8.0000000   8.0000000   6.0000000   1.0000000   1.0000000

  Atom        11
 IAtWgt=           1
 AtmWgt=   1.0078250
 NucSpn=           1
 AtZEff=   0.0000000
 NQMom=    0.0000000
 NMagM=    2.7928460
 AtZNuc=   1.0000000
 Leave Link  101 at Wed May 26 09:01:14 2021, MaxMem=  2147483648 cpu:         4.2
 (Enter /opt/cluster/programs/g09_d.01/g09/l103.exe)

 GradGradGradGradGradGradGradGradGradGradGradGradGradGradGradGradGradGrad
 Berny optimization.
 Initialization pass.
                           ----------------------------
                           !    Initial Parameters    !
                           ! (Angstroms and Degrees)  !
 --------------------------                            --------------------------
 ! Name  Definition              Value          Derivative Info.                !
 --------------------------------------------------------------------------------
 ! R1    R(1,2)                  1.5055         estimate D2E/DX2                !
 ! R2    R(1,3)                  1.0938         estimate D2E/DX2                !
 ! R3    R(1,4)                  1.0896         estimate D2E/DX2                !
 ! R4    R(1,5)                  1.0955         estimate D2E/DX2                !
 ! R5    R(2,6)                  1.3873         estimate D2E/DX2                !
 ! R6    R(2,7)                  1.2221         estimate D2E/DX2                !
 ! R7    R(6,8)                  1.4576         estimate D2E/DX2                !
 ! R8    R(8,9)                  1.0933         estimate D2E/DX2                !
 ! R9    R(8,10)                 1.0874         estimate D2E/DX2                !
 ! R10   R(8,11)                 1.095          estimate D2E/DX2                !
 ! A1    A(2,1,3)              109.6137         estimate D2E/DX2                !
 ! A2    A(2,1,4)              109.33           estimate D2E/DX2                !
 ! A3    A(2,1,5)              111.458          estimate D2E/DX2                !
 ! A4    A(3,1,4)              109.8796         estimate D2E/DX2                !
 ! A5    A(3,1,5)              107.8824         estimate D2E/DX2                !
 ! A6    A(4,1,5)              108.6529         estimate D2E/DX2                !
 ! A7    A(1,2,6)              115.6167         estimate D2E/DX2                !
 ! A8    A(1,2,7)              124.4332         estimate D2E/DX2                !
 ! A9    A(6,2,7)              119.5949         estimate D2E/DX2                !
 ! A10   A(2,6,8)              119.6098         estimate D2E/DX2                !
 ! A11   A(6,8,9)              110.0514         estimate D2E/DX2                !
 ! A12   A(6,8,10)             105.0526         estimate D2E/DX2                !
 ! A13   A(6,8,11)             111.4737         estimate D2E/DX2                !
 ! A14   A(9,8,10)             109.8663         estimate D2E/DX2                !
 ! A15   A(9,8,11)             110.5881         estimate D2E/DX2                !
 ! A16   A(10,8,11)            109.6663         estimate D2E/DX2                !
 ! D1    D(3,1,2,6)            -50.3042         estimate D2E/DX2                !
 ! D2    D(3,1,2,7)            122.799          estimate D2E/DX2                !
 ! D3    D(4,1,2,6)           -170.8055         estimate D2E/DX2                !
 ! D4    D(4,1,2,7)              2.2976         estimate D2E/DX2                !
 ! D5    D(5,1,2,6)             69.0578         estimate D2E/DX2                !
 ! D6    D(5,1,2,7)           -117.839          estimate D2E/DX2                !
 ! D7    D(1,2,6,8)            -60.6145         Frozen                          !
 ! D8    D(7,2,6,8)            125.9257         estimate D2E/DX2                !
 ! D9    D(2,6,8,9)            -59.0558         estimate D2E/DX2                !
 ! D10   D(2,6,8,10)          -177.2697         estimate D2E/DX2                !
 ! D11   D(2,6,8,11)            64.0261         estimate D2E/DX2                !
 --------------------------------------------------------------------------------
 Trust Radius=3.00D-01 FncErr=1.00D-07 GrdErr=1.00D-06
 Number of steps in this run=     47 maximum allowed number of steps=    100.
 GradGradGradGradGradGradGradGradGradGradGradGradGradGradGradGradGradGrad

 Leave Link  103 at Wed May 26 09:01:14 2021, MaxMem=  2147483648 cpu:         0.1
 (Enter /opt/cluster/programs/g09_d.01/g09/l202.exe)
                          Input orientation:                          
 ---------------------------------------------------------------------
 Center     Atomic      Atomic             Coordinates (Angstroms)
 Number     Number       Type             X           Y           Z
 ---------------------------------------------------------------------
      1          6           0        0.970266   -1.262966    0.016235
      2          6           0        0.576527    0.190079    0.033649
      3          1           0        0.742398   -1.716768    0.985064
      4          1           0        2.037090   -1.345119   -0.189655
      5          1           0        0.421326   -1.817730   -0.752515
      6          8           0       -0.709878    0.457631    0.478838
      7          8           0        1.340672    1.115917   -0.195582
      8          6           0       -1.850356   -0.101179   -0.236515
      9          1           0       -1.843973    0.238350   -1.275728
     10          1           0       -2.725264    0.292384    0.275456
     11          1           0       -1.856551   -1.195103   -0.188875
 ---------------------------------------------------------------------
                    Distance matrix (angstroms):
                    1          2          3          4          5
     1  C    0.000000
     2  C    1.505548   0.000000
     3  H    1.093842   2.137468   0.000000
     4  H    1.089612   2.130714   1.787265   0.000000
     5  H    1.095479   2.161814   1.769876   1.775068   0.000000
     6  O    2.448947   1.387305   2.663340   3.353002   2.823671
     7  O    2.416847   1.222146   3.126653   2.557681   3.124365
     8  C    3.060970   2.459183   3.290100   4.081889   2.893673
     9  H    3.441375   2.752384   3.952592   4.330078   3.103675
    10  H    4.017866   3.312214   4.070002   5.057446   3.925600
    11  H    2.835061   2.808579   2.899104   3.896530   2.427772
                    6          7          8          9         10
     6  O    0.000000
     7  O    2.256754   0.000000
     8  C    1.457631   3.415503   0.000000
     9  H    2.100656   3.475457   1.093291   0.000000
    10  H    2.032351   4.175155   1.087414   1.784871   0.000000
    11  H    2.119488   3.945009   1.094978   1.798943   1.784064
                   11
    11  H    0.000000
 Stoichiometry    C3H6O2
 Framework group  C1[X(C3H6O2)]
 Deg. of freedom    27
 Full point group                 C1      NOp   1
 Largest Abelian subgroup         C1      NOp   1
 Largest concise Abelian subgroup C1      NOp   1
                         Standard orientation:                         
 ---------------------------------------------------------------------
 Center     Atomic      Atomic             Coordinates (Angstroms)
 Number     Number       Type             X           Y           Z
 ---------------------------------------------------------------------
      1          6           0        0.970266    1.262966   -0.016235
      2          6           0        0.576527   -0.190079   -0.033649
      3          1           0        0.742398    1.716768   -0.985064
      4          1           0        2.037090    1.345119    0.189655
      5          1           0        0.421326    1.817730    0.752515
      6          8           0       -0.709878   -0.457631   -0.478838
      7          8           0        1.340672   -1.115917    0.195582
      8          6           0       -1.850356    0.101179    0.236515
      9          1           0       -1.843973   -0.238350    1.275728
     10          1           0       -2.725264   -0.292384   -0.275456
     11          1           0       -1.856551    1.195103    0.188875
 ---------------------------------------------------------------------
 Rotational constants (GHZ):      8.3801097      4.1822646      3.0694404
 Leave Link  202 at Wed May 26 09:01:14 2021, MaxMem=  2147483648 cpu:         0.0
 (Enter /opt/cluster/programs/g09_d.01/g09/l301.exe)
 Standard basis: 6-31+G (6D, 7F)
 Ernie: Thresh=  0.10000D-02 Tol=  0.10000D-05 Strict=F.
 There are    77 symmetry adapted cartesian basis functions of A   symmetry.
 There are    77 symmetry adapted basis functions of A   symmetry.
    77 basis functions,   154 primitive gaussians,    77 cartesian basis functions
    20 alpha electrons       20 beta electrons
       nuclear repulsion energy       178.4955805631 Hartrees.
 IExCor= 4639 DFT=T Ex+Corr=wB97XD ExCW=0 ScaHFX=  1.000000
 ScaDFX=  1.000000  1.000000  1.000000  1.000000 ScalE2=  1.000000  1.000000
 IRadAn=      0 IRanWt=     -1 IRanGd=            0 ICorTp=0 IEmpDi=121
  HFx wShort=  0.000000 wLong=  0.200000 cFull=  0.222036 cShort=  0.000000 cLong=  0.777964
  DFx wShort=  0.000000 wLong=  0.200000 cFull=  0.000000 cShort=  0.000000 cLong=  1.000000
 NAtoms=   11 NActive=   11 NUniq=   11 SFac= 1.00D+00 NAtFMM=   60 NAOKFM=F Big=F
 Integral buffers will be    131072 words long.
 Raffenetti 2 integral format.
 Two-electron integral symmetry is turned on.
 R6Disp:  Grimme-D2 Dispersion energy=       -0.0037184210 Hartrees.
 Nuclear repulsion after empirical dispersion term =      178.4918621421 Hartrees.
 Leave Link  301 at Wed May 26 09:01:14 2021, MaxMem=  2147483648 cpu:         0.3
 (Enter /opt/cluster/programs/g09_d.01/g09/l302.exe)
 NPDir=0 NMtPBC=     1 NCelOv=     1 NCel=       1 NClECP=     1 NCelD=      1
         NCelK=      1 NCelE2=     1 NClLst=     1 CellRange=     0.0.
 One-electron integrals computed using PRISM.
 NBasis=    77 RedAO= T EigKep=  1.99D-04  NBF=    77
 NBsUse=    77 1.00D-06 EigRej= -1.00D+00 NBFU=    77
 Precomputing XC quadrature grid using
 IXCGrd= 4 IRadAn=           0 IRanWt=          -1 IRanGd=           0 AccXCQ= 0.00D+00.
 Generated NRdTot=       0 NPtTot=           0 NUsed=           0 NTot=          32
 NSgBfM=    77    77    77    77    77 MxSgAt=    11 MxSgA2=    11.
 Leave Link  302 at Wed May 26 09:01:14 2021, MaxMem=  2147483648 cpu:         0.9
 (Enter /opt/cluster/programs/g09_d.01/g09/l303.exe)
 DipDrv:  MaxL=1.
 Leave Link  303 at Wed May 26 09:01:14 2021, MaxMem=  2147483648 cpu:         0.3
 (Enter /opt/cluster/programs/g09_d.01/g09/l401.exe)
 ExpMin= 4.38D-02 ExpMax= 5.48D+03 ExpMxC= 8.25D+02 IAcc=2 IRadAn=         4 AccDes= 0.00D+00
 Harris functional with IExCor= 4639 and IRadAn=       4 diagonalized for initial guess.
 HarFok:  IExCor= 4639 AccDes= 0.00D+00 IRadAn=         4 IDoV= 1 UseB2=F ITyADJ=14
 ICtDFT=  3500011 ScaDFX=  1.000000  1.000000  1.000000  1.000000
 FoFCou: FMM=F IPFlag=           0 FMFlag=      100000 FMFlg1=           0
         NFxFlg=           0 DoJE=T BraDBF=F KetDBF=T FulRan=T
         wScrn=  0.000000 ICntrl=     500 IOpCl=  0 I1Cent=   200000004 NGrid=           0
         NMat0=    1 NMatS0=      1 NMatT0=    0 NMatD0=    1 NMtDS0=    0 NMtDT0=    0
 Petite list used in FoFCou.
 Harris En= -257.355901176484    
 JPrj=0 DoOrth=F DoCkMO=F.
 Leave Link  401 at Wed May 26 09:01:14 2021, MaxMem=  2147483648 cpu:         1.4
 (Enter /opt/cluster/programs/g09_d.01/g09/l502.exe)
 Closed shell SCF:
 Using DIIS extrapolation, IDIIS=  1040.
 Integral symmetry usage will be decided dynamically.
 Keep R1 ints in memory in canonical form, NReq=9956864.
 IVT=       37546 IEndB=       37546 NGot=  2147483648 MDV=  2138425091
 LenX=  2138425091 LenY=  2138418721
 Requested convergence on RMS density matrix=1.00D-08 within 128 cycles.
 Requested convergence on MAX density matrix=1.00D-06.
 Requested convergence on             energy=1.00D-06.
 No special actions if energy rises.
 FoFCou: FMM=F IPFlag=           0 FMFlag=           0 FMFlg1=           0
         NFxFlg=           0 DoJE=F BraDBF=F KetDBF=F FulRan=T
         wScrn=  0.000000 ICntrl=     600 IOpCl=  0 I1Cent=           0 NGrid=           0
         NMat0=    1 NMatS0=   3003 NMatT0=    0 NMatD0=    1 NMtDS0=    0 NMtDT0=    0
 Symmetry not used in FoFCou.

 Cycle   1  Pass 1  IDiag  1:
 E= -268.112667953443    
 DIIS: error= 2.15D-02 at cycle   1 NSaved=   1.
 NSaved= 1 IEnMin= 1 EnMin= -268.112667953443     IErMin= 1 ErrMin= 2.15D-02
 ErrMax= 2.15D-02  0.00D+00 EMaxC= 1.00D-01 BMatC= 1.38D-01 BMatP= 1.38D-01
 IDIUse=3 WtCom= 7.85D-01 WtEn= 2.15D-01
 Coeff-Com:  0.100D+01
 Coeff-En:   0.100D+01
 Coeff:      0.100D+01
 Gap=     0.528 Goal=   None    Shift=    0.000
 GapD=    0.528 DampG=2.000 DampE=0.500 DampFc=1.0000 IDamp=-1.
 RMSDP=9.65D-03 MaxDP=1.78D-01              OVMax= 9.30D-02

 Cycle   2  Pass 1  IDiag  1:
 E= -268.135868484482     Delta-E=       -0.023200531039 Rises=F Damp=F
 DIIS: error= 2.64D-02 at cycle   2 NSaved=   2.
 NSaved= 2 IEnMin= 2 EnMin= -268.135868484482     IErMin= 1 ErrMin= 2.15D-02
 ErrMax= 2.64D-02  0.00D+00 EMaxC= 1.00D-01 BMatC= 8.36D-02 BMatP= 1.38D-01
 IDIUse=3 WtCom= 7.36D-01 WtEn= 2.64D-01
 Coeff-Com:  0.428D+00 0.572D+00
 Coeff-En:   0.409D+00 0.591D+00
 Coeff:      0.423D+00 0.577D+00
 Gap=     0.422 Goal=   None    Shift=    0.000
 RMSDP=4.89D-03 MaxDP=7.31D-02 DE=-2.32D-02 OVMax= 6.41D-02

 Cycle   3  Pass 1  IDiag  1:
 E= -268.194581877522     Delta-E=       -0.058713393041 Rises=F Damp=F
 DIIS: error= 9.01D-03 at cycle   3 NSaved=   3.
 NSaved= 3 IEnMin= 3 EnMin= -268.194581877522     IErMin= 3 ErrMin= 9.01D-03
 ErrMax= 9.01D-03  0.00D+00 EMaxC= 1.00D-01 BMatC= 9.17D-03 BMatP= 8.36D-02
 IDIUse=3 WtCom= 9.10D-01 WtEn= 9.01D-02
 Coeff-Com:  0.907D-01 0.266D+00 0.643D+00
 Coeff-En:   0.000D+00 0.000D+00 0.100D+01
 Coeff:      0.825D-01 0.242D+00 0.675D+00
 Gap=     0.434 Goal=   None    Shift=    0.000
 RMSDP=1.50D-03 MaxDP=2.13D-02 DE=-5.87D-02 OVMax= 2.78D-02

 Cycle   4  Pass 1  IDiag  1:
 E= -268.200135353025     Delta-E=       -0.005553475502 Rises=F Damp=F
 DIIS: error= 3.73D-03 at cycle   4 NSaved=   4.
 NSaved= 4 IEnMin= 4 EnMin= -268.200135353025     IErMin= 4 ErrMin= 3.73D-03
 ErrMax= 3.73D-03  0.00D+00 EMaxC= 1.00D-01 BMatC= 1.69D-03 BMatP= 9.17D-03
 IDIUse=3 WtCom= 9.63D-01 WtEn= 3.73D-02
 Coeff-Com: -0.261D-02 0.593D-01 0.360D+00 0.583D+00
 Coeff-En:   0.000D+00 0.000D+00 0.132D+00 0.868D+00
 Coeff:     -0.251D-02 0.571D-01 0.352D+00 0.594D+00
 Gap=     0.412 Goal=   None    Shift=    0.000
 RMSDP=8.31D-04 MaxDP=1.17D-02 DE=-5.55D-03 OVMax= 1.03D-02

 Cycle   5  Pass 1  IDiag  1:
 E= -268.201339926832     Delta-E=       -0.001204573807 Rises=F Damp=F
 DIIS: error= 1.14D-03 at cycle   5 NSaved=   5.
 NSaved= 5 IEnMin= 5 EnMin= -268.201339926832     IErMin= 5 ErrMin= 1.14D-03
 ErrMax= 1.14D-03  0.00D+00 EMaxC= 1.00D-01 BMatC= 1.06D-04 BMatP= 1.69D-03
 IDIUse=3 WtCom= 9.89D-01 WtEn= 1.14D-02
 Coeff-Com: -0.543D-02 0.138D-01 0.150D+00 0.322D+00 0.520D+00
 Coeff-En:   0.000D+00 0.000D+00 0.000D+00 0.000D+00 0.100D+01
 Coeff:     -0.537D-02 0.136D-01 0.148D+00 0.318D+00 0.526D+00
 Gap=     0.409 Goal=   None    Shift=    0.000
 RMSDP=1.57D-04 MaxDP=2.30D-03 DE=-1.20D-03 OVMax= 2.62D-03

 Cycle   6  Pass 1  IDiag  1:
 E= -268.201424662617     Delta-E=       -0.000084735786 Rises=F Damp=F
 DIIS: error= 1.39D-04 at cycle   6 NSaved=   6.
 NSaved= 6 IEnMin= 6 EnMin= -268.201424662617     IErMin= 6 ErrMin= 1.39D-04
 ErrMax= 1.39D-04  0.00D+00 EMaxC= 1.00D-01 BMatC= 2.62D-06 BMatP= 1.06D-04
 IDIUse=3 WtCom= 9.99D-01 WtEn= 1.39D-03
 Coeff-Com: -0.407D-03-0.771D-02-0.252D-01-0.306D-01 0.790D-01 0.985D+00
 Coeff-En:   0.000D+00 0.000D+00 0.000D+00 0.000D+00 0.000D+00 0.100D+01
 Coeff:     -0.407D-03-0.770D-02-0.251D-01-0.306D-01 0.789D-01 0.985D+00
 Gap=     0.409 Goal=   None    Shift=    0.000
 RMSDP=1.56D-04 MaxDP=2.71D-03 DE=-8.47D-05 OVMax= 8.33D-04

 Cycle   7  Pass 1  IDiag  1:
 E= -268.201428880481     Delta-E=       -0.000004217864 Rises=F Damp=F
 DIIS: error= 4.66D-05 at cycle   7 NSaved=   7.
 NSaved= 7 IEnMin= 7 EnMin= -268.201428880481     IErMin= 7 ErrMin= 4.66D-05
 ErrMax= 4.66D-05  0.00D+00 EMaxC= 1.00D-01 BMatC= 2.49D-07 BMatP= 2.62D-06
 IDIUse=1 WtCom= 1.00D+00 WtEn= 0.00D+00
 Coeff-Com:  0.387D-03-0.355D-02-0.190D-01-0.353D-01-0.725D-02 0.298D+00
 Coeff-Com:  0.767D+00
 Coeff:      0.387D-03-0.355D-02-0.190D-01-0.353D-01-0.725D-02 0.298D+00
 Coeff:      0.767D+00
 Gap=     0.409 Goal=   None    Shift=    0.000
 RMSDP=2.81D-05 MaxDP=4.34D-04 DE=-4.22D-06 OVMax= 2.37D-04

 Cycle   8  Pass 1  IDiag  1:
 E= -268.201429291566     Delta-E=       -0.000000411085 Rises=F Damp=F
 DIIS: error= 1.47D-05 at cycle   8 NSaved=   8.
 NSaved= 8 IEnMin= 8 EnMin= -268.201429291566     IErMin= 8 ErrMin= 1.47D-05
 ErrMax= 1.47D-05  0.00D+00 EMaxC= 1.00D-01 BMatC= 1.65D-08 BMatP= 2.49D-07
 IDIUse=1 WtCom= 1.00D+00 WtEn= 0.00D+00
 Coeff-Com:  0.180D-04 0.689D-03 0.232D-02 0.149D-02-0.464D-02-0.102D+00
 Coeff-Com:  0.222D-02 0.110D+01
 Coeff:      0.180D-04 0.689D-03 0.232D-02 0.149D-02-0.464D-02-0.102D+00
 Coeff:      0.222D-02 0.110D+01
 Gap=     0.409 Goal=   None    Shift=    0.000
 RMSDP=8.20D-06 MaxDP=6.93D-05 DE=-4.11D-07 OVMax= 1.50D-04

 Cycle   9  Pass 1  IDiag  1:
 E= -268.201429338284     Delta-E=       -0.000000046718 Rises=F Damp=F
 DIIS: error= 5.01D-06 at cycle   9 NSaved=   9.
 NSaved= 9 IEnMin= 9 EnMin= -268.201429338284     IErMin= 9 ErrMin= 5.01D-06
 ErrMax= 5.01D-06  0.00D+00 EMaxC= 1.00D-01 BMatC= 6.49D-10 BMatP= 1.65D-08
 IDIUse=1 WtCom= 1.00D+00 WtEn= 0.00D+00
 Coeff-Com: -0.209D-04 0.171D-03 0.105D-02 0.192D-02 0.159D-02-0.986D-02
 Coeff-Com: -0.464D-01-0.914D-01 0.114D+01
 Coeff:     -0.209D-04 0.171D-03 0.105D-02 0.192D-02 0.159D-02-0.986D-02
 Coeff:     -0.464D-01-0.914D-01 0.114D+01
 Gap=     0.409 Goal=   None    Shift=    0.000
 RMSDP=2.93D-06 MaxDP=4.13D-05 DE=-4.67D-08 OVMax= 4.41D-05

 Cycle  10  Pass 1  IDiag  1:
 E= -268.201429341097     Delta-E=       -0.000000002814 Rises=F Damp=F
 DIIS: error= 1.45D-06 at cycle  10 NSaved=  10.
 NSaved=10 IEnMin=10 EnMin= -268.201429341097     IErMin=10 ErrMin= 1.45D-06
 ErrMax= 1.45D-06  0.00D+00 EMaxC= 1.00D-01 BMatC= 4.64D-11 BMatP= 6.49D-10
 IDIUse=1 WtCom= 1.00D+00 WtEn= 0.00D+00
 Coeff-Com: -0.670D-06-0.392D-04-0.124D-03-0.115D-03 0.361D-03 0.611D-02
 Coeff-Com: -0.123D-02-0.635D-01 0.281D-01 0.103D+01
 Coeff:     -0.670D-06-0.392D-04-0.124D-03-0.115D-03 0.361D-03 0.611D-02
 Coeff:     -0.123D-02-0.635D-01 0.281D-01 0.103D+01
 Gap=     0.409 Goal=   None    Shift=    0.000
 RMSDP=6.83D-07 MaxDP=1.06D-05 DE=-2.81D-09 OVMax= 9.74D-06

 Cycle  11  Pass 1  IDiag  1:
 E= -268.201429341281     Delta-E=       -0.000000000184 Rises=F Damp=F
 DIIS: error= 4.72D-07 at cycle  11 NSaved=  11.
 NSaved=11 IEnMin=11 EnMin= -268.201429341281     IErMin=11 ErrMin= 4.72D-07
 ErrMax= 4.72D-07  0.00D+00 EMaxC= 1.00D-01 BMatC= 1.03D-11 BMatP= 4.64D-11
 IDIUse=1 WtCom= 1.00D+00 WtEn= 0.00D+00
 Coeff-Com:  0.201D-05-0.330D-04-0.163D-03-0.271D-03-0.106D-03 0.316D-02
 Coeff-Com:  0.490D-02-0.918D-02-0.127D+00 0.332D+00 0.797D+00
 Coeff:      0.201D-05-0.330D-04-0.163D-03-0.271D-03-0.106D-03 0.316D-02
 Coeff:      0.490D-02-0.918D-02-0.127D+00 0.332D+00 0.797D+00
 Gap=     0.409 Goal=   None    Shift=    0.000
 RMSDP=1.43D-07 MaxDP=2.20D-06 DE=-1.84D-10 OVMax= 2.78D-06

 Cycle  12  Pass 1  IDiag  1:
 E= -268.201429341308     Delta-E=       -0.000000000027 Rises=F Damp=F
 DIIS: error= 1.81D-07 at cycle  12 NSaved=  12.
 NSaved=12 IEnMin=12 EnMin= -268.201429341308     IErMin=12 ErrMin= 1.81D-07
 ErrMax= 1.81D-07  0.00D+00 EMaxC= 1.00D-01 BMatC= 6.43D-13 BMatP= 1.03D-11
 IDIUse=1 WtCom= 1.00D+00 WtEn= 0.00D+00
 Coeff-Com: -0.181D-06 0.801D-05 0.320D-04 0.419D-04-0.720D-04-0.103D-02
 Coeff-Com: -0.501D-03 0.810D-02 0.131D-01-0.166D+00-0.105D+00 0.125D+01
 Coeff:     -0.181D-06 0.801D-05 0.320D-04 0.419D-04-0.720D-04-0.103D-02
 Coeff:     -0.501D-03 0.810D-02 0.131D-01-0.166D+00-0.105D+00 0.125D+01
 Gap=     0.409 Goal=   None    Shift=    0.000
 RMSDP=7.33D-08 MaxDP=1.06D-06 DE=-2.68D-11 OVMax= 1.71D-06

 Cycle  13  Pass 1  IDiag  1:
 E= -268.201429341311     Delta-E=       -0.000000000002 Rises=F Damp=F
 DIIS: error= 3.36D-08 at cycle  13 NSaved=  13.
 NSaved=13 IEnMin=13 EnMin= -268.201429341311     IErMin=13 ErrMin= 3.36D-08
 ErrMax= 3.36D-08  0.00D+00 EMaxC= 1.00D-01 BMatC= 2.70D-14 BMatP= 6.43D-13
 IDIUse=1 WtCom= 1.00D+00 WtEn= 0.00D+00
 Coeff-Com: -0.587D-07-0.374D-06 0.109D-05 0.532D-05 0.188D-04 0.120D-03
 Coeff-Com: -0.124D-03-0.169D-02 0.375D-02 0.243D-01-0.138D-01-0.304D+00
 Coeff-Com:  0.129D+01
 Coeff:     -0.587D-07-0.374D-06 0.109D-05 0.532D-05 0.188D-04 0.120D-03
 Coeff:     -0.124D-03-0.169D-02 0.375D-02 0.243D-01-0.138D-01-0.304D+00
 Coeff:      0.129D+01
 Gap=     0.409 Goal=   None    Shift=    0.000
 RMSDP=2.03D-08 MaxDP=3.00D-07 DE=-2.39D-12 OVMax= 4.10D-07

 Cycle  14  Pass 1  IDiag  1:
 E= -268.201429341309     Delta-E=        0.000000000001 Rises=F Damp=F
 DIIS: error= 9.80D-09 at cycle  14 NSaved=  14.
 NSaved=14 IEnMin=13 EnMin= -268.201429341311     IErMin=14 ErrMin= 9.80D-09
 ErrMax= 9.80D-09  0.00D+00 EMaxC= 1.00D-01 BMatC= 1.59D-15 BMatP= 2.70D-14
 IDIUse=1 WtCom= 1.00D+00 WtEn= 0.00D+00
 Coeff-Com:  0.300D-07-0.141D-06-0.170D-05-0.360D-05-0.382D-05-0.713D-05
 Coeff-Com:  0.694D-04 0.287D-03-0.181D-02-0.259D-02 0.918D-02 0.693D-01
 Coeff-Com: -0.558D+00 0.148D+01
 Coeff:      0.300D-07-0.141D-06-0.170D-05-0.360D-05-0.382D-05-0.713D-05
 Coeff:      0.694D-04 0.287D-03-0.181D-02-0.259D-02 0.918D-02 0.693D-01
 Coeff:     -0.558D+00 0.148D+01
 Gap=     0.409 Goal=   None    Shift=    0.000
 RMSDP=3.68D-09 MaxDP=3.97D-08 DE= 1.25D-12 OVMax= 1.28D-07

 SCF Done:  E(RwB97XD) =  -268.201429341     A.U. after   14 cycles
            NFock= 14  Conv=0.37D-08     -V/T= 2.0057
 KE= 2.666730012406D+02 PE=-9.844782129498D+02 EE= 2.711119202257D+02
 Leave Link  502 at Wed May 26 09:01:16 2021, MaxMem=  2147483648 cpu:        15.4
 (Enter /opt/cluster/programs/g09_d.01/g09/l601.exe)
 Copying SCF densities to generalized density rwf, IOpCl= 0 IROHF=0.

 **********************************************************************

            Population analysis using the SCF density.

 **********************************************************************

 Orbital symmetries:
       Occupied  (A) (A) (A) (A) (A) (A) (A) (A) (A) (A) (A) (A)
                 (A) (A) (A) (A) (A) (A) (A) (A)
       Virtual   (A) (A) (A) (A) (A) (A) (A) (A) (A) (A) (A) (A)
                 (A) (A) (A) (A) (A) (A) (A) (A) (A) (A) (A) (A)
                 (A) (A) (A) (A) (A) (A) (A) (A) (A) (A) (A) (A)
                 (A) (A) (A) (A) (A) (A) (A) (A) (A) (A) (A) (A)
                 (A) (A) (A) (A) (A) (A) (A) (A) (A)
 The electronic state is 1-A.
 Alpha  occ. eigenvalues --  -19.31111 -19.28215 -10.45385 -10.36846 -10.31912
 Alpha  occ. eigenvalues --   -1.21527  -1.13943  -0.87252  -0.83152  -0.66877
 Alpha  occ. eigenvalues --   -0.60125  -0.58601  -0.57545  -0.53752  -0.52045
 Alpha  occ. eigenvalues --   -0.50911  -0.47498  -0.42552  -0.38499  -0.36507
 Alpha virt. eigenvalues --    0.04423   0.06448   0.07725   0.09486   0.09641
 Alpha virt. eigenvalues --    0.11793   0.12514   0.12888   0.14581   0.14797
 Alpha virt. eigenvalues --    0.16328   0.17130   0.19325   0.21774   0.23868
 Alpha virt. eigenvalues --    0.27203   0.27232   0.28688   0.29721   0.32258
 Alpha virt. eigenvalues --    0.32929   0.35080   0.36316   0.37616   0.38874
 Alpha virt. eigenvalues --    0.39845   0.40893   0.42789   0.44284   0.45596
 Alpha virt. eigenvalues --    0.56484   0.68778   0.72010   0.73909   0.76083
 Alpha virt. eigenvalues --    0.78241   0.79809   0.85618   0.92616   0.93612
 Alpha virt. eigenvalues --    1.07072   1.10302   1.10817   1.14897   1.16545
 Alpha virt. eigenvalues --    1.20853   1.23909   1.29355   1.34007   1.37865
 Alpha virt. eigenvalues --    1.42804   1.43663   1.44358   1.49472   1.61570
 Alpha virt. eigenvalues --    1.91230   2.01022
          Condensed to atoms (all electrons):
               1          2          3          4          5          6
     1  C    6.606043  -0.309262   0.376026   0.350420   0.336596  -0.468652
     2  C   -0.309262   5.589023  -0.045802  -0.011999  -0.016147   0.186565
     3  H    0.376026  -0.045802   0.456353  -0.020215  -0.024979   0.007598
     4  H    0.350420  -0.011999  -0.020215   0.445724  -0.020949   0.009111
     5  H    0.336596  -0.016147  -0.024979  -0.020949   0.487686  -0.000570
     6  O   -0.468652   0.186565   0.007598   0.009111  -0.000570   8.826420
     7  O   -0.168288   0.333416   0.001756  -0.003156   0.002767  -0.185233
     8  C   -0.066911  -0.098893  -0.003363   0.000135   0.010016   0.084141
     9  H    0.003555  -0.007412   0.000031   0.000004  -0.000224  -0.053300
    10  H   -0.003323  -0.000270  -0.000031   0.000001   0.000114  -0.052981
    11  H    0.001319   0.003331   0.000594  -0.000052  -0.001039  -0.041434
               7          8          9         10         11
     1  C   -0.168288  -0.066911   0.003555  -0.003323   0.001319
     2  C    0.333416  -0.098893  -0.007412  -0.000270   0.003331
     3  H    0.001756  -0.003363   0.000031  -0.000031   0.000594
     4  H   -0.003156   0.000135   0.000004   0.000001  -0.000052
     5  H    0.002767   0.010016  -0.000224   0.000114  -0.001039
     6  O   -0.185233   0.084141  -0.053300  -0.052981  -0.041434
     7  O    8.388804   0.007044   0.006380  -0.000241  -0.002989
     8  C    0.007044   5.310501   0.385097   0.405062   0.368563
     9  H    0.006380   0.385097   0.519129  -0.027182  -0.042114
    10  H   -0.000241   0.405062  -0.027182   0.472999  -0.027669
    11  H   -0.002989   0.368563  -0.042114  -0.027669   0.547397
 Mulliken charges:
               1
     1  C   -0.657522
     2  C    0.377450
     3  H    0.252032
     4  H    0.250977
     5  H    0.226728
     6  O   -0.311664
     7  O   -0.380260
     8  C   -0.401392
     9  H    0.216036
    10  H    0.233521
    11  H    0.194094
 Sum of Mulliken charges =   0.00000
 Mulliken charges with hydrogens summed into heavy atoms:
               1
     1  C    0.072215
     2  C    0.377450
     6  O   -0.311664
     7  O   -0.380260
     8  C    0.242260
 Electronic spatial extent (au):  <R**2>=            435.3643
 Charge=              0.0000 electrons
 Dipole moment (field-independent basis, Debye):
    X=             -2.3757    Y=              3.9809    Z=              0.9031  Tot=              4.7231
 Quadrupole moment (field-independent basis, Debye-Ang):
   XX=            -28.7646   YY=            -33.1449   ZZ=            -30.5619
   XY=              3.3109   XZ=             -2.2403   YZ=             -0.3164
 Traceless Quadrupole moment (field-independent basis, Debye-Ang):
   XX=              2.0592   YY=             -2.3211   ZZ=              0.2619
   XY=              3.3109   XZ=             -2.2403   YZ=             -0.3164
 Octapole moment (field-independent basis, Debye-Ang**2):
  XXX=            -14.0914  YYY=              3.6235  ZZZ=              0.2953  XYY=             -2.8455
  XXY=              4.7933  XXZ=             -0.7108  XZZ=              0.2789  YZZ=             -0.1668
  YYZ=             -0.5118  XYZ=              1.3306
 Hexadecapole moment (field-independent basis, Debye-Ang**3):
 XXXX=           -307.8795 YYYY=           -178.7237 ZZZZ=            -53.3965 XXXY=             11.7453
 XXXZ=              2.6410 YYYX=              1.1383 YYYZ=              0.0898 ZZZX=             -1.5033
 ZZZY=             -2.0393 XXYY=            -87.8800 XXZZ=            -63.8723 YYZZ=            -36.3368
 XXYZ=              1.9693 YYXZ=             -1.1376 ZZXY=             -0.2959
 N-N= 1.784918621421D+02 E-N=-9.844782130318D+02  KE= 2.666730012406D+02
 No NMR shielding tensors so no spin-rotation constants.
 Leave Link  601 at Wed May 26 09:01:16 2021, MaxMem=  2147483648 cpu:         0.6
 (Enter /opt/cluster/programs/g09_d.01/g09/l701.exe)
 Compute integral first derivatives.
 ... and contract with generalized density number  0.
 R6Disp: Adding Grimme-D2 dispersion energy 1st derivatives to the gradient.
 Leave Link  701 at Wed May 26 09:01:16 2021, MaxMem=  2147483648 cpu:         0.6
 (Enter /opt/cluster/programs/g09_d.01/g09/l702.exe)
 L702 exits ... SP integral derivatives will be done elsewhere.
 Leave Link  702 at Wed May 26 09:01:17 2021, MaxMem=  2147483648 cpu:         0.2
 (Enter /opt/cluster/programs/g09_d.01/g09/l703.exe)
 Compute integral first derivatives, UseDBF=F ICtDFT=           0.
 Integral derivatives from FoFJK, PRISM(SPDF).
 Calling FoFJK, ICntrl=      2127 FMM=F ISym2X=0 I1Cent= 0 IOpClX= 0 NMat=1 NMatS=1 NMatT=0.
 FoFJK:  IHMeth= 1 ICntrl=    2127 DoSepK=T KAlg= 0 I1Cent=   0 FoldK=F
 IRaf=         1 NMat=   1 IRICut=       1 DoRegI=T DoRafI=F ISym2E= 0.
 FoFCou: FMM=F IPFlag=           0 FMFlag=      100000 FMFlg1=         800
         NFxFlg=           0 DoJE=F BraDBF=F KetDBF=F FulRan=T
         wScrn=  0.000000 ICntrl=    2527 IOpCl=  0 I1Cent=           0 NGrid=           0
         NMat0=    1 NMatS0=      1 NMatT0=    0 NMatD0=    1 NMtDS0=    0 NMtDT0=    0
 Symmetry not used in FoFCou.
 Leave Link  703 at Wed May 26 09:01:17 2021, MaxMem=  2147483648 cpu:         3.6
 (Enter /opt/cluster/programs/g09_d.01/g09/l716.exe)
 Dipole        =-9.34688632D-01 1.56621688D+00 3.55292404D-01
 ***** Axes restored to original set *****
 -------------------------------------------------------------------
 Center     Atomic                   Forces (Hartrees/Bohr)
 Number     Number              X              Y              Z
 -------------------------------------------------------------------
      1        6          -0.001299223   -0.000311877   -0.003552932
      2        6           0.001976025   -0.001282881    0.006468350
      3        1          -0.000008365   -0.000001264    0.000003518
      4        1          -0.000005526   -0.000010605    0.000004866
      5        1          -0.000006220   -0.000007462    0.000003237
      6        8          -0.000814336    0.004897350   -0.005284732
      7        8           0.000010930   -0.000001081   -0.000002782
      8        6           0.000142430   -0.003310343    0.002369048
      9        1           0.000005456    0.000007905   -0.000002952
     10        1           0.000001827    0.000013393   -0.000007587
     11        1          -0.000002997    0.000006863    0.000001966
 -------------------------------------------------------------------
 Cartesian Forces:  Max     0.006468350 RMS     0.001992152
 Leave Link  716 at Wed May 26 09:01:17 2021, MaxMem=  2147483648 cpu:         0.2
 (Enter /opt/cluster/programs/g09_d.01/g09/l103.exe)

 GradGradGradGradGradGradGradGradGradGradGradGradGradGradGradGradGradGrad
 Berny optimization.
 FormGI is forming the generalized inverse of G from B-inverse, IUseBI=4.
 Internal  Forces:  Max     0.006022632 RMS     0.001260883
 Search for a local minimum.
 Step number   1 out of a maximum of   47
 All quantities printed in internal units (Hartrees-Bohrs-Radians)
 RMS Force = .28730D-05 SwitMx=.10000D-02 MixMth= 2
 Mixed Optimization -- En-DIIS/RFO-DIIS
 Second derivative matrix not updated -- first step.
 ITU=  0
     Eigenvalues ---    0.00693   0.00929   0.01165   0.07286   0.07443
     Eigenvalues ---    0.09946   0.10622   0.16000   0.16000   0.16000
     Eigenvalues ---    0.16000   0.16000   0.16000   0.24848   0.25000
     Eigenvalues ---    0.25000   0.31802   0.34187   0.34244   0.34372
     Eigenvalues ---    0.34435   0.34858   0.35113   0.37262   0.47791
     Eigenvalues ---    0.944391000.000001000.000001000.000001000.00000
     Eigenvalues --- 1000.000001000.000001000.000001000.000001000.00000
     Eigenvalues --- 1000.000001000.00000
 RFO step:  Lambda= 0.00000000D+00 EMin= 6.92564012D-03
 Linear search not attempted -- first point.
 Iteration  1 RMS(Cart)=  0.00005506 RMS(Int)=  0.00000000
 Iteration  2 RMS(Cart)=  0.00000000 RMS(Int)=  0.00000000
 Iteration  1 RMS(Cart)=  0.00000000 RMS(Int)=  0.00000000
 ITry= 1 IFail=0 DXMaxC= 1.49D-04 DCOld= 1.00D+10 DXMaxT= 3.00D-01 DXLimC= 3.00D+00 Rises=F
 Variable       Old X    -DE/DX   Delta X   Delta X   Delta X     New X
                                 (Linear)    (Quad)   (Total)
    R1        2.84507   0.00000   0.00000   0.00000   0.00000   2.84507
    R2        2.06706   0.00000   0.00000  -0.00001  -0.00001   2.06706
    R3        2.05907   0.00000   0.00000   0.00000   0.00000   2.05906
    R4        2.07016   0.00000   0.00000   0.00001   0.00001   2.07017
    R5        2.62163   0.00000   0.00000   0.00000   0.00000   2.62163
    R6        2.30952   0.00001   0.00000   0.00001   0.00001   2.30953
    R7        2.75452  -0.00001   0.00000  -0.00002  -0.00002   2.75451
    R8        2.06602   0.00000   0.00000   0.00000   0.00000   2.06602
    R9        2.05492   0.00000   0.00000   0.00000   0.00000   2.05492
   R10        2.06921   0.00000   0.00000   0.00000   0.00000   2.06921
    A1        1.91312   0.00000   0.00000   0.00001   0.00001   1.91313
    A2        1.90817   0.00000   0.00000  -0.00001  -0.00001   1.90816
    A3        1.94531   0.00000   0.00000   0.00000   0.00000   1.94531
    A4        1.91776   0.00000   0.00000   0.00002   0.00002   1.91778
    A5        1.88290   0.00000   0.00000  -0.00001  -0.00001   1.88290
    A6        1.89635   0.00000   0.00000  -0.00001  -0.00001   1.89634
    A7        2.01789   0.00007   0.00000   0.00001   0.00001   2.01790
    A8        2.17177   0.00036   0.00000   0.00000   0.00000   2.17177
    A9        2.08732  -0.00018   0.00000  -0.00001  -0.00001   2.08731
   A10        2.08758  -0.00001   0.00000  -0.00004  -0.00004   2.08754
   A11        1.92076   0.00000   0.00000  -0.00002  -0.00002   1.92074
   A12        1.83351   0.00000   0.00000   0.00000   0.00000   1.83352
   A13        1.94558   0.00000   0.00000   0.00000   0.00000   1.94558
   A14        1.91753   0.00000   0.00000  -0.00002  -0.00002   1.91751
   A15        1.93013   0.00000   0.00000   0.00004   0.00004   1.93016
   A16        1.91404   0.00000   0.00000   0.00000   0.00000   1.91404
    D1       -0.87797  -0.00118   0.00000  -0.00002  -0.00002  -0.87800
    D2        2.14325   0.00118   0.00000  -0.00003  -0.00003   2.14322
    D3       -2.98112  -0.00118   0.00000  -0.00005  -0.00005  -2.98117
    D4        0.04010   0.00118   0.00000  -0.00005  -0.00005   0.04005
    D5        1.20529  -0.00118   0.00000  -0.00002  -0.00002   1.20526
    D6       -2.05668   0.00118   0.00000  -0.00003  -0.00003  -2.05671
    D7       -1.05792   0.00602   0.00000   0.00000   0.00000  -1.05792
    D8        2.19782   0.00374   0.00000   0.00000   0.00000   2.19782
    D9       -1.03072   0.00000   0.00000  -0.00011  -0.00011  -1.03083
   D10       -3.09394   0.00000   0.00000  -0.00008  -0.00008  -3.09402
   D11        1.11747   0.00000   0.00000  -0.00008  -0.00008   1.11739
         Item               Value     Threshold  Converged?
 Maximum Force            0.000010     0.000450     YES
 RMS     Force            0.000003     0.000300     YES
 Maximum Displacement     0.000149     0.001800     YES
 RMS     Displacement     0.000055     0.001200     YES
 Predicted change in Energy=-7.275485D-10
 Optimization completed.
    -- Stationary point found.
                           ----------------------------
                           !   Optimized Parameters   !
                           ! (Angstroms and Degrees)  !
 --------------------------                            --------------------------
 ! Name  Definition              Value          Derivative Info.                !
 --------------------------------------------------------------------------------
 ! R1    R(1,2)                  1.5055         -DE/DX =    0.0                 !
 ! R2    R(1,3)                  1.0938         -DE/DX =    0.0                 !
 ! R3    R(1,4)                  1.0896         -DE/DX =    0.0                 !
 ! R4    R(1,5)                  1.0955         -DE/DX =    0.0                 !
 ! R5    R(2,6)                  1.3873         -DE/DX =    0.0                 !
 ! R6    R(2,7)                  1.2221         -DE/DX =    0.0                 !
 ! R7    R(6,8)                  1.4576         -DE/DX =    0.0                 !
 ! R8    R(8,9)                  1.0933         -DE/DX =    0.0                 !
 ! R9    R(8,10)                 1.0874         -DE/DX =    0.0                 !
 ! R10   R(8,11)                 1.095          -DE/DX =    0.0                 !
 ! A1    A(2,1,3)              109.6137         -DE/DX =    0.0                 !
 ! A2    A(2,1,4)              109.33           -DE/DX =    0.0                 !
 ! A3    A(2,1,5)              111.458          -DE/DX =    0.0                 !
 ! A4    A(3,1,4)              109.8796         -DE/DX =    0.0                 !
 ! A5    A(3,1,5)              107.8824         -DE/DX =    0.0                 !
 ! A6    A(4,1,5)              108.6529         -DE/DX =    0.0                 !
 ! A7    A(1,2,6)              115.6167         -DE/DX =    0.0001              !
 ! A8    A(1,2,7)              124.4332         -DE/DX =    0.0004              !
 ! A9    A(6,2,7)              119.5949         -DE/DX =   -0.0002              !
 ! A10   A(2,6,8)              119.6098         -DE/DX =    0.0                 !
 ! A11   A(6,8,9)              110.0514         -DE/DX =    0.0                 !
 ! A12   A(6,8,10)             105.0526         -DE/DX =    0.0                 !
 ! A13   A(6,8,11)             111.4737         -DE/DX =    0.0                 !
 ! A14   A(9,8,10)             109.8663         -DE/DX =    0.0                 !
 ! A15   A(9,8,11)             110.5881         -DE/DX =    0.0                 !
 ! A16   A(10,8,11)            109.6663         -DE/DX =    0.0                 !
 ! D1    D(3,1,2,6)            -50.3042         -DE/DX =   -0.0012              !
 ! D2    D(3,1,2,7)            122.799          -DE/DX =    0.0012              !
 ! D3    D(4,1,2,6)           -170.8055         -DE/DX =   -0.0012              !
 ! D4    D(4,1,2,7)              2.2976         -DE/DX =    0.0012              !
 ! D5    D(5,1,2,6)             69.0578         -DE/DX =   -0.0012              !
 ! D6    D(5,1,2,7)           -117.839          -DE/DX =    0.0012              !
 ! D7    D(1,2,6,8)            -60.6145         -DE/DX =    0.006               !
 ! D8    D(7,2,6,8)            125.9257         -DE/DX =    0.0037              !
 ! D9    D(2,6,8,9)            -59.0558         -DE/DX =    0.0                 !
 ! D10   D(2,6,8,10)          -177.2697         -DE/DX =    0.0                 !
 ! D11   D(2,6,8,11)            64.0261         -DE/DX =    0.0                 !
 --------------------------------------------------------------------------------
 Lowest energy point so far.  Saving SCF results.
 GradGradGradGradGradGradGradGradGradGradGradGradGradGradGradGradGradGrad

 Largest change from initial coordinates is atom   10       0.000 Angstoms.
 Leave Link  103 at Wed May 26 09:01:17 2021, MaxMem=  2147483648 cpu:         0.1
 (Enter /opt/cluster/programs/g09_d.01/g09/l202.exe)
                          Input orientation:                          
 ---------------------------------------------------------------------
 Center     Atomic      Atomic             Coordinates (Angstroms)
 Number     Number       Type             X           Y           Z
 ---------------------------------------------------------------------
      1          6           0        0.970266   -1.262966    0.016235
      2          6           0        0.576527    0.190079    0.033649
      3          1           0        0.742398   -1.716768    0.985064
      4          1           0        2.037090   -1.345119   -0.189655
      5          1           0        0.421326   -1.817730   -0.752515
      6          8           0       -0.709878    0.457631    0.478838
      7          8           0        1.340672    1.115917   -0.195582
      8          6           0       -1.850356   -0.101179   -0.236515
      9          1           0       -1.843973    0.238350   -1.275728
     10          1           0       -2.725264    0.292384    0.275456
     11          1           0       -1.856551   -1.195103   -0.188875
 ---------------------------------------------------------------------
                    Distance matrix (angstroms):
                    1          2          3          4          5
     1  C    0.000000
     2  C    1.505548   0.000000
     3  H    1.093842   2.137468   0.000000
     4  H    1.089612   2.130714   1.787265   0.000000
     5  H    1.095479   2.161814   1.769876   1.775068   0.000000
     6  O    2.448947   1.387305   2.663340   3.353002   2.823671
     7  O    2.416847   1.222146   3.126653   2.557681   3.124365
     8  C    3.060970   2.459183   3.290100   4.081889   2.893673
     9  H    3.441375   2.752384   3.952592   4.330078   3.103675
    10  H    4.017866   3.312214   4.070002   5.057446   3.925600
    11  H    2.835061   2.808579   2.899104   3.896530   2.427772
                    6          7          8          9         10
     6  O    0.000000
     7  O    2.256754   0.000000
     8  C    1.457631   3.415503   0.000000
     9  H    2.100656   3.475457   1.093291   0.000000
    10  H    2.032351   4.175155   1.087414   1.784871   0.000000
    11  H    2.119488   3.945009   1.094978   1.798943   1.784064
                   11
    11  H    0.000000
 Stoichiometry    C3H6O2
 Framework group  C1[X(C3H6O2)]
 Deg. of freedom    27
 Full point group                 C1      NOp   1
 RotChk:  IX=0 Diff= 1.76D-16
 Largest Abelian subgroup         C1      NOp   1
 Largest concise Abelian subgroup C1      NOp   1
                         Standard orientation:                         
 ---------------------------------------------------------------------
 Center     Atomic      Atomic             Coordinates (Angstroms)
 Number     Number       Type             X           Y           Z
 ---------------------------------------------------------------------
      1          6           0        0.970266    1.262966   -0.016235
      2          6           0        0.576527   -0.190079   -0.033649
      3          1           0        0.742398    1.716768   -0.985064
      4          1           0        2.037090    1.345119    0.189655
      5          1           0        0.421326    1.817730    0.752515
      6          8           0       -0.709878   -0.457631   -0.478838
      7          8           0        1.340672   -1.115917    0.195582
      8          6           0       -1.850356    0.101179    0.236515
      9          1           0       -1.843973   -0.238350    1.275728
     10          1           0       -2.725264   -0.292384   -0.275456
     11          1           0       -1.856551    1.195103    0.188875
 ---------------------------------------------------------------------
 Rotational constants (GHZ):      8.3801097      4.1822646      3.0694404
 Leave Link  202 at Wed May 26 09:01:17 2021, MaxMem=  2147483648 cpu:         0.1
 (Enter /opt/cluster/programs/g09_d.01/g09/l9999.exe)
 1\1\GINC-NODE08\FOpt\RwB97XD\6-31+G\C3H6O2\BOITTIER\26-May-2021\0\\#p 
 wB97XD/6-31+G Opt=ModRedun\\O.pdb\\0,1\C,0.970266,-1.262966,0.016235\C
 ,0.576527,0.190079,0.033649\H,0.742398,-1.716768,0.985064\H,2.03709,-1
 .345119,-0.189655\H,0.421326,-1.81773,-0.752515\O,-0.709878,0.457631,0
 .478838\O,1.340672,1.115917,-0.195582\C,-1.850356,-0.101179,-0.236515\
 H,-1.843973,0.23835,-1.275728\H,-2.725264,0.292384,0.275456\H,-1.85655
 1,-1.195103,-0.188875\\Version=ES64L-G09RevD.01\State=1-A\HF=-268.2014
 293\RMSD=3.682e-09\RMSF=1.992e-03\Dipole=-0.9346888,-1.5662168,-0.3552
 924\Quadrupole=1.5309341,-1.7256789,0.1947448,-2.4615792,1.6656324,-0.
 2352274\PG=C01 [X(C3H6O2)]\\@


 TELEVISION IS CALLED A MEDIUM BECAUSE IT ISN'T
 RARE, AND IT ISN'T WELL DONE.
 Job cpu time:       0 days  0 hours  0 minutes 29.0 seconds.
 File lengths (MBytes):  RWF=      5 Int=      0 D2E=      0 Chk=      2 Scr=      1
 Normal termination of Gaussian 09 at Wed May 26 09:01:17 2021.
