B.pdb                                                                   
FOpt      RwB97XD                                                     6-31+G              
Number of atoms                            I               10
Info1-9                                    I   N=           9
          21          21           0           0           0         110
           2          18        -802
Charge                                     I                0
Multiplicity                               I                1
Number of electrons                        I               38
Number of alpha electrons                  I               19
Number of beta electrons                   I               19
Number of basis functions                  I               75
Number of independent functions            I               75
Number of point charges in /Mol/           I                0
Number of translation vectors              I                0
Atomic numbers                             I   N=          10
           6           6           6           6           1           1
           9           1           1           1
Nuclear charges                            R   N=          10
  6.00000000E+00  6.00000000E+00  6.00000000E+00  6.00000000E+00  1.00000000E+00
  1.00000000E+00  9.00000000E+00  1.00000000E+00  1.00000000E+00  1.00000000E+00
Current cartesian coordinates              R   N=          30
  2.91446103E+00 -1.61752451E+00 -4.38845850E-01  9.67630782E-01 -1.69011207E-01
  2.04225794E-01 -1.66958860E+00 -8.98288083E-01  7.30372074E-01 -3.64212221E+00
 -2.63775284E-02 -5.86280467E-01  4.74643597E+00 -8.09491188E-01 -8.57336793E-01
  2.69318238E+00 -3.64970529E+00 -5.32930360E-01  1.33810865E+00  2.48153902E+00
  2.21677395E-01 -1.94054192E+00 -2.31666024E+00  2.19277668E+00 -3.41518469E+00
  1.36732204E+00 -2.07459360E+00 -5.54915558E+00 -6.58108556E-01 -1.79841790E-01
Force Field                                I                0
Int Atom Types                             I   N=          10
           0           0           0           0           0           0
           0           0           0           0
MM charges                                 R   N=          10
  0.00000000E+00  0.00000000E+00  0.00000000E+00  0.00000000E+00  0.00000000E+00
  0.00000000E+00  0.00000000E+00  0.00000000E+00  0.00000000E+00  0.00000000E+00
Integer atomic weights                     I   N=          10
          12          12          12          12           1           1
          19           1           1           1
Real atomic weights                        R   N=          10
  1.20000000E+01  1.20000000E+01  1.20000000E+01  1.20000000E+01  1.00782504E+00
  1.00782504E+00  1.89984032E+01  1.00782504E+00  1.00782504E+00  1.00782504E+00
Atom fragment info                         I   N=          10
           0           0           0           0           0           0
           0           0           0           0
Atom residue num                           I   N=          10
           0           0           0           0           0           0
           0           0           0           0
Nuclear spins                              I   N=          10
           0           0           0           0           1           1
           1           1           1           1
Nuclear ZEff                               R   N=          10
 -3.60000000E+00 -3.60000000E+00 -3.60000000E+00 -3.60000000E+00 -1.00000000E+00
 -1.00000000E+00 -6.75000000E+00 -1.00000000E+00 -1.00000000E+00 -1.00000000E+00
Nuclear ZNuc                               R   N=          10
  6.00000000E+00  6.00000000E+00  6.00000000E+00  6.00000000E+00  1.00000000E+00
  1.00000000E+00  9.00000000E+00  1.00000000E+00  1.00000000E+00  1.00000000E+00
Nuclear QMom                               R   N=          10
  0.00000000E+00  0.00000000E+00  0.00000000E+00  0.00000000E+00  0.00000000E+00
  0.00000000E+00  0.00000000E+00  0.00000000E+00  0.00000000E+00  0.00000000E+00
Nuclear GFac                               R   N=          10
  0.00000000E+00  0.00000000E+00  0.00000000E+00  0.00000000E+00  2.79284600E+00
  2.79284600E+00  2.62886700E+00  2.79284600E+00  2.79284600E+00  2.79284600E+00
MicOpt                                     I   N=          10
          -1          -1          -1          -1          -1          -1
          -1          -1          -1          -1
Number of contracted shells                I               30
Number of primitive shells                 I               75
Pure/Cartesian d shells                    I                1
Pure/Cartesian f shells                    I                0
Highest angular momentum                   I                1
Largest degree of contraction              I                6
Shell types                                I   N=          30
           0          -1          -1          -1           0          -1
          -1          -1           0          -1          -1          -1
           0          -1          -1          -1           0           0
           0           0           0          -1          -1          -1
           0           0           0           0           0           0
Number of primitives per shell             I   N=          30
           6           3           1           1           6           3
           1           1           6           3           1           1
           6           3           1           1           3           1
           3           1           6           3           1           1
           3           1           3           1           3           1
Shell to atom map                          I   N=          30
           1           1           1           1           2           2
           2           2           3           3           3           3
           4           4           4           4           5           5
           6           6           7           7           7           7
           8           8           9           9          10          10
Primitive exponents                        R   N=          75
  3.04752488E+03  4.57369518E+02  1.03948685E+02  2.92101553E+01  9.28666296E+00
  3.16392696E+00  7.86827235E+00  1.88128854E+00  5.44249258E-01  1.68714478E-01
  4.38000000E-02  3.04752488E+03  4.57369518E+02  1.03948685E+02  2.92101553E+01
  9.28666296E+00  3.16392696E+00  7.86827235E+00  1.88128854E+00  5.44249258E-01
  1.68714478E-01  4.38000000E-02  3.04752488E+03  4.57369518E+02  1.03948685E+02
  2.92101553E+01  9.28666296E+00  3.16392696E+00  7.86827235E+00  1.88128854E+00
  5.44249258E-01  1.68714478E-01  4.38000000E-02  3.04752488E+03  4.57369518E+02
  1.03948685E+02  2.92101553E+01  9.28666296E+00  3.16392696E+00  7.86827235E+00
  1.88128854E+00  5.44249258E-01  1.68714478E-01  4.38000000E-02  1.87311370E+01
  2.82539436E+00  6.40121692E-01  1.61277759E-01  1.87311370E+01  2.82539436E+00
  6.40121692E-01  1.61277759E-01  7.00171309E+03  1.05136609E+03  2.39285690E+02
  6.73974453E+01  2.15199573E+01  7.40310130E+00  2.08479528E+01  4.80830834E+00
  1.34406986E+00  3.58151393E-01  1.07600000E-01  1.87311370E+01  2.82539436E+00
  6.40121692E-01  1.61277759E-01  1.87311370E+01  2.82539436E+00  6.40121692E-01
  1.61277759E-01  1.87311370E+01  2.82539436E+00  6.40121692E-01  1.61277759E-01
Contraction coefficients                   R   N=          75
  1.83473713E-03  1.40373228E-02  6.88426223E-02  2.32184443E-01  4.67941348E-01
  3.62311985E-01 -1.19332420E-01 -1.60854152E-01  1.14345644E+00  1.00000000E+00
  1.00000000E+00  1.83473713E-03  1.40373228E-02  6.88426223E-02  2.32184443E-01
  4.67941348E-01  3.62311985E-01 -1.19332420E-01 -1.60854152E-01  1.14345644E+00
  1.00000000E+00  1.00000000E+00  1.83473713E-03  1.40373228E-02  6.88426223E-02
  2.32184443E-01  4.67941348E-01  3.62311985E-01 -1.19332420E-01 -1.60854152E-01
  1.14345644E+00  1.00000000E+00  1.00000000E+00  1.83473713E-03  1.40373228E-02
  6.88426223E-02  2.32184443E-01  4.67941348E-01  3.62311985E-01 -1.19332420E-01
 -1.60854152E-01  1.14345644E+00  1.00000000E+00  1.00000000E+00  3.34946043E-02
  2.34726953E-01  8.13757326E-01  1.00000000E+00  3.34946043E-02  2.34726953E-01
  8.13757326E-01  1.00000000E+00  1.81961690E-03  1.39160796E-02  6.84053245E-02
  2.33185760E-01  4.71267439E-01  3.56618546E-01 -1.08506975E-01 -1.46451658E-01
  1.12868858E+00  1.00000000E+00  1.00000000E+00  3.34946043E-02  2.34726953E-01
  8.13757326E-01  1.00000000E+00  3.34946043E-02  2.34726953E-01  8.13757326E-01
  1.00000000E+00  3.34946043E-02  2.34726953E-01  8.13757326E-01  1.00000000E+00
P(S=P) Contraction coefficients            R   N=          75
  0.00000000E+00  0.00000000E+00  0.00000000E+00  0.00000000E+00  0.00000000E+00
  0.00000000E+00  6.89990666E-02  3.16423961E-01  7.44308291E-01  1.00000000E+00
  1.00000000E+00  0.00000000E+00  0.00000000E+00  0.00000000E+00  0.00000000E+00
  0.00000000E+00  0.00000000E+00  6.89990666E-02  3.16423961E-01  7.44308291E-01
  1.00000000E+00  1.00000000E+00  0.00000000E+00  0.00000000E+00  0.00000000E+00
  0.00000000E+00  0.00000000E+00  0.00000000E+00  6.89990666E-02  3.16423961E-01
  7.44308291E-01  1.00000000E+00  1.00000000E+00  0.00000000E+00  0.00000000E+00
  0.00000000E+00  0.00000000E+00  0.00000000E+00  0.00000000E+00  6.89990666E-02
  3.16423961E-01  7.44308291E-01  1.00000000E+00  1.00000000E+00  0.00000000E+00
  0.00000000E+00  0.00000000E+00  0.00000000E+00  0.00000000E+00  0.00000000E+00
  0.00000000E+00  0.00000000E+00  0.00000000E+00  0.00000000E+00  0.00000000E+00
  0.00000000E+00  0.00000000E+00  0.00000000E+00  7.16287242E-02  3.45912103E-01
  7.22469956E-01  1.00000000E+00  1.00000000E+00  0.00000000E+00  0.00000000E+00
  0.00000000E+00  0.00000000E+00  0.00000000E+00  0.00000000E+00  0.00000000E+00
  0.00000000E+00  0.00000000E+00  0.00000000E+00  0.00000000E+00  0.00000000E+00
Coordinates of each shell                  R   N=          90
  2.91446103E+00 -1.61752451E+00 -4.38845850E-01  2.91446103E+00 -1.61752451E+00
 -4.38845850E-01  2.91446103E+00 -1.61752451E+00 -4.38845850E-01  2.91446103E+00
 -1.61752451E+00 -4.38845850E-01  9.67630782E-01 -1.69011207E-01  2.04225794E-01
  9.67630782E-01 -1.69011207E-01  2.04225794E-01  9.67630782E-01 -1.69011207E-01
  2.04225794E-01  9.67630782E-01 -1.69011207E-01  2.04225794E-01 -1.66958860E+00
 -8.98288083E-01  7.30372074E-01 -1.66958860E+00 -8.98288083E-01  7.30372074E-01
 -1.66958860E+00 -8.98288083E-01  7.30372074E-01 -1.66958860E+00 -8.98288083E-01
  7.30372074E-01 -3.64212221E+00 -2.63775284E-02 -5.86280467E-01 -3.64212221E+00
 -2.63775284E-02 -5.86280467E-01 -3.64212221E+00 -2.63775284E-02 -5.86280467E-01
 -3.64212221E+00 -2.63775284E-02 -5.86280467E-01  4.74643597E+00 -8.09491188E-01
 -8.57336793E-01  4.74643597E+00 -8.09491188E-01 -8.57336793E-01  2.69318238E+00
 -3.64970529E+00 -5.32930360E-01  2.69318238E+00 -3.64970529E+00 -5.32930360E-01
  1.33810865E+00  2.48153902E+00  2.21677395E-01  1.33810865E+00  2.48153902E+00
  2.21677395E-01  1.33810865E+00  2.48153902E+00  2.21677395E-01  1.33810865E+00
  2.48153902E+00  2.21677395E-01 -1.94054192E+00 -2.31666024E+00  2.19277668E+00
 -1.94054192E+00 -2.31666024E+00  2.19277668E+00 -3.41518469E+00  1.36732204E+00
 -2.07459360E+00 -3.41518469E+00  1.36732204E+00 -2.07459360E+00 -5.54915558E+00
 -6.58108556E-01 -1.79841790E-01 -5.54915558E+00 -6.58108556E-01 -1.79841790E-01
Constraint Structure                       R   N=          30
  2.93757050E+00 -1.60697165E+00 -4.43161864E-01  9.68832649E-01 -1.81610332E-01
  2.18268739E-01 -1.66865603E+00 -9.15066655E-01  7.21848628E-01 -3.65456946E+00
 -2.66426752E-02 -5.82561291E-01  4.76003161E+00 -7.75537023E-01 -8.64189066E-01
  2.75189978E+00 -3.64410025E+00 -5.41935959E-01  1.32577286E+00  2.49558178E+00
  2.23395566E-01 -1.94063070E+00 -2.38203845E+00  2.13866324E+00 -3.44397309E+00
  1.40615529E+00 -2.03713263E+00 -5.55834931E+00 -6.82967742E-01 -1.92330955E-01
Num ILSW                                   I              100
ILSW                                       I   N=         100
           0           1           0           0           2           0
           0           0           0           0        4639          -1
           0           0           0           0           2           0
           0           0           0           0           1           0
           1           0           0           0           0           0
           0           0      100000           0          -1           0
           0           0           0           0           0           0
           0           0           0           1           0           0
           0           0           1           0           0           0
           0           0         121          41           0           0
           0           0          58           0           0           0
           0           0           0          10           0           0
           0           0           0           0           0           0
           0           0           0           0           0           0
           0           0           0           0           0           0
           0           0           0           0           0           0
           0           0           0           0
Num RLSW                                   I               41
RLSW                                       R   N=          41
  1.00000000E+00  1.00000000E+00  1.00000000E+00  1.00000000E+00  1.00000000E+00
  0.00000000E+00  2.00000000E-01  2.22036000E-01  0.00000000E+00  7.77964000E-01
  0.00000000E+00  2.00000000E-01  0.00000000E+00  0.00000000E+00  1.00000000E+00
  0.00000000E+00  0.00000000E+00  1.00000000E+00  0.00000000E+00  0.00000000E+00
  0.00000000E+00  0.00000000E+00  1.00000000E+00  0.00000000E+00  0.00000000E+00
  0.00000000E+00  0.00000000E+00  1.00000000E+00  0.00000000E+00  0.00000000E+00
  0.00000000E+00  0.00000000E+00  1.00000000E+00  0.00000000E+00  0.00000000E+00
  0.00000000E+00  0.00000000E+00  0.00000000E+00  1.00000000E+00  1.00000000E+00
  0.00000000E+00
MxBond                                     I                3
NBond                                      I   N=          10
           3           3           3           3           1           1
           1           1           1           1
IBond                                      I   N=          30
           2           5           6           1           3           7
           2           4           8           3           9          10
           1           0           0           1           0           0
           2           0           0           3           0           0
           4           0           0           4           0           0
RBond                                      R   N=          30
  2.00000000E+00  1.00000000E+00  1.00000000E+00  2.00000000E+00  1.00000000E+00
  1.00000000E+00  1.00000000E+00  2.00000000E+00  1.00000000E+00  2.00000000E+00
  1.00000000E+00  1.00000000E+00  1.00000000E+00  0.00000000E+00  0.00000000E+00
  1.00000000E+00  0.00000000E+00  0.00000000E+00  1.00000000E+00  0.00000000E+00
  0.00000000E+00  1.00000000E+00  0.00000000E+00  0.00000000E+00  1.00000000E+00
  0.00000000E+00  0.00000000E+00  1.00000000E+00  0.00000000E+00  0.00000000E+00
Virial Ratio                               R      2.005639208766509E+00
SCF Energy                                 R     -2.550938208353705E+02
Total Energy                               R     -2.550938208353705E+02
RMS Force                                  R      1.962757621476966E-03
RMS Density                                R      7.792208794953962E-09
External E-field                           R   N=          35
  0.00000000E+00  0.00000000E+00  0.00000000E+00  0.00000000E+00  0.00000000E+00
  0.00000000E+00  0.00000000E+00  0.00000000E+00  0.00000000E+00  0.00000000E+00
  0.00000000E+00  0.00000000E+00  0.00000000E+00  0.00000000E+00  0.00000000E+00
  0.00000000E+00  0.00000000E+00  0.00000000E+00  0.00000000E+00  0.00000000E+00
  0.00000000E+00  0.00000000E+00  0.00000000E+00  0.00000000E+00  0.00000000E+00
  0.00000000E+00  0.00000000E+00  0.00000000E+00  0.00000000E+00  0.00000000E+00
  0.00000000E+00  0.00000000E+00  0.00000000E+00  0.00000000E+00  0.00000000E+00
IOpCl                                      I                0
IROHF                                      I                0
Alpha Orbital Energies                     R   N=          75
 -2.48282339E+01 -1.04013360E+01 -1.03296489E+01 -1.03183166E+01 -1.03081814E+01
 -1.30687885E+00 -9.26862309E-01 -8.63200813E-01 -7.32042129E-01 -6.60968719E-01
 -6.01658873E-01 -5.82026725E-01 -5.55988588E-01 -5.23533248E-01 -5.06876922E-01
 -4.84595685E-01 -4.51773696E-01 -3.92484946E-01 -3.38570029E-01  2.66929983E-02
  6.63976567E-02  8.08567066E-02  8.92581734E-02  9.96321870E-02  1.15060954E-01
  1.18488670E-01  1.33301621E-01  1.37603584E-01  1.43654582E-01  1.57732739E-01
  1.72487829E-01  1.80882663E-01  1.88843388E-01  2.00911273E-01  2.06108126E-01
  2.34888614E-01  2.46204723E-01  2.62079073E-01  2.79666745E-01  2.92230400E-01
  3.08230977E-01  3.27145277E-01  3.91513957E-01  4.17393909E-01  4.27601402E-01
  4.32101186E-01  4.67196355E-01  4.83359184E-01  5.00876949E-01  5.08749061E-01
  6.81326969E-01  7.42624117E-01  7.79773568E-01  7.84023248E-01  8.01595574E-01
  8.28214758E-01  8.56818117E-01  8.94778697E-01  9.33868775E-01  9.48321878E-01
  1.02117714E+00  1.04825593E+00  1.08337502E+00  1.12394061E+00  1.13925130E+00
  1.16553445E+00  1.22035219E+00  1.27262802E+00  1.32476694E+00  1.38559152E+00
  1.42673359E+00  1.67199283E+00  1.82583727E+00  1.85249109E+00  2.36667248E+00
Alpha MO coefficients                      R   N=        5625
  1.16126928E-05 -6.18580899E-05  1.22013979E-04  1.70932345E-05 -2.70502551E-05
  4.15142512E-04 -1.82171511E-03 -2.68319866E-03  4.23274078E-04  6.67186144E-03
 -1.79235525E-03  1.19370339E-03  2.19819768E-05 -1.99483294E-05  3.93044518E-04
  7.02206091E-05  5.34714427E-04  7.23682118E-05 -2.60586833E-04  1.71165126E-03
  3.83399416E-03 -6.36701647E-04 -1.60411492E-02  1.49120671E-03 -1.57571638E-03
  2.77255430E-04 -3.52037752E-06 -1.99104421E-04 -1.04246242E-04 -4.80882863E-05
 -5.76572213E-06  1.61590741E-03  1.82234428E-03 -1.03865850E-03  1.41114412E-04
 -2.99701615E-03  2.16491847E-03  5.09761562E-04  1.97813998E-03  1.14727614E-05
  1.54802787E-04  8.40744504E-05  5.13048388E-05  8.85753269E-06  8.76916250E-04
 -1.86185942E-04 -4.06689316E-04  5.35010347E-04  9.25581676E-03  2.38785224E-03
 -6.83165638E-04  3.73036827E-04  3.29547761E-04  1.07876521E-03 -2.79731811E-04
 -1.64523558E-03  9.95027464E-01  2.76086051E-02 -1.76836214E-04 -1.27319747E-03
 -2.72991709E-05 -1.54091537E-02  2.72777267E-04  2.15939663E-03  8.29788794E-05
  8.54958742E-03 -3.38523522E-04 -1.01427275E-03  4.96417163E-06 -1.37989903E-04
 -2.16710322E-04  1.41500181E-04 -3.24806638E-05 -5.71802934E-05 -4.39645942E-04
  4.72955186E-03 -1.15508247E-03  7.39777022E-04 -4.33293727E-04 -2.43670292E-04
  8.54145199E-03 -3.89197510E-03  9.04515765E-04  1.09567333E-03 -2.32664642E-02
  5.50299370E-03 -3.15486977E-03 -1.28785123E-03  9.95502982E-01  3.63213676E-02
  2.16494404E-04  1.10095947E-03 -1.10306212E-04 -3.56968469E-02  3.38557685E-04
  6.25948648E-04  3.18051221E-04  5.07235008E-02 -3.69770674E-03 -6.87533019E-03
  1.55102215E-05  1.91604547E-03 -4.13399751E-04 -5.27710585E-04 -1.56034742E-04
  7.82964393E-05  4.69113900E-03  4.35327962E-03  4.25039205E-04 -3.29141478E-04
 -9.17303748E-03 -1.06168604E-02 -1.05677642E-04 -1.93245817E-03 -1.32478322E-04
 -5.33888607E-04 -1.30707767E-04  4.46081422E-05  5.31468096E-05  1.95544273E-03
  6.57665938E-04 -3.75812358E-04  2.30759982E-04 -1.71417029E-02 -3.37656613E-03
  1.98274971E-03 -1.78911533E-03 -5.51456329E-05  4.52640507E-04 -2.85931014E-04
 -1.07470956E-03  3.91146901E-05  6.63987197E-04  1.97933212E-05 -8.50460623E-05
 -6.33825539E-06 -6.64791580E-04 -4.47604366E-05  8.24451488E-04  2.15225693E-05
  6.63682494E-03 -2.44631182E-04 -4.71055232E-03 -1.55361381E-04 -2.18991237E-04
  2.95096377E-04 -1.32117181E-04 -2.70394704E-04 -6.00056340E-05  5.54717902E-04
 -5.17382167E-04 -4.96583016E-04  1.38485116E-04  3.49596100E-05  1.00706751E-05
  2.71387137E-03 -4.15787218E-04  1.38480555E-03  2.64517234E-04 -2.44933208E-02
  4.82424059E-03 -3.45896079E-03 -6.65622057E-04 -1.83037109E-03 -4.97066857E-04
  6.82912660E-04  1.52073849E-04 -2.32547277E-04  5.06845878E-03 -6.86462308E-03
 -1.32696374E-03  1.20968772E-03 -6.33183907E-03  1.34949610E-02 -3.78383525E-03
 -3.28945985E-03  9.94705082E-01  3.63684048E-02  1.94601380E-04  2.63425303E-04
 -4.03289307E-04 -3.56856393E-02 -1.91817112E-03 -3.09932263E-03  3.54760414E-03
  7.42444046E-02  3.09359366E-04  9.64909938E-03 -1.04761793E-02  3.74083200E-02
  2.84163238E-05 -7.17398563E-04  3.24735356E-04 -4.90054955E-04  8.40373835E-03
  4.62566727E-03 -5.54867832E-04  1.36980522E-03 -4.13789819E-02 -8.84329980E-03
  2.79018826E-03 -4.10573958E-03 -1.26623974E-04  1.28963414E-04 -1.08607690E-04
  4.58431137E-04 -2.48584537E-07 -1.72778262E-04  7.08568347E-05  1.52575734E-04
 -2.21872665E-05  4.23620443E-05  4.78153273E-05 -5.50359258E-04 -2.54227210E-06
  1.22067377E-03  2.04870529E-04 -4.34162298E-04  3.01838300E-05 -6.30214754E-04
  2.67379422E-03 -3.46865445E-04 -7.99124817E-04 -1.20663726E-04  1.06528931E-03
 -2.95815995E-04 -1.52726842E-04 -1.21827286E-04 -2.93496466E-05 -3.01874840E-06
  7.73297359E-04  9.22318016E-04  8.34309519E-04 -1.01431385E-04 -2.89015948E-02
  4.19757981E-03 -3.89829501E-03 -2.14290362E-03  1.00138537E-04 -5.34836338E-04
  1.79887838E-04  5.53950222E-05  1.00491768E-05  1.72744865E-03 -1.41732652E-03
 -9.07784685E-04  5.66139065E-04 -1.51206556E-02  2.07073671E-02 -4.09433515E-03
 -3.41462669E-03 -3.76509542E-02 -2.54639985E-03  8.71440633E-04 -4.61154842E-04
  6.78272578E-04  9.01513462E-03 -5.52465035E-03  1.92362286E-03 -3.05991100E-03
  1.60142749E-02  1.63365337E-02  3.61083711E-03 -4.05253478E-04  9.94628570E-01
  3.54564692E-02  4.00710667E-04 -1.61012652E-04  3.09205249E-04 -3.14464011E-02
 -3.19605824E-03  1.53834572E-03 -2.34988206E-03  2.87881499E-02  6.75962508E-03
 -3.23406907E-03  5.16597648E-03 -1.21866940E-04 -6.12437003E-04  5.04944789E-05
  6.93582267E-04  7.30596450E-06  1.33434458E-04 -5.97085560E-05  2.22585182E-05
  1.19840619E-05 -4.22604911E-04  4.44729783E-04 -7.07245370E-05 -3.77334569E-05
  1.48984053E-03 -5.20506718E-04  9.90508620E-05 -1.61153234E-04 -4.47801006E-05
 -8.68389669E-05 -6.17205812E-04  3.65842390E-03 -6.84098802E-04  4.19787787E-03
  9.95292855E-01  3.56518093E-02 -5.80585380E-04  3.29921695E-04  2.19412496E-04
 -3.25913877E-02  4.05256756E-03 -2.54913540E-03 -1.39170517E-03  2.29615944E-02
 -5.01561667E-03  5.61667144E-03  1.95827180E-03 -5.01028916E-03 -1.52081451E-03
 -1.01462663E-03  7.49897805E-04  3.28297938E-04  9.25877980E-03  6.00082751E-03
 -4.69863799E-03 -1.69715106E-03  1.78139920E-02 -1.49541513E-02 -3.93862152E-03
  4.26107775E-03  4.20684229E-04 -4.24492135E-04 -1.38674565E-04 -5.12955634E-06
  9.72668779E-05  2.02092707E-03  4.11979668E-04  1.56934445E-03 -9.14139176E-04
 -1.55973249E-02 -1.75171360E-02  1.11644408E-03 -2.07529995E-03  2.87952808E-04
 -1.22760377E-04  9.51724399E-05  1.47769714E-05 -5.40945175E-05 -3.07755042E-04
 -1.22771298E-03 -2.83348223E-04  1.52834470E-04 -2.41125106E-02 -3.81610204E-03
  2.14984292E-03 -3.26327025E-03 -7.08913461E-04  3.93601058E-03 -5.97612787E-04
  3.94016003E-03 -4.30062826E-07 -1.24204126E-04 -1.33919699E-05  1.41467746E-04
 -1.06793980E-06  8.70286256E-05 -1.83400184E-04 -5.00583234E-04  8.52894769E-05
  1.10126240E-03 -3.08258943E-04  1.35817211E-04 -1.63264118E-04 -2.21983756E-05
  9.14556058E-04  6.57279395E-05  4.90868065E-04 -9.09654012E-05 -5.05975343E-04
 -9.94079728E-03  1.91222187E-02 -1.00407872E-02  1.28873319E-02  3.54018835E-03
  5.56398692E-06  2.14555161E-02  2.90825890E-02 -4.69873740E-03 -5.50243584E-02
  1.61491452E-02 -5.05371036E-03 -3.14369922E-03 -5.88597096E-02  1.14735949E-01
  1.40742024E-02  9.42795853E-02 -6.97920030E-04  3.95887305E-02 -2.31266700E-02
 -5.14552496E-02  5.56630069E-03  1.35595965E-01 -1.46396340E-02 -2.67580398E-03
  2.26372526E-03 -8.56001256E-03  1.71581065E-02  1.14462438E-02  8.42352349E-03
 -2.64925066E-03 -1.26101086E-02 -2.16460327E-02  1.08914445E-02  6.80064266E-04
 -1.35267626E-02 -2.41663792E-02 -5.95651362E-03 -9.62411186E-03 -2.30087746E-03
  2.30312339E-03  2.12172964E-03 -2.66592845E-04  8.27030030E-04 -7.58783834E-03
  3.78888985E-03  4.89454400E-03 -6.17051053E-03 -5.42578433E-02 -1.17640184E-02
  5.50546986E-03 -3.81294169E-03  8.47003421E-04 -1.34924737E-02  3.51901749E-03
  1.69723445E-02 -2.25799480E-01  4.79025646E-01 -1.36668696E-02 -9.63905725E-02
 -1.34324645E-03  5.44334610E-01 -1.02162505E-02 -7.66171053E-02 -1.64729554E-03
 -1.02576273E-02  2.75630269E-03  1.07739429E-02 -3.41602547E-04  2.60226549E-03
  4.10652553E-04 -9.57904987E-05 -5.17997685E-04  8.80124221E-04  5.34565582E-03
 -8.71035918E-02  1.68060917E-01 -6.88952156E-02  3.33947012E-02  2.04077992E-02
  1.33364753E-01 -6.29398631E-03  7.99178153E-03  5.15745437E-03  7.74199665E-02
 -1.43503781E-02  1.33118081E-02  1.89783598E-03 -1.22782842E-01  2.47039451E-01
 -2.65434929E-02 -8.14494338E-02 -8.14596501E-03  1.72328515E-01 -3.11367187E-02
  4.88203685E-03 -8.56841242E-06 -3.32981799E-02 -2.79978383E-02  7.64998032E-03
  8.98171771E-03 -1.39738087E-01  2.72669598E-01  1.14731812E-02  2.82979739E-02
 -4.51235030E-02  1.76556526E-01  7.64097008E-03 -1.47230752E-02  6.49291952E-03
 -1.07867569E-01 -4.98186221E-03 -1.73783276E-02  1.91458633E-02 -9.59065994E-02
  1.85772843E-01  6.94876490E-02 -2.57713438E-02  3.86572575E-02  1.39810340E-01
  6.93427508E-03 -1.51980708E-04  3.54163676E-03  6.47955779E-02  1.66053408E-02
 -2.50740126E-03  3.57291579E-03  3.62505071E-02 -2.35045301E-04  4.51681539E-02
  9.16599987E-03  4.75163671E-02 -1.06563918E-01 -1.46705350E-02 -5.81813266E-02
 -1.64111473E-03 -1.36373252E-01 -4.36899448E-03 -2.48297540E-02 -4.98320871E-04
 -2.16170508E-02  2.81305807E-03  8.27368802E-03 -5.16595867E-04  6.84224375E-02
  2.13531461E-03  4.60618547E-02  5.01653131E-03  4.32707750E-02  3.91673038E-03
 -1.37944265E-01  2.65837824E-01 -6.31090205E-02  5.08317345E-02  2.36453290E-02
  2.00719389E-01 -1.52978772E-03 -3.09835983E-03 -1.61566897E-04 -6.83895994E-02
  1.11919895E-02 -9.38197188E-03 -3.65957834E-03 -8.57961341E-02  1.78288549E-01
  1.52378393E-01 -7.94196442E-02 -3.74047950E-02  1.15905602E-01  3.26441208E-02
 -1.23590569E-02 -4.05267261E-03 -7.14067978E-02  5.43167825E-02 -6.19286407E-03
 -1.55996860E-02  8.46791946E-02 -1.67290730E-01  1.11801519E-01 -3.21933718E-02
  3.97244995E-02 -1.13917301E-01  2.33365210E-02  3.27747492E-03 -3.80387399E-03
  8.31365007E-02  6.13683667E-02  1.11764854E-02 -1.50923616E-03  1.18611883E-01
 -2.29690462E-01 -5.00113560E-02  2.47758532E-02 -4.04917455E-02 -1.83160517E-01
 -6.53763577E-03 -4.29773330E-03  3.63153696E-03  5.60717143E-02  5.46748760E-03
 -7.70295079E-03  1.15075760E-02  7.73025500E-02  1.56029375E-02  7.61992568E-02
  1.22618364E-02  2.61394246E-02 -6.01690753E-02  2.97048574E-02 -5.65891569E-02
 -6.85369173E-03 -7.31955845E-02  1.44535190E-02 -3.06182272E-02 -3.79169776E-03
 -1.22575990E-02  3.39844399E-03  4.61734678E-03  3.69812865E-05 -4.40606915E-02
 -6.47904660E-03 -6.40196292E-02 -5.72881842E-03 -6.86074973E-02 -1.77661205E-02
 -9.53125446E-02  1.86853375E-01  5.73690238E-02 -2.48749082E-03 -1.81343795E-02
  1.78613436E-01  1.95951513E-02 -4.96699886E-03 -5.58277442E-03 -5.64219124E-02
  1.25700096E-02 -1.47274111E-02 -1.15033889E-03  6.83100490E-02 -1.46724064E-01
  2.04523609E-01 -2.69549378E-02 -6.91353345E-02 -1.44512737E-01  5.19533101E-02
 -2.03087801E-03 -1.97306873E-02  3.82419280E-02  2.35235936E-02  2.11418296E-03
 -1.08376751E-02  7.05717742E-02 -1.44595746E-01 -1.96489636E-01  1.21189159E-02
 -5.52342756E-02 -1.31961327E-01 -3.61375066E-02  5.70802788E-03 -1.92644555E-02
  1.23828238E-01 -1.76406812E-02  9.66057181E-03 -1.74582816E-02 -1.19408990E-01
  2.38486812E-01 -7.25605941E-02  9.13178449E-03 -2.33274112E-02  2.29211659E-01
 -3.11896805E-02  1.90690968E-04 -6.87013360E-03 -9.61726817E-02 -2.42077990E-02
  8.46463283E-03 -1.23803181E-02  1.01085371E-01  3.63019923E-02  7.75676298E-02
  2.69170172E-02 -2.33644570E-02  5.46505956E-02  7.94992280E-02  9.22837111E-02
 -2.58743952E-02  6.77307796E-02  4.45508265E-02  5.15457906E-02 -1.47431637E-02
  2.33577491E-02  2.76958578E-05 -8.18274971E-03 -3.60145518E-04 -6.76253780E-02
 -2.18773586E-02  1.04811845E-01  3.78768068E-02  1.23541399E-01  4.13611301E-02
 -5.07633145E-02  9.81930714E-02  5.55034248E-02 -1.33054052E-01 -1.54848948E-02
  1.19686645E-01  7.30132016E-04 -5.40043313E-02 -2.96237322E-04  4.86460451E-02
 -9.78015478E-03 -7.55912533E-03  2.60456290E-03  7.63432603E-02 -1.68597622E-01
 -4.89321517E-02 -1.66833874E-01  3.34076609E-02 -1.79077351E-01  5.68872108E-03
 -2.88542180E-02  6.59286886E-03 -1.44933503E-01  1.82328122E-02  3.65273088E-02
 -3.86718183E-03 -7.47442345E-02  1.48743098E-01 -4.45904157E-02 -1.21366369E-01
  9.69630897E-02  1.73613294E-01  1.05574867E-02 -5.27273684E-02  3.93728282E-02
 -1.55046892E-02  5.31595077E-02 -1.65808960E-02  1.45358335E-02  4.86819623E-02
 -9.70675371E-02  4.75533153E-02 -8.59822933E-02  9.43641636E-02 -9.73946113E-02
  1.41875765E-02 -2.99339699E-02  3.49434125E-02  1.15067245E-01  2.40763182E-02
 -1.20130036E-02  1.86112385E-02  5.08914041E-02  3.05632644E-02  1.10197958E-01
  4.69534842E-02 -5.16739928E-02  1.21042880E-01  4.66694810E-02  3.31980646E-01
  2.26411991E-02  1.53036113E-01  2.62433036E-02  1.90879240E-01  1.40091027E-02
  5.91028091E-02 -4.95474324E-04 -2.55541506E-03  1.24004864E-03  1.46063251E-01
  6.34635166E-02 -1.02618268E-01 -4.78792220E-02 -4.66697941E-02 -2.35355854E-02