 Entering Gaussian System, Link 0=/opt/cluster/programs/g09_d.01/g09//g09
 Input=/home/unibas/boittier/RDKit_G2/B.pdb/SCAN_1_2_3_4_S_17_20.0/11_SCAN_1_2_3_4_F/11_SCAN_B.pdb.com
 Output=/scratch/boittier/11_SCAN_B.pdb/11_SCAN_B.pdb.out
 Initial command:
 /opt/cluster/programs/g09_d.01/g09/l1.exe "/scratch/boittier/11_SCAN_B.pdb/Gau-190110.inp" -scrdir="/scratch/boittier/11_SCAN_B.pdb/"
 Entering Link 1 = /opt/cluster/programs/g09_d.01/g09/l1.exe PID=    190112.
  
 Copyright (c) 1988,1990,1992,1993,1995,1998,2003,2009,2013,
            Gaussian, Inc.  All Rights Reserved.
  
 This is part of the Gaussian(R) 09 program.  It is based on
 the Gaussian(R) 03 system (copyright 2003, Gaussian, Inc.),
 the Gaussian(R) 98 system (copyright 1998, Gaussian, Inc.),
 the Gaussian(R) 94 system (copyright 1995, Gaussian, Inc.),
 the Gaussian 92(TM) system (copyright 1992, Gaussian, Inc.),
 the Gaussian 90(TM) system (copyright 1990, Gaussian, Inc.),
 the Gaussian 88(TM) system (copyright 1988, Gaussian, Inc.),
 the Gaussian 86(TM) system (copyright 1986, Carnegie Mellon
 University), and the Gaussian 82(TM) system (copyright 1983,
 Carnegie Mellon University). Gaussian is a federally registered
 trademark of Gaussian, Inc.
  
 This software contains proprietary and confidential information,
 including trade secrets, belonging to Gaussian, Inc.
  
 This software is provided under written license and may be
 used, copied, transmitted, or stored only in accord with that
 written license.
  
 The following legend is applicable only to US Government
 contracts under FAR:
  
                    RESTRICTED RIGHTS LEGEND
  
 Use, reproduction and disclosure by the US Government is
 subject to restrictions as set forth in subparagraphs (a)
 and (c) of the Commercial Computer Software - Restricted
 Rights clause in FAR 52.227-19.
  
 Gaussian, Inc.
 340 Quinnipiac St., Bldg. 40, Wallingford CT 06492
  
  
 ---------------------------------------------------------------
 Warning -- This program may not be used in any manner that
 competes with the business of Gaussian, Inc. or will provide
 assistance to any competitor of Gaussian, Inc.  The licensee
 of this program is prohibited from giving any competitor of
 Gaussian, Inc. access to this program.  By using this program,
 the user acknowledges that Gaussian, Inc. is engaged in the
 business of creating and licensing software in the field of
 computational chemistry and represents and warrants to the
 licensee that it is not a competitor of Gaussian, Inc. and that
 it will not use this program in any manner prohibited above.
 ---------------------------------------------------------------
  

 Cite this work as:
 Gaussian 09, Revision D.01,
 M. J. Frisch, G. W. Trucks, H. B. Schlegel, G. E. Scuseria, 
 M. A. Robb, J. R. Cheeseman, G. Scalmani, V. Barone, B. Mennucci, 
 G. A. Petersson, H. Nakatsuji, M. Caricato, X. Li, H. P. Hratchian, 
 A. F. Izmaylov, J. Bloino, G. Zheng, J. L. Sonnenberg, M. Hada, 
 M. Ehara, K. Toyota, R. Fukuda, J. Hasegawa, M. Ishida, T. Nakajima, 
 Y. Honda, O. Kitao, H. Nakai, T. Vreven, J. A. Montgomery, Jr., 
 J. E. Peralta, F. Ogliaro, M. Bearpark, J. J. Heyd, E. Brothers, 
 K. N. Kudin, V. N. Staroverov, T. Keith, R. Kobayashi, J. Normand, 
 K. Raghavachari, A. Rendell, J. C. Burant, S. S. Iyengar, J. Tomasi, 
 M. Cossi, N. Rega, J. M. Millam, M. Klene, J. E. Knox, J. B. Cross, 
 V. Bakken, C. Adamo, J. Jaramillo, R. Gomperts, R. E. Stratmann, 
 O. Yazyev, A. J. Austin, R. Cammi, C. Pomelli, J. W. Ochterski, 
 R. L. Martin, K. Morokuma, V. G. Zakrzewski, G. A. Voth, 
 P. Salvador, J. J. Dannenberg, S. Dapprich, A. D. Daniels, 
 O. Farkas, J. B. Foresman, J. V. Ortiz, J. Cioslowski, 
 and D. J. Fox, Gaussian, Inc., Wallingford CT, 2013.
 
 ******************************************
 Gaussian 09:  ES64L-G09RevD.01 24-Apr-2013
                12-May-2021 
 ******************************************
 %chk=/home/unibas/boittier/RDKit_G2/B.pdb/SCAN_1_2_3_4_S_17_20.0/11_SCAN_1_2_3_4
 _F/B.pdb.chk
 %nproc=8
 Will use up to    8 processors via shared memory.
 %mem=16GB
 -----------------------------
 #p wB97XD/6-31+G Opt=ModRedun
 -----------------------------
 1/14=-1,18=120,19=15,26=3,38=1/1,3;
 2/9=110,12=2,17=6,18=5,40=1/2;
 3/5=1,6=6,7=10,11=2,16=1,25=1,30=1,71=1,74=-58/1,2,3;
 4//1;
 5/5=2,38=5/2;
 6/7=2,8=2,9=2,10=2,28=1/1;
 7//1,2,3,16;
 1/14=-1,18=20,19=15,26=3/3(2);
 2/9=110/2;
 99//99;
 2/9=110/2;
 3/5=1,6=6,7=10,11=2,16=1,25=1,30=1,71=1,74=-58/1,2,3;
 4/5=5,16=3,69=1/1;
 5/5=2,38=5/2;
 7//1,2,3,16;
 1/14=-1,18=20,19=15,26=3/3(-5);
 2/9=110/2;
 6/7=2,8=2,9=2,10=2,19=2,28=1/1;
 99/9=1/99;
 Leave Link    1 at Wed May 12 11:56:05 2021, MaxMem=  2147483648 cpu:         0.2
 (Enter /opt/cluster/programs/g09_d.01/g09/l101.exe)
 -----
 B.pdb
 -----
 Symbolic Z-matrix:
 Charge =  0 Multiplicity = 1
 C                    -0.92601  -1.30961   0.09034 
 C                    -0.46332  -0.05841   0.04849 
 C                     0.88137   0.47734   0.25867 
 C                     2.00846  -0.10425  -0.18578 
 H                    -1.97183  -1.52799  -0.087 
 H                    -0.25724  -2.13286   0.30981 
 F                    -1.40789   0.98859  -0.17037 
 H                     0.92246   1.42747   0.78717 
 H                     1.9924   -1.02264  -0.76616 
 H                     2.98226   0.32828   0.01921 
 
 The following ModRedundant input section has been read:
 D       1       2       3       4 F                                           
 
 NAtoms=     10 NQM=       10 NQMF=       0 NMMI=      0 NMMIF=      0
                NMic=       0 NMicF=      0.
                    Isotopes and Nuclear Properties:
 (Nuclear quadrupole moments (NQMom) in fm**2, nuclear magnetic moments (NMagM)
  in nuclear magnetons)

  Atom         1           2           3           4           5           6           7           8           9          10
 IAtWgt=          12          12          12          12           1           1          19           1           1           1
 AtmWgt=  12.0000000  12.0000000  12.0000000  12.0000000   1.0078250   1.0078250  18.9984033   1.0078250   1.0078250   1.0078250
 NucSpn=           0           0           0           0           1           1           1           1           1           1
 AtZEff=   0.0000000   0.0000000   0.0000000   0.0000000   0.0000000   0.0000000   0.0000000   0.0000000   0.0000000   0.0000000
 NQMom=    0.0000000   0.0000000   0.0000000   0.0000000   0.0000000   0.0000000   0.0000000   0.0000000   0.0000000   0.0000000
 NMagM=    0.0000000   0.0000000   0.0000000   0.0000000   2.7928460   2.7928460   2.6288670   2.7928460   2.7928460   2.7928460
 AtZNuc=   6.0000000   6.0000000   6.0000000   6.0000000   1.0000000   1.0000000   9.0000000   1.0000000   1.0000000   1.0000000
 Leave Link  101 at Wed May 12 11:56:05 2021, MaxMem=  2147483648 cpu:         4.1
 (Enter /opt/cluster/programs/g09_d.01/g09/l103.exe)

 GradGradGradGradGradGradGradGradGradGradGradGradGradGradGradGradGradGrad
 Berny optimization.
 Initialization pass.
                           ----------------------------
                           !    Initial Parameters    !
                           ! (Angstroms and Degrees)  !
 --------------------------                            --------------------------
 ! Name  Definition              Value          Derivative Info.                !
 --------------------------------------------------------------------------------
 ! R1    R(1,2)                  1.3347         estimate D2E/DX2                !
 ! R2    R(1,5)                  1.083          estimate D2E/DX2                !
 ! R3    R(1,6)                  1.0831         estimate D2E/DX2                !
 ! R4    R(2,3)                  1.4627         estimate D2E/DX2                !
 ! R5    R(2,7)                  1.427          estimate D2E/DX2                !
 ! R6    R(3,4)                  1.3439         estimate D2E/DX2                !
 ! R7    R(3,8)                  1.088          estimate D2E/DX2                !
 ! R8    R(4,9)                  1.0865         estimate D2E/DX2                !
 ! R9    R(4,10)                 1.0851         estimate D2E/DX2                !
 ! A1    A(2,1,5)              121.2434         estimate D2E/DX2                !
 ! A2    A(2,1,6)              120.3208         estimate D2E/DX2                !
 ! A3    A(5,1,6)              118.4349         estimate D2E/DX2                !
 ! A4    A(1,2,3)              131.1154         estimate D2E/DX2                !
 ! A5    A(1,2,7)              117.5911         estimate D2E/DX2                !
 ! A6    A(3,2,7)              111.2132         estimate D2E/DX2                !
 ! A7    A(2,3,4)              124.4015         estimate D2E/DX2                !
 ! A8    A(2,3,8)              115.1118         estimate D2E/DX2                !
 ! A9    A(4,3,8)              120.4566         estimate D2E/DX2                !
 ! A10   A(3,4,9)              122.0087         estimate D2E/DX2                !
 ! A11   A(3,4,10)             121.1766         estimate D2E/DX2                !
 ! A12   A(9,4,10)             116.8145         estimate D2E/DX2                !
 ! D1    D(5,1,2,3)            179.5566         estimate D2E/DX2                !
 ! D2    D(5,1,2,7)              3.1416         estimate D2E/DX2                !
 ! D3    D(6,1,2,3)             -0.0992         estimate D2E/DX2                !
 ! D4    D(6,1,2,7)           -176.5143         estimate D2E/DX2                !
 ! D5    D(1,2,3,4)             40.0111         Frozen                          !
 ! D6    D(1,2,3,8)           -141.9867         estimate D2E/DX2                !
 ! D7    D(7,2,3,4)           -143.3968         estimate D2E/DX2                !
 ! D8    D(7,2,3,8)             34.6054         estimate D2E/DX2                !
 ! D9    D(2,3,4,9)              1.5258         estimate D2E/DX2                !
 ! D10   D(2,3,4,10)          -178.6312         estimate D2E/DX2                !
 ! D11   D(8,3,4,9)           -176.3756         estimate D2E/DX2                !
 ! D12   D(8,3,4,10)             3.4674         estimate D2E/DX2                !
 --------------------------------------------------------------------------------
 Trust Radius=3.00D-01 FncErr=1.00D-07 GrdErr=1.00D-06
 Number of steps in this run=     43 maximum allowed number of steps=    100.
 GradGradGradGradGradGradGradGradGradGradGradGradGradGradGradGradGradGrad

 Leave Link  103 at Wed May 12 11:56:05 2021, MaxMem=  2147483648 cpu:         0.1
 (Enter /opt/cluster/programs/g09_d.01/g09/l202.exe)
                          Input orientation:                          
 ---------------------------------------------------------------------
 Center     Atomic      Atomic             Coordinates (Angstroms)
 Number     Number       Type             X           Y           Z
 ---------------------------------------------------------------------
      1          6           0       -0.926007   -1.309607    0.090335
      2          6           0       -0.463319   -0.058407    0.048494
      3          6           0        0.881368    0.477336    0.258667
      4          6           0        2.008456   -0.104250   -0.185776
      5          1           0       -1.971831   -1.527993   -0.086998
      6          1           0       -0.257240   -2.132857    0.309805
      7          9           0       -1.407893    0.988589   -0.170372
      8          1           0        0.922460    1.427468    0.787169
      9          1           0        1.992401   -1.022638   -0.766159
     10          1           0        2.982263    0.328282    0.019211
 ---------------------------------------------------------------------
                    Distance matrix (angstroms):
                    1          2          3          4          5
     1  C    0.000000
     2  C    1.334666   0.000000
     3  C    2.547176   1.462661   0.000000
     4  C    3.184367   2.483275   1.343912   0.000000
     5  H    1.082999   2.110367   3.504508   4.228414   0.000000
     6  H    1.083124   2.100975   2.848184   3.081270   1.860950
     7  F    2.362602   1.426998   2.384569   3.586917   2.580341
     8  H    3.375498   2.161909   1.088004   2.114750   4.227983
     9  H    3.055002   2.761152   2.129456   1.086526   4.053613
    10  H    4.238197   3.467336   2.119744   1.085082   5.291511
                    6          7          8          9         10
     6  H    0.000000
     7  F    3.361249   0.000000
     8  H    3.780937   2.557351   0.000000
     9  H    2.729683   3.995247   3.092025   0.000000
    10  H    4.078729   4.443582   2.457795   1.849762   0.000000
 Stoichiometry    C4H5F
 Framework group  C1[X(C4H5F)]
 Deg. of freedom    24
 Full point group                 C1      NOp   1
 Largest Abelian subgroup         C1      NOp   1
 Largest concise Abelian subgroup C1      NOp   1
                         Standard orientation:                         
 ---------------------------------------------------------------------
 Center     Atomic      Atomic             Coordinates (Angstroms)
 Number     Number       Type             X           Y           Z
 ---------------------------------------------------------------------
      1          6           0        0.926008    1.309607    0.090335
      2          6           0        0.463319    0.058407    0.048494
      3          6           0       -0.881368   -0.477336    0.258667
      4          6           0       -2.008456    0.104251   -0.185776
      5          1           0        1.971832    1.527992   -0.086998
      6          1           0        0.257241    2.132857    0.309805
      7          9           0        1.407893   -0.988590   -0.170372
      8          1           0       -0.922460   -1.427468    0.787169
      9          1           0       -1.992401    1.022639   -0.766159
     10          1           0       -2.982263   -0.328281    0.019211
 ---------------------------------------------------------------------
 Rotational constants (GHZ):      9.2092091      3.9115974      2.8431272
 Leave Link  202 at Wed May 12 11:56:05 2021, MaxMem=  2147483648 cpu:         0.0
 (Enter /opt/cluster/programs/g09_d.01/g09/l301.exe)
 Standard basis: 6-31+G (6D, 7F)
 Ernie: Thresh=  0.10000D-02 Tol=  0.10000D-05 Strict=F.
 There are    75 symmetry adapted cartesian basis functions of A   symmetry.
 There are    75 symmetry adapted basis functions of A   symmetry.
    75 basis functions,   150 primitive gaussians,    75 cartesian basis functions
    19 alpha electrons       19 beta electrons
       nuclear repulsion energy       156.0424028582 Hartrees.
 IExCor= 4639 DFT=T Ex+Corr=wB97XD ExCW=0 ScaHFX=  1.000000
 ScaDFX=  1.000000  1.000000  1.000000  1.000000 ScalE2=  1.000000  1.000000
 IRadAn=      0 IRanWt=     -1 IRanGd=            0 ICorTp=0 IEmpDi=121
  HFx wShort=  0.000000 wLong=  0.200000 cFull=  0.222036 cShort=  0.000000 cLong=  0.777964
  DFx wShort=  0.000000 wLong=  0.200000 cFull=  0.000000 cShort=  0.000000 cLong=  1.000000
 NAtoms=   10 NActive=   10 NUniq=   10 SFac= 1.00D+00 NAtFMM=   60 NAOKFM=F Big=F
 Integral buffers will be    131072 words long.
 Raffenetti 2 integral format.
 Two-electron integral symmetry is turned on.
 R6Disp:  Grimme-D2 Dispersion energy=       -0.0031045801 Hartrees.
 Nuclear repulsion after empirical dispersion term =      156.0392982781 Hartrees.
 Leave Link  301 at Wed May 12 11:56:05 2021, MaxMem=  2147483648 cpu:         0.3
 (Enter /opt/cluster/programs/g09_d.01/g09/l302.exe)
 NPDir=0 NMtPBC=     1 NCelOv=     1 NCel=       1 NClECP=     1 NCelD=      1
         NCelK=      1 NCelE2=     1 NClLst=     1 CellRange=     0.0.
 One-electron integrals computed using PRISM.
 NBasis=    75 RedAO= T EigKep=  5.51D-05  NBF=    75
 NBsUse=    75 1.00D-06 EigRej= -1.00D+00 NBFU=    75
 Precomputing XC quadrature grid using
 IXCGrd= 4 IRadAn=           0 IRanWt=          -1 IRanGd=           0 AccXCQ= 0.00D+00.
 Generated NRdTot=       0 NPtTot=           0 NUsed=           0 NTot=          32
 NSgBfM=    75    75    75    75    75 MxSgAt=    10 MxSgA2=    10.
 Leave Link  302 at Wed May 12 11:56:06 2021, MaxMem=  2147483648 cpu:         0.9
 (Enter /opt/cluster/programs/g09_d.01/g09/l303.exe)
 DipDrv:  MaxL=1.
 Leave Link  303 at Wed May 12 11:56:06 2021, MaxMem=  2147483648 cpu:         0.2
 (Enter /opt/cluster/programs/g09_d.01/g09/l401.exe)
 ExpMin= 4.38D-02 ExpMax= 7.00D+03 ExpMxC= 1.05D+03 IAcc=2 IRadAn=         4 AccDes= 0.00D+00
 Harris functional with IExCor= 4639 and IRadAn=       4 diagonalized for initial guess.
 HarFok:  IExCor= 4639 AccDes= 0.00D+00 IRadAn=         4 IDoV= 1 UseB2=F ITyADJ=14
 ICtDFT=  3500011 ScaDFX=  1.000000  1.000000  1.000000  1.000000
 FoFCou: FMM=F IPFlag=           0 FMFlag=      100000 FMFlg1=           0
         NFxFlg=           0 DoJE=T BraDBF=F KetDBF=T FulRan=T
         wScrn=  0.000000 ICntrl=     500 IOpCl=  0 I1Cent=   200000004 NGrid=           0
         NMat0=    1 NMatS0=      1 NMatT0=    0 NMatD0=    1 NMtDS0=    0 NMtDT0=    0
 Petite list used in FoFCou.
 Harris En= -244.786603057754    
 JPrj=0 DoOrth=F DoCkMO=F.
 Leave Link  401 at Wed May 12 11:56:06 2021, MaxMem=  2147483648 cpu:         1.3
 (Enter /opt/cluster/programs/g09_d.01/g09/l502.exe)
 Closed shell SCF:
 Using DIIS extrapolation, IDIIS=  1040.
 Integral symmetry usage will be decided dynamically.
 Keep R1 ints in memory in canonical form, NReq=9056162.
 IVT=       36600 IEndB=       36600 NGot=  2147483648 MDV=  2139321699
 LenX=  2139321699 LenY=  2139315633
 Requested convergence on RMS density matrix=1.00D-08 within 128 cycles.
 Requested convergence on MAX density matrix=1.00D-06.
 Requested convergence on             energy=1.00D-06.
 No special actions if energy rises.
 FoFCou: FMM=F IPFlag=           0 FMFlag=           0 FMFlg1=           0
         NFxFlg=           0 DoJE=F BraDBF=F KetDBF=F FulRan=T
         wScrn=  0.000000 ICntrl=     600 IOpCl=  0 I1Cent=           0 NGrid=           0
         NMat0=    1 NMatS0=   2850 NMatT0=    0 NMatD0=    1 NMtDS0=    0 NMtDT0=    0
 Symmetry not used in FoFCou.

 Cycle   1  Pass 1  IDiag  1:
 E= -254.929043032060    
 DIIS: error= 4.79D-02 at cycle   1 NSaved=   1.
 NSaved= 1 IEnMin= 1 EnMin= -254.929043032060     IErMin= 1 ErrMin= 4.79D-02
 ErrMax= 4.79D-02  0.00D+00 EMaxC= 1.00D-01 BMatC= 2.64D-01 BMatP= 2.64D-01
 IDIUse=3 WtCom= 5.21D-01 WtEn= 4.79D-01
 Coeff-Com:  0.100D+01
 Coeff-En:   0.100D+01
 Coeff:      0.100D+01
 Gap=     0.433 Goal=   None    Shift=    0.000
 GapD=    0.433 DampG=2.000 DampE=0.500 DampFc=1.0000 IDamp=-1.
 RMSDP=2.46D-02 MaxDP=7.33D-01              OVMax= 1.77D-01

 Cycle   2  Pass 1  IDiag  1:
 E= -254.879734739884     Delta-E=        0.049308292176 Rises=F Damp=F
 DIIS: error= 6.09D-02 at cycle   2 NSaved=   2.
 NSaved= 2 IEnMin= 1 EnMin= -254.929043032060     IErMin= 1 ErrMin= 4.79D-02
 ErrMax= 6.09D-02  0.00D+00 EMaxC= 1.00D-01 BMatC= 3.15D-01 BMatP= 2.64D-01
 IDIUse=2 WtCom= 0.00D+00 WtEn= 1.00D+00
 Coeff-En:   0.561D+00 0.439D+00
 Coeff:      0.561D+00 0.439D+00
 Gap=     0.404 Goal=   None    Shift=    0.000
 RMSDP=7.85D-03 MaxDP=1.28D-01 DE= 4.93D-02 OVMax= 1.01D-01

 Cycle   3  Pass 1  IDiag  1:
 E= -255.097205630942     Delta-E=       -0.217470891057 Rises=F Damp=F
 DIIS: error= 3.54D-03 at cycle   3 NSaved=   3.
 NSaved= 3 IEnMin= 3 EnMin= -255.097205630942     IErMin= 3 ErrMin= 3.54D-03
 ErrMax= 3.54D-03  0.00D+00 EMaxC= 1.00D-01 BMatC= 1.12D-03 BMatP= 2.64D-01
 IDIUse=3 WtCom= 9.65D-01 WtEn= 3.54D-02
 Coeff-Com: -0.451D-02-0.601D-01 0.106D+01
 Coeff-En:   0.000D+00 0.000D+00 0.100D+01
 Coeff:     -0.435D-02-0.580D-01 0.106D+01
 Gap=     0.352 Goal=   None    Shift=    0.000
 RMSDP=2.76D-03 MaxDP=7.05D-02 DE=-2.17D-01 OVMax= 9.58D-03

 Cycle   4  Pass 1  IDiag  1:
 E= -255.098086218167     Delta-E=       -0.000880587225 Rises=F Damp=F
 DIIS: error= 1.26D-03 at cycle   4 NSaved=   4.
 NSaved= 4 IEnMin= 4 EnMin= -255.098086218167     IErMin= 4 ErrMin= 1.26D-03
 ErrMax= 1.26D-03  0.00D+00 EMaxC= 1.00D-01 BMatC= 1.52D-04 BMatP= 1.12D-03
 IDIUse=3 WtCom= 9.87D-01 WtEn= 1.26D-02
 Coeff-Com: -0.818D-02-0.337D-01 0.463D+00 0.579D+00
 Coeff-En:   0.000D+00 0.000D+00 0.000D+00 0.100D+01
 Coeff:     -0.807D-02-0.333D-01 0.458D+00 0.584D+00
 Gap=     0.353 Goal=   None    Shift=    0.000
 RMSDP=5.44D-04 MaxDP=1.29D-02 DE=-8.81D-04 OVMax= 3.70D-03

 Cycle   5  Pass 1  IDiag  1:
 E= -255.098245775783     Delta-E=       -0.000159557616 Rises=F Damp=F
 DIIS: error= 3.77D-04 at cycle   5 NSaved=   5.
 NSaved= 5 IEnMin= 5 EnMin= -255.098245775783     IErMin= 5 ErrMin= 3.77D-04
 ErrMax= 3.77D-04  0.00D+00 EMaxC= 1.00D-01 BMatC= 8.96D-06 BMatP= 1.52D-04
 IDIUse=3 WtCom= 9.96D-01 WtEn= 3.77D-03
 Coeff-Com: -0.191D-02-0.368D-02-0.148D-01 0.102D+00 0.919D+00
 Coeff-En:   0.000D+00 0.000D+00 0.000D+00 0.000D+00 0.100D+01
 Coeff:     -0.191D-02-0.367D-02-0.147D-01 0.101D+00 0.919D+00
 Gap=     0.353 Goal=   None    Shift=    0.000
 RMSDP=3.24D-04 MaxDP=7.48D-03 DE=-1.60D-04 OVMax= 2.15D-03

 Cycle   6  Pass 1  IDiag  1:
 E= -255.098259011627     Delta-E=       -0.000013235844 Rises=F Damp=F
 DIIS: error= 1.90D-04 at cycle   6 NSaved=   6.
 NSaved= 6 IEnMin= 6 EnMin= -255.098259011627     IErMin= 6 ErrMin= 1.90D-04
 ErrMax= 1.90D-04  0.00D+00 EMaxC= 1.00D-01 BMatC= 2.96D-06 BMatP= 8.96D-06
 IDIUse=3 WtCom= 9.98D-01 WtEn= 1.90D-03
 Coeff-Com:  0.548D-03 0.380D-02-0.881D-01-0.634D-01 0.457D+00 0.691D+00
 Coeff-En:   0.000D+00 0.000D+00 0.000D+00 0.000D+00 0.000D+00 0.100D+01
 Coeff:      0.547D-03 0.380D-02-0.880D-01-0.633D-01 0.456D+00 0.691D+00
 Gap=     0.353 Goal=   None    Shift=    0.000
 RMSDP=1.29D-04 MaxDP=3.05D-03 DE=-1.32D-05 OVMax= 6.94D-04

 Cycle   7  Pass 1  IDiag  1:
 E= -255.098262838517     Delta-E=       -0.000003826889 Rises=F Damp=F
 DIIS: error= 1.78D-05 at cycle   7 NSaved=   7.
 NSaved= 7 IEnMin= 7 EnMin= -255.098262838517     IErMin= 7 ErrMin= 1.78D-05
 ErrMax= 1.78D-05  0.00D+00 EMaxC= 1.00D-01 BMatC= 2.79D-08 BMatP= 2.96D-06
 IDIUse=1 WtCom= 1.00D+00 WtEn= 0.00D+00
 Coeff-Com:  0.879D-04-0.207D-03 0.594D-02-0.254D-02-0.566D-01-0.581D-01
 Coeff-Com:  0.111D+01
 Coeff:      0.879D-04-0.207D-03 0.594D-02-0.254D-02-0.566D-01-0.581D-01
 Coeff:      0.111D+01
 Gap=     0.353 Goal=   None    Shift=    0.000
 RMSDP=2.02D-05 MaxDP=3.58D-04 DE=-3.83D-06 OVMax= 2.13D-04

 Cycle   8  Pass 1  IDiag  1:
 E= -255.098262927049     Delta-E=       -0.000000088533 Rises=F Damp=F
 DIIS: error= 4.23D-06 at cycle   8 NSaved=   8.
 NSaved= 8 IEnMin= 8 EnMin= -255.098262927049     IErMin= 8 ErrMin= 4.23D-06
 ErrMax= 4.23D-06  0.00D+00 EMaxC= 1.00D-01 BMatC= 3.89D-09 BMatP= 2.79D-08
 IDIUse=1 WtCom= 1.00D+00 WtEn= 0.00D+00
 Coeff-Com: -0.955D-05-0.265D-03 0.625D-02 0.261D-02-0.372D-01-0.554D-01
 Coeff-Com:  0.270D+00 0.814D+00
 Coeff:     -0.955D-05-0.265D-03 0.625D-02 0.261D-02-0.372D-01-0.554D-01
 Coeff:      0.270D+00 0.814D+00
 Gap=     0.353 Goal=   None    Shift=    0.000
 RMSDP=6.08D-06 MaxDP=1.38D-04 DE=-8.85D-08 OVMax= 4.87D-05

 Cycle   9  Pass 1  IDiag  1:
 E= -255.098262934061     Delta-E=       -0.000000007012 Rises=F Damp=F
 DIIS: error= 1.69D-06 at cycle   9 NSaved=   9.
 NSaved= 9 IEnMin= 9 EnMin= -255.098262934061     IErMin= 9 ErrMin= 1.69D-06
 ErrMax= 1.69D-06  0.00D+00 EMaxC= 1.00D-01 BMatC= 2.21D-10 BMatP= 3.89D-09
 IDIUse=1 WtCom= 1.00D+00 WtEn= 0.00D+00
 Coeff-Com: -0.183D-05 0.326D-04-0.508D-03 0.268D-04 0.496D-02 0.195D-02
 Coeff-Com: -0.979D-01 0.393D-01 0.105D+01
 Coeff:     -0.183D-05 0.326D-04-0.508D-03 0.268D-04 0.496D-02 0.195D-02
 Coeff:     -0.979D-01 0.393D-01 0.105D+01
 Gap=     0.353 Goal=   None    Shift=    0.000
 RMSDP=2.38D-06 MaxDP=5.31D-05 DE=-7.01D-09 OVMax= 2.54D-05

 Cycle  10  Pass 1  IDiag  1:
 E= -255.098262934802     Delta-E=       -0.000000000741 Rises=F Damp=F
 DIIS: error= 4.43D-07 at cycle  10 NSaved=  10.
 NSaved=10 IEnMin=10 EnMin= -255.098262934802     IErMin=10 ErrMin= 4.43D-07
 ErrMax= 4.43D-07  0.00D+00 EMaxC= 1.00D-01 BMatC= 1.73D-11 BMatP= 2.21D-10
 IDIUse=1 WtCom= 1.00D+00 WtEn= 0.00D+00
 Coeff-Com:  0.465D-06 0.151D-04-0.320D-03-0.607D-04 0.205D-02 0.227D-02
 Coeff-Com: -0.283D-01-0.246D-01 0.161D+00 0.888D+00
 Coeff:      0.465D-06 0.151D-04-0.320D-03-0.607D-04 0.205D-02 0.227D-02
 Coeff:     -0.283D-01-0.246D-01 0.161D+00 0.888D+00
 Gap=     0.353 Goal=   None    Shift=    0.000
 RMSDP=2.79D-07 MaxDP=3.20D-06 DE=-7.41D-10 OVMax= 3.27D-06

 Cycle  11  Pass 1  IDiag  1:
 E= -255.098262934834     Delta-E=       -0.000000000032 Rises=F Damp=F
 DIIS: error= 3.21D-07 at cycle  11 NSaved=  11.
 NSaved=11 IEnMin=11 EnMin= -255.098262934834     IErMin=11 ErrMin= 3.21D-07
 ErrMax= 3.21D-07  0.00D+00 EMaxC= 1.00D-01 BMatC= 4.86D-12 BMatP= 1.73D-11
 IDIUse=1 WtCom= 1.00D+00 WtEn= 0.00D+00
 Coeff-Com:  0.458D-06-0.207D-05-0.154D-04-0.848D-05-0.181D-03 0.605D-03
 Coeff-Com:  0.104D-01-0.146D-01-0.150D+00 0.387D+00 0.767D+00
 Coeff:      0.458D-06-0.207D-05-0.154D-04-0.848D-05-0.181D-03 0.605D-03
 Coeff:      0.104D-01-0.146D-01-0.150D+00 0.387D+00 0.767D+00
 Gap=     0.353 Goal=   None    Shift=    0.000
 RMSDP=1.14D-07 MaxDP=1.17D-06 DE=-3.23D-11 OVMax= 2.10D-06

 Cycle  12  Pass 1  IDiag  1:
 E= -255.098262934842     Delta-E=       -0.000000000008 Rises=F Damp=F
 DIIS: error= 3.16D-08 at cycle  12 NSaved=  12.
 NSaved=12 IEnMin=12 EnMin= -255.098262934842     IErMin=12 ErrMin= 3.16D-08
 ErrMax= 3.16D-08  0.00D+00 EMaxC= 1.00D-01 BMatC= 8.65D-14 BMatP= 4.86D-12
 IDIUse=1 WtCom= 1.00D+00 WtEn= 0.00D+00
 Coeff-Com: -0.130D-07-0.256D-06 0.128D-04 0.394D-05-0.767D-04-0.110D-03
 Coeff-Com: -0.180D-03 0.257D-02 0.114D-01-0.105D+00-0.726D-01 0.116D+01
 Coeff:     -0.130D-07-0.256D-06 0.128D-04 0.394D-05-0.767D-04-0.110D-03
 Coeff:     -0.180D-03 0.257D-02 0.114D-01-0.105D+00-0.726D-01 0.116D+01
 Gap=     0.353 Goal=   None    Shift=    0.000
 RMSDP=5.56D-08 MaxDP=1.20D-06 DE=-7.73D-12 OVMax= 4.52D-07

 Cycle  13  Pass 1  IDiag  1:
 E= -255.098262934843     Delta-E=       -0.000000000002 Rises=F Damp=F
 DIIS: error= 4.43D-09 at cycle  13 NSaved=  13.
 NSaved=13 IEnMin=13 EnMin= -255.098262934843     IErMin=13 ErrMin= 4.43D-09
 ErrMax= 4.43D-09  0.00D+00 EMaxC= 1.00D-01 BMatC= 2.11D-15 BMatP= 8.65D-14
 IDIUse=1 WtCom= 1.00D+00 WtEn= 0.00D+00
 Coeff-Com: -0.263D-07 0.329D-07 0.147D-05 0.120D-05-0.265D-05-0.174D-04
 Coeff-Com: -0.237D-03 0.376D-03 0.396D-02-0.968D-02-0.167D-01-0.482D-01
 Coeff-Com:  0.107D+01
 Coeff:     -0.263D-07 0.329D-07 0.147D-05 0.120D-05-0.265D-05-0.174D-04
 Coeff:     -0.237D-03 0.376D-03 0.396D-02-0.968D-02-0.167D-01-0.482D-01
 Coeff:      0.107D+01
 Gap=     0.353 Goal=   None    Shift=    0.000
 RMSDP=7.26D-09 MaxDP=1.47D-07 DE=-1.59D-12 OVMax= 6.44D-08

 SCF Done:  E(RwB97XD) =  -255.098262935     A.U. after   13 cycles
            NFock= 13  Conv=0.73D-08     -V/T= 2.0059
 KE= 2.536114282961D+02 PE=-9.096814553016D+02 EE= 2.449324657925D+02
 Leave Link  502 at Wed May 12 11:56:08 2021, MaxMem=  2147483648 cpu:        12.9
 (Enter /opt/cluster/programs/g09_d.01/g09/l601.exe)
 Copying SCF densities to generalized density rwf, IOpCl= 0 IROHF=0.

 **********************************************************************

            Population analysis using the SCF density.

 **********************************************************************

 Orbital symmetries:
       Occupied  (A) (A) (A) (A) (A) (A) (A) (A) (A) (A) (A) (A)
                 (A) (A) (A) (A) (A) (A) (A)
       Virtual   (A) (A) (A) (A) (A) (A) (A) (A) (A) (A) (A) (A)
                 (A) (A) (A) (A) (A) (A) (A) (A) (A) (A) (A) (A)
                 (A) (A) (A) (A) (A) (A) (A) (A) (A) (A) (A) (A)
                 (A) (A) (A) (A) (A) (A) (A) (A) (A) (A) (A) (A)
                 (A) (A) (A) (A) (A) (A) (A) (A)
 The electronic state is 1-A.
 Alpha  occ. eigenvalues --  -24.82840 -10.40421 -10.33289 -10.32200 -10.31247
 Alpha  occ. eigenvalues --   -1.30426  -0.93098  -0.85884  -0.74554  -0.65097
 Alpha  occ. eigenvalues --   -0.61260  -0.57760  -0.55367  -0.52735  -0.50595
 Alpha  occ. eigenvalues --   -0.48326  -0.45667  -0.40325  -0.33578
 Alpha virt. eigenvalues --    0.01717   0.07312   0.08178   0.08764   0.10147
 Alpha virt. eigenvalues --    0.11245   0.12149   0.13188   0.14119   0.15215
 Alpha virt. eigenvalues --    0.16527   0.17598   0.18284   0.18950   0.20406
 Alpha virt. eigenvalues --    0.20972   0.22499   0.23363   0.23722   0.27921
 Alpha virt. eigenvalues --    0.29187   0.31473   0.32105   0.38412   0.40969
 Alpha virt. eigenvalues --    0.43053   0.44129   0.46406   0.47977   0.50258
 Alpha virt. eigenvalues --    0.52366   0.69347   0.71995   0.74581   0.77390
 Alpha virt. eigenvalues --    0.80729   0.83275   0.85172   0.88379   0.92818
 Alpha virt. eigenvalues --    0.99555   1.01933   1.05108   1.07007   1.13107
 Alpha virt. eigenvalues --    1.15451   1.15622   1.23044   1.30121   1.33020
 Alpha virt. eigenvalues --    1.38724   1.41174   1.67043   1.82059   1.85693
 Alpha virt. eigenvalues --    2.35353
          Condensed to atoms (all electrons):
               1          2          3          4          5          6
     1  C    6.638457  -0.359197  -0.475911   0.028020   0.397313   0.315885
     2  C   -0.359197   5.669734   0.205959   0.143293  -0.055925   0.012568
     3  C   -0.475911   0.205959   5.953404   0.239633   0.012852   0.005503
     4  C    0.028020   0.143293   0.239633   5.250844  -0.002500   0.005473
     5  H    0.397313  -0.055925   0.012852  -0.002500   0.451321  -0.019926
     6  H    0.315885   0.012568   0.005503   0.005473  -0.019926   0.467633
     7  F   -0.149262   0.298733  -0.150715  -0.013539  -0.002590   0.003916
     8  H    0.012786  -0.014551   0.306273   0.010406  -0.000086   0.000088
     9  H    0.007197   0.004439  -0.053821   0.385892  -0.000013   0.000385
    10  H   -0.000058   0.008876  -0.032222   0.375431   0.000001  -0.000010
               7          8          9         10
     1  C   -0.149262   0.012786   0.007197  -0.000058
     2  C    0.298733  -0.014551   0.004439   0.008876
     3  C   -0.150715   0.306273  -0.053821  -0.032222
     4  C   -0.013539   0.010406   0.385892   0.375431
     5  H   -0.002590  -0.000086  -0.000013   0.000001
     6  H    0.003916   0.000088   0.000385  -0.000010
     7  F    9.312704  -0.002578   0.000276  -0.000267
     8  H   -0.002578   0.458113   0.002537  -0.003135
     9  H    0.000276   0.002537   0.475300  -0.023655
    10  H   -0.000267  -0.003135  -0.023655   0.474946
 Mulliken charges:
               1
     1  C   -0.415230
     2  C    0.086071
     3  C   -0.010956
     4  C   -0.422952
     5  H    0.219554
     6  H    0.208487
     7  F   -0.296678
     8  H    0.230149
     9  H    0.201463
    10  H    0.200093
 Sum of Mulliken charges =   0.00000
 Mulliken charges with hydrogens summed into heavy atoms:
               1
     1  C    0.012810
     2  C    0.086071
     3  C    0.219193
     4  C   -0.021396
     7  F   -0.296678
 Electronic spatial extent (au):  <R**2>=            436.0602
 Charge=              0.0000 electrons
 Dipole moment (field-independent basis, Debye):
    X=             -1.8944    Y=              1.5536    Z=              0.3615  Tot=              2.4765
 Quadrupole moment (field-independent basis, Debye-Ang):
   XX=            -28.3698   YY=            -28.4620   ZZ=            -31.7704
   XY=              3.0483   XZ=              0.2437   YZ=             -1.6491
 Traceless Quadrupole moment (field-independent basis, Debye-Ang):
   XX=              1.1643   YY=              1.0721   ZZ=             -2.2363
   XY=              3.0483   XZ=              0.2437   YZ=             -1.6491
 Octapole moment (field-independent basis, Debye-Ang**2):
  XXX=              0.9955  YYY=             -2.3273  ZZZ=             -1.6604  XYY=              1.1629
  XXY=              2.4653  XXZ=             -1.3446  XZZ=              3.5838  YZZ=             -3.8222
  YYZ=              1.5633  XYZ=              1.5931
 Hexadecapole moment (field-independent basis, Debye-Ang**3):
 XXXX=           -319.5555 YYYY=           -154.9308 ZZZZ=            -45.9090 XXXY=              4.8922
 XXXZ=             -1.4637 YYYX=             -5.7797 YYYZ=             -0.7510 ZZZX=             -1.9176
 ZZZY=             -1.0987 XXYY=            -84.1429 XXZZ=            -70.5890 YYZZ=            -35.7444
 XXYZ=             -5.3997 YYXZ=             -1.1600 ZZXY=             -5.1555
 N-N= 1.560392982781D+02 E-N=-9.096814554766D+02  KE= 2.536114282961D+02
 No NMR shielding tensors so no spin-rotation constants.
 Leave Link  601 at Wed May 12 11:56:08 2021, MaxMem=  2147483648 cpu:         0.6
 (Enter /opt/cluster/programs/g09_d.01/g09/l701.exe)
 Compute integral first derivatives.
 ... and contract with generalized density number  0.
 R6Disp: Adding Grimme-D2 dispersion energy 1st derivatives to the gradient.
 Leave Link  701 at Wed May 12 11:56:08 2021, MaxMem=  2147483648 cpu:         0.6
 (Enter /opt/cluster/programs/g09_d.01/g09/l702.exe)
 L702 exits ... SP integral derivatives will be done elsewhere.
 Leave Link  702 at Wed May 12 11:56:08 2021, MaxMem=  2147483648 cpu:         0.2
 (Enter /opt/cluster/programs/g09_d.01/g09/l703.exe)
 Compute integral first derivatives, UseDBF=F ICtDFT=           0.
 Integral derivatives from FoFJK, PRISM(SPDF).
 Calling FoFJK, ICntrl=      2127 FMM=F ISym2X=0 I1Cent= 0 IOpClX= 0 NMat=1 NMatS=1 NMatT=0.
 FoFJK:  IHMeth= 1 ICntrl=    2127 DoSepK=T KAlg= 0 I1Cent=   0 FoldK=F
 IRaf=         1 NMat=   1 IRICut=       1 DoRegI=T DoRafI=F ISym2E= 0.
 FoFCou: FMM=F IPFlag=           0 FMFlag=      100000 FMFlg1=         800
         NFxFlg=           0 DoJE=F BraDBF=F KetDBF=F FulRan=T
         wScrn=  0.000000 ICntrl=    2527 IOpCl=  0 I1Cent=           0 NGrid=           0
         NMat0=    1 NMatS0=      1 NMatT0=    0 NMatD0=    1 NMtDS0=    0 NMtDT0=    0
 Symmetry not used in FoFCou.
 Leave Link  703 at Wed May 12 11:56:08 2021, MaxMem=  2147483648 cpu:         3.3
 (Enter /opt/cluster/programs/g09_d.01/g09/l716.exe)
 Dipole        =-7.45326289D-01 6.11219950D-01 1.42243609D-01
 ***** Axes restored to original set *****
 -------------------------------------------------------------------
 Center     Atomic                   Forces (Hartrees/Bohr)
 Number     Number              X              Y              Z
 -------------------------------------------------------------------
      1        6           0.002387851    0.004372988   -0.001986910
      2        6          -0.007157550   -0.001471150    0.002316980
      3        6           0.005426985    0.000381488   -0.004240322
      4        6          -0.004703773    0.000734916    0.002960665
      5        1           0.000417537    0.000627916    0.000141267
      6        1           0.000361420    0.000670082   -0.000031094
      7        9           0.004549263   -0.004809320    0.000778145
      8        1           0.000065686   -0.000822922   -0.000097741
      9        1          -0.000547404    0.000091110    0.000195373
     10        1          -0.000800014    0.000224891   -0.000036363
 -------------------------------------------------------------------
 Cartesian Forces:  Max     0.007157550 RMS     0.002670045
 Leave Link  716 at Wed May 12 11:56:08 2021, MaxMem=  2147483648 cpu:         0.2
 (Enter /opt/cluster/programs/g09_d.01/g09/l103.exe)

 GradGradGradGradGradGradGradGradGradGradGradGradGradGradGradGradGradGrad
 Berny optimization.
 FormGI is forming the generalized inverse of G from B-inverse, IUseBI=4.
 Internal  Forces:  Max     0.006658715 RMS     0.002120134
 Search for a local minimum.
 Step number   1 out of a maximum of   43
 All quantities printed in internal units (Hartrees-Bohrs-Radians)
 RMS Force = .21090D-02 SwitMx=.10000D-02 MixMth= 1
 Mixed Optimization -- RFO/linear search
 Second derivative matrix not updated -- first step.
 ITU=  0
     Eigenvalues ---    0.01700   0.02123   0.02831   0.02831   0.02953
     Eigenvalues ---    0.02953   0.15994   0.16000   0.16000   0.16000
     Eigenvalues ---    0.16000   0.22002   0.24978   0.25000   0.35044
     Eigenvalues ---    0.35217   0.35387   0.35620   0.35634   0.36633
     Eigenvalues ---    0.41424   0.56337   0.584171000.000001000.00000
     Eigenvalues --- 1000.000001000.000001000.000001000.000001000.00000
     Eigenvalues --- 1000.000001000.000001000.00000
 RFO step:  Lambda=-3.20335155D-04 EMin= 1.70031802D-02
 Linear search not attempted -- first point.
 Iteration  1 RMS(Cart)=  0.01371139 RMS(Int)=  0.00004235
 Iteration  2 RMS(Cart)=  0.00005158 RMS(Int)=  0.00000211
 Iteration  3 RMS(Cart)=  0.00000000 RMS(Int)=  0.00000211
 Iteration  1 RMS(Cart)=  0.00000029 RMS(Int)=  0.00000023
 ITry= 1 IFail=0 DXMaxC= 4.41D-02 DCOld= 1.00D+10 DXMaxT= 3.00D-01 DXLimC= 3.00D+00 Rises=F
 Variable       Old X    -DE/DX   Delta X   Delta X   Delta X     New X
                                 (Linear)    (Quad)   (Total)
    R1        2.52215  -0.00648   0.00000  -0.01108  -0.01108   2.51107
    R2        2.04657  -0.00055   0.00000  -0.00154  -0.00154   2.04503
    R3        2.04681  -0.00030   0.00000  -0.00083  -0.00083   2.04597
    R4        2.76403  -0.00046   0.00000  -0.00125  -0.00125   2.76277
    R5        2.69664  -0.00666   0.00000  -0.01606  -0.01606   2.68057
    R6        2.53963  -0.00656   0.00000  -0.01165  -0.01165   2.52798
    R7        2.05603  -0.00076   0.00000  -0.00217  -0.00217   2.05386
    R8        2.05324  -0.00018   0.00000  -0.00050  -0.00050   2.05274
    R9        2.05051  -0.00063   0.00000  -0.00179  -0.00179   2.04872
    A1        2.11610  -0.00024   0.00000  -0.00150  -0.00150   2.11460
    A2        2.09999  -0.00059   0.00000  -0.00371  -0.00371   2.09629
    A3        2.06708   0.00083   0.00000   0.00520   0.00520   2.07228
    A4        2.28840  -0.00110   0.00000  -0.00435  -0.00436   2.28404
    A5        2.05235   0.00079   0.00000   0.00311   0.00311   2.05546
    A6        1.94104   0.00035   0.00000   0.00155   0.00154   1.94258
    A7        2.17122  -0.00220   0.00000  -0.01000  -0.01000   2.16121
    A8        2.00908   0.00117   0.00000   0.00551   0.00551   2.01459
    A9        2.10236   0.00106   0.00000   0.00463   0.00463   2.10699
   A10        2.12945  -0.00042   0.00000  -0.00260  -0.00260   2.12685
   A11        2.11493  -0.00031   0.00000  -0.00191  -0.00192   2.11302
   A12        2.03880   0.00072   0.00000   0.00451   0.00451   2.04330
    D1        3.13385   0.00040   0.00000   0.00023   0.00023   3.13408
    D2        0.05483  -0.00059   0.00000  -0.00669  -0.00669   0.04814
    D3       -0.00173   0.00046   0.00000   0.00209   0.00209   0.00036
    D4       -3.08076  -0.00054   0.00000  -0.00483  -0.00483  -3.08559
    D5        0.69833  -0.00171   0.00000   0.00000   0.00000   0.69833
    D6       -2.47814  -0.00080   0.00000   0.00489   0.00490  -2.47324
    D7       -2.50275  -0.00075   0.00000   0.00664   0.00663  -2.49611
    D8        0.60398   0.00016   0.00000   0.01153   0.01153   0.61551
    D9        0.02663   0.00041   0.00000   0.00019   0.00019   0.02682
   D10       -3.11770   0.00031   0.00000  -0.00313  -0.00313  -3.12083
   D11       -3.07834  -0.00054   0.00000  -0.00495  -0.00495  -3.08328
   D12        0.06052  -0.00064   0.00000  -0.00827  -0.00827   0.05225
         Item               Value     Threshold  Converged?
 Maximum Force            0.006659     0.000450     NO 
 RMS     Force            0.002109     0.000300     NO 
 Maximum Displacement     0.044108     0.001800     NO 
 RMS     Displacement     0.013707     0.001200     NO 
 Predicted change in Energy=-1.603540D-04
 Lowest energy point so far.  Saving SCF results.
 GradGradGradGradGradGradGradGradGradGradGradGradGradGradGradGradGradGrad

 Leave Link  103 at Wed May 12 11:56:08 2021, MaxMem=  2147483648 cpu:         0.0
 (Enter /opt/cluster/programs/g09_d.01/g09/l202.exe)
                          Input orientation:                          
 ---------------------------------------------------------------------
 Center     Atomic      Atomic             Coordinates (Angstroms)
 Number     Number       Type             X           Y           Z
 ---------------------------------------------------------------------
      1          6           0       -0.916697   -1.304897    0.088956
      2          6           0       -0.462602   -0.056746    0.048582
      3          6           0        0.880483    0.479903    0.262051
      4          6           0        1.996640   -0.107122   -0.184233
      5          1           0       -1.960544   -1.527026   -0.090389
      6          1           0       -0.241519   -2.121553    0.311240
      7          9           0       -1.402261    0.981373   -0.178325
      8          1           0        0.925717    1.425989    0.795088
      9          1           0        1.969060   -1.024717   -0.764942
     10          1           0        2.972381    0.320718    0.016349
 ---------------------------------------------------------------------
                    Distance matrix (angstroms):
                    1          2          3          4          5
     1  C    0.000000
     2  C    1.328802   0.000000
     3  C    2.538765   1.461997   0.000000
     4  C    3.161776   2.470751   1.337750   0.000000
     5  H    1.082184   2.103537   3.496199   4.205263   0.000000
     6  H    1.082683   2.093154   2.833528   3.051685   1.862743
     7  F    2.352497   1.418498   2.378302   3.568947   2.571280
     8  H    3.369103   2.164071   1.086855   2.111012   4.223135
     9  H    3.022455   2.740761   2.122168   1.086262   4.018597
    10  H    4.215782   3.455810   2.112285   1.084136   5.268709
                    6          7          8          9         10
     6  H    0.000000
     7  F    3.348902   0.000000
     8  H    3.765847   2.562167   0.000000
     9  H    2.692188   3.966651   3.086781   0.000000
    10  H    4.047320   4.428527   2.452935   1.851287   0.000000
 Stoichiometry    C4H5F
 Framework group  C1[X(C4H5F)]
 Deg. of freedom    24
 Full point group                 C1      NOp   1
 RotChk:  IX=0 Diff= 4.13D-03
 Largest Abelian subgroup         C1      NOp   1
 Largest concise Abelian subgroup C1      NOp   1
                         Standard orientation:                         
 ---------------------------------------------------------------------
 Center     Atomic      Atomic             Coordinates (Angstroms)
 Number     Number       Type             X           Y           Z
 ---------------------------------------------------------------------
      1          6           0        0.916072    1.305074    0.091976
      2          6           0        0.463246    0.056480    0.051008
      3          6           0       -0.879915   -0.481307    0.261102
      4          6           0       -1.995399    0.104454   -0.188514
      5          1           0        1.960196    1.528081   -0.084646
      6          1           0        0.239536    2.121215    0.312005
      7          9           0        1.404481   -0.980881   -0.172812
      8          1           0       -0.925720   -1.427162    0.794499
      9          1           0       -1.967092    1.021778   -0.769617
     10          1           0       -2.971284   -0.324190    0.009636
 ---------------------------------------------------------------------
 Rotational constants (GHZ):      9.2716283      3.9486440      2.8708239
 Leave Link  202 at Wed May 12 11:56:08 2021, MaxMem=  2147483648 cpu:         0.0
 (Enter /opt/cluster/programs/g09_d.01/g09/l301.exe)
 Standard basis: 6-31+G (6D, 7F)
 Ernie: Thresh=  0.10000D-02 Tol=  0.10000D-05 Strict=F.
 There are    75 symmetry adapted cartesian basis functions of A   symmetry.
 There are    75 symmetry adapted basis functions of A   symmetry.
    75 basis functions,   150 primitive gaussians,    75 cartesian basis functions
    19 alpha electrons       19 beta electrons
       nuclear repulsion energy       156.6357927257 Hartrees.
 IExCor= 4639 DFT=T Ex+Corr=wB97XD ExCW=0 ScaHFX=  1.000000
 ScaDFX=  1.000000  1.000000  1.000000  1.000000 ScalE2=  1.000000  1.000000
 IRadAn=      0 IRanWt=     -1 IRanGd=            0 ICorTp=0 IEmpDi=121
  HFx wShort=  0.000000 wLong=  0.200000 cFull=  0.222036 cShort=  0.000000 cLong=  0.777964
  DFx wShort=  0.000000 wLong=  0.200000 cFull=  0.000000 cShort=  0.000000 cLong=  1.000000
 NAtoms=   10 NActive=   10 NUniq=   10 SFac= 1.00D+00 NAtFMM=   60 NAOKFM=F Big=F
 Integral buffers will be    131072 words long.
 Raffenetti 2 integral format.
 Two-electron integral symmetry is turned on.
 R6Disp:  Grimme-D2 Dispersion energy=       -0.0031189413 Hartrees.
 Nuclear repulsion after empirical dispersion term =      156.6326737844 Hartrees.
 Leave Link  301 at Wed May 12 11:56:08 2021, MaxMem=  2147483648 cpu:         0.3
 (Enter /opt/cluster/programs/g09_d.01/g09/l302.exe)
 NPDir=0 NMtPBC=     1 NCelOv=     1 NCel=       1 NClECP=     1 NCelD=      1
         NCelK=      1 NCelE2=     1 NClLst=     1 CellRange=     0.0.
 One-electron integrals computed using PRISM.
 NBasis=    75 RedAO= T EigKep=  5.42D-05  NBF=    75
 NBsUse=    75 1.00D-06 EigRej= -1.00D+00 NBFU=    75
 Precomputing XC quadrature grid using
 IXCGrd= 4 IRadAn=           0 IRanWt=          -1 IRanGd=           0 AccXCQ= 0.00D+00.
 Generated NRdTot=       0 NPtTot=           0 NUsed=           0 NTot=          32
 NSgBfM=    75    75    75    75    75 MxSgAt=    10 MxSgA2=    10.
 Leave Link  302 at Wed May 12 11:56:08 2021, MaxMem=  2147483648 cpu:         0.8
 (Enter /opt/cluster/programs/g09_d.01/g09/l303.exe)
 DipDrv:  MaxL=1.
 Leave Link  303 at Wed May 12 11:56:08 2021, MaxMem=  2147483648 cpu:         0.2
 (Enter /opt/cluster/programs/g09_d.01/g09/l401.exe)
 Initial guess from the checkpoint file:  "/home/unibas/boittier/RDKit_G2/B.pdb/SCAN_1_2_3_4_S_17_20.0/11_SCAN_1_2_3_4_F/B.pdb.chk"
 B after Tr=     0.000000    0.000000    0.000000
         Rot=    0.999999   -0.000734    0.000536   -0.000716 Ang=  -0.13 deg.
 Guess basis will be translated and rotated to current coordinates.
 JPrj=2 DoOrth=T DoCkMO=T.
 Generating alternative initial guess.
 ExpMin= 4.38D-02 ExpMax= 7.00D+03 ExpMxC= 1.05D+03 IAcc=2 IRadAn=         4 AccDes= 0.00D+00
 Harris functional with IExCor= 4639 and IRadAn=       4 diagonalized for initial guess.
 HarFok:  IExCor= 4639 AccDes= 0.00D+00 IRadAn=         4 IDoV= 1 UseB2=F ITyADJ=14
 ICtDFT=  3500011 ScaDFX=  1.000000  1.000000  1.000000  1.000000
 FoFCou: FMM=F IPFlag=           0 FMFlag=      100000 FMFlg1=           0
         NFxFlg=           0 DoJE=T BraDBF=F KetDBF=T FulRan=T
         wScrn=  0.000000 ICntrl=     500 IOpCl=  0 I1Cent=   200000004 NGrid=           0
         NMat0=    1 NMatS0=      1 NMatT0=    0 NMatD0=    1 NMtDS0=    0 NMtDT0=    0
 Petite list used in FoFCou.
 Harris En= -244.784235608565    
 Leave Link  401 at Wed May 12 11:56:09 2021, MaxMem=  2147483648 cpu:         1.7
 (Enter /opt/cluster/programs/g09_d.01/g09/l502.exe)
 Closed shell SCF:
 Using DIIS extrapolation, IDIIS=  1040.
 Integral symmetry usage will be decided dynamically.
 Keep R1 ints in memory in canonical form, NReq=9056162.
 IVT=       36600 IEndB=       36600 NGot=  2147483648 MDV=  2139321699
 LenX=  2139321699 LenY=  2139315633
 Requested convergence on RMS density matrix=1.00D-08 within 128 cycles.
 Requested convergence on MAX density matrix=1.00D-06.
 Requested convergence on             energy=1.00D-06.
 No special actions if energy rises.
 FoFCou: FMM=F IPFlag=           0 FMFlag=           0 FMFlg1=           0
         NFxFlg=           0 DoJE=F BraDBF=F KetDBF=F FulRan=T
         wScrn=  0.000000 ICntrl=     600 IOpCl=  0 I1Cent=           0 NGrid=           0
         NMat0=    1 NMatS0=   2850 NMatT0=    0 NMatD0=    1 NMtDS0=    0 NMtDT0=    0
 Symmetry not used in FoFCou.

 Cycle   1  Pass 1  IDiag  1:
 E= -255.098309946633    
 DIIS: error= 7.20D-04 at cycle   1 NSaved=   1.
 NSaved= 1 IEnMin= 1 EnMin= -255.098309946633     IErMin= 1 ErrMin= 7.20D-04
 ErrMax= 7.20D-04  0.00D+00 EMaxC= 1.00D-01 BMatC= 7.64D-05 BMatP= 7.64D-05
 IDIUse=3 WtCom= 9.93D-01 WtEn= 7.20D-03
 Coeff-Com:  0.100D+01
 Coeff-En:   0.100D+01
 Coeff:      0.100D+01
 Gap=     0.581 Goal=   None    Shift=    0.000
 RMSDP=5.18D-04 MaxDP=1.27D-02              OVMax= 2.31D-03

 Cycle   2  Pass 1  IDiag  1:
 E= -255.098419377053     Delta-E=       -0.000109430420 Rises=F Damp=F
 DIIS: error= 1.90D-04 at cycle   2 NSaved=   2.
 NSaved= 2 IEnMin= 2 EnMin= -255.098419377053     IErMin= 2 ErrMin= 1.90D-04
 ErrMax= 1.90D-04  0.00D+00 EMaxC= 1.00D-01 BMatC= 4.54D-06 BMatP= 7.64D-05
 IDIUse=3 WtCom= 9.98D-01 WtEn= 1.90D-03
 Coeff-Com: -0.621D-02 0.101D+01
 Coeff-En:   0.000D+00 0.100D+01
 Coeff:     -0.619D-02 0.101D+01
 Gap=     0.355 Goal=   None    Shift=    0.000
 RMSDP=1.36D-04 MaxDP=4.10D-03 DE=-1.09D-04 OVMax= 7.91D-04

 Cycle   3  Pass 1  IDiag  1:
 E= -255.098425994404     Delta-E=       -0.000006617351 Rises=F Damp=F
 DIIS: error= 8.50D-05 at cycle   3 NSaved=   3.
 NSaved= 3 IEnMin= 3 EnMin= -255.098425994404     IErMin= 3 ErrMin= 8.50D-05
 ErrMax= 8.50D-05  0.00D+00 EMaxC= 1.00D-01 BMatC= 1.23D-06 BMatP= 4.54D-06
 IDIUse=1 WtCom= 1.00D+00 WtEn= 0.00D+00
 Coeff-Com: -0.640D-01 0.318D+00 0.746D+00
 Coeff:     -0.640D-01 0.318D+00 0.746D+00
 Gap=     0.355 Goal=   None    Shift=    0.000
 RMSDP=3.59D-05 MaxDP=6.26D-04 DE=-6.62D-06 OVMax= 3.50D-04

 Cycle   4  Pass 1  IDiag  1:
 E= -255.098427389881     Delta-E=       -0.000001395477 Rises=F Damp=F
 DIIS: error= 3.16D-05 at cycle   4 NSaved=   4.
 NSaved= 4 IEnMin= 4 EnMin= -255.098427389881     IErMin= 4 ErrMin= 3.16D-05
 ErrMax= 3.16D-05  0.00D+00 EMaxC= 1.00D-01 BMatC= 7.86D-08 BMatP= 1.23D-06
 IDIUse=1 WtCom= 1.00D+00 WtEn= 0.00D+00
 Coeff-Com: -0.153D-01 0.325D-01 0.202D+00 0.780D+00
 Coeff:     -0.153D-01 0.325D-01 0.202D+00 0.780D+00
 Gap=     0.355 Goal=   None    Shift=    0.000
 RMSDP=8.98D-06 MaxDP=1.23D-04 DE=-1.40D-06 OVMax= 1.45D-04

 Cycle   5  Pass 1  IDiag  1:
 E= -255.098427478688     Delta-E=       -0.000000088807 Rises=F Damp=F
 DIIS: error= 1.64D-05 at cycle   5 NSaved=   5.
 NSaved= 5 IEnMin= 5 EnMin= -255.098427478688     IErMin= 5 ErrMin= 1.64D-05
 ErrMax= 1.64D-05  0.00D+00 EMaxC= 1.00D-01 BMatC= 2.80D-08 BMatP= 7.86D-08
 IDIUse=1 WtCom= 1.00D+00 WtEn= 0.00D+00
 Coeff-Com:  0.593D-02-0.506D-01-0.640D-01 0.397D+00 0.712D+00
 Coeff:      0.593D-02-0.506D-01-0.640D-01 0.397D+00 0.712D+00
 Gap=     0.355 Goal=   None    Shift=    0.000
 RMSDP=5.42D-06 MaxDP=8.61D-05 DE=-8.88D-08 OVMax= 6.02D-05

 Cycle   6  Pass 1  IDiag  1:
 E= -255.098427511174     Delta-E=       -0.000000032487 Rises=F Damp=F
 DIIS: error= 2.19D-06 at cycle   6 NSaved=   6.
 NSaved= 6 IEnMin= 6 EnMin= -255.098427511174     IErMin= 6 ErrMin= 2.19D-06
 ErrMax= 2.19D-06  0.00D+00 EMaxC= 1.00D-01 BMatC= 4.86D-10 BMatP= 2.80D-08
 IDIUse=1 WtCom= 1.00D+00 WtEn= 0.00D+00
 Coeff-Com:  0.114D-02-0.448D-02-0.159D-01-0.145D-01-0.158D-01 0.105D+01
 Coeff:      0.114D-02-0.448D-02-0.159D-01-0.145D-01-0.158D-01 0.105D+01
 Gap=     0.355 Goal=   None    Shift=    0.000
 RMSDP=1.72D-06 MaxDP=2.56D-05 DE=-3.25D-08 OVMax= 2.03D-05

 Cycle   7  Pass 1  IDiag  1:
 E= -255.098427512570     Delta-E=       -0.000000001395 Rises=F Damp=F
 DIIS: error= 1.59D-06 at cycle   7 NSaved=   7.
 NSaved= 7 IEnMin= 7 EnMin= -255.098427512570     IErMin= 7 ErrMin= 1.59D-06
 ErrMax= 1.59D-06  0.00D+00 EMaxC= 1.00D-01 BMatC= 2.37D-10 BMatP= 4.86D-10
 IDIUse=1 WtCom= 1.00D+00 WtEn= 0.00D+00
 Coeff-Com: -0.304D-03 0.539D-02 0.148D-02-0.609D-01-0.110D+00 0.515D+00
 Coeff-Com:  0.650D+00
 Coeff:     -0.304D-03 0.539D-02 0.148D-02-0.609D-01-0.110D+00 0.515D+00
 Coeff:      0.650D+00
 Gap=     0.355 Goal=   None    Shift=    0.000
 RMSDP=6.63D-07 MaxDP=1.59D-05 DE=-1.40D-09 OVMax= 9.48D-06

 Cycle   8  Pass 1  IDiag  1:
 E= -255.098427512869     Delta-E=       -0.000000000299 Rises=F Damp=F
 DIIS: error= 2.03D-07 at cycle   8 NSaved=   8.
 NSaved= 8 IEnMin= 8 EnMin= -255.098427512869     IErMin= 8 ErrMin= 2.03D-07
 ErrMax= 2.03D-07  0.00D+00 EMaxC= 1.00D-01 BMatC= 5.33D-12 BMatP= 2.37D-10
 IDIUse=1 WtCom= 1.00D+00 WtEn= 0.00D+00
 Coeff-Com: -0.864D-04 0.375D-03 0.130D-02-0.284D-03-0.736D-03-0.759D-01
 Coeff-Com:  0.421D-01 0.103D+01
 Coeff:     -0.864D-04 0.375D-03 0.130D-02-0.284D-03-0.736D-03-0.759D-01
 Coeff:      0.421D-01 0.103D+01
 Gap=     0.355 Goal=   None    Shift=    0.000
 RMSDP=2.26D-07 MaxDP=3.99D-06 DE=-2.99D-10 OVMax= 2.94D-06

 Cycle   9  Pass 1  IDiag  1:
 E= -255.098427512881     Delta-E=       -0.000000000012 Rises=F Damp=F
 DIIS: error= 1.22D-07 at cycle   9 NSaved=   9.
 NSaved= 9 IEnMin= 9 EnMin= -255.098427512881     IErMin= 9 ErrMin= 1.22D-07
 ErrMax= 1.22D-07  0.00D+00 EMaxC= 1.00D-01 BMatC= 1.45D-12 BMatP= 5.33D-12
 IDIUse=1 WtCom= 1.00D+00 WtEn= 0.00D+00
 Coeff-Com: -0.112D-04-0.266D-03 0.432D-03 0.499D-02 0.846D-02-0.778D-01
 Coeff-Com: -0.290D-01 0.484D+00 0.609D+00
 Coeff:     -0.112D-04-0.266D-03 0.432D-03 0.499D-02 0.846D-02-0.778D-01
 Coeff:     -0.290D-01 0.484D+00 0.609D+00
 Gap=     0.355 Goal=   None    Shift=    0.000
 RMSDP=5.89D-08 MaxDP=9.23D-07 DE=-1.17D-11 OVMax= 7.03D-07

 Cycle  10  Pass 1  IDiag  1:
 E= -255.098427512880     Delta-E=        0.000000000000 Rises=F Damp=F
 DIIS: error= 2.65D-08 at cycle  10 NSaved=  10.
 NSaved=10 IEnMin= 9 EnMin= -255.098427512881     IErMin=10 ErrMin= 2.65D-08
 ErrMax= 2.65D-08  0.00D+00 EMaxC= 1.00D-01 BMatC= 6.92D-14 BMatP= 1.45D-12
 IDIUse=1 WtCom= 1.00D+00 WtEn= 0.00D+00
 Coeff-Com:  0.953D-05-0.986D-04-0.123D-03 0.107D-02 0.127D-02-0.283D-02
 Coeff-Com: -0.936D-02-0.715D-01 0.111D+00 0.971D+00
 Coeff:      0.953D-05-0.986D-04-0.123D-03 0.107D-02 0.127D-02-0.283D-02
 Coeff:     -0.936D-02-0.715D-01 0.111D+00 0.971D+00
 Gap=     0.355 Goal=   None    Shift=    0.000
 RMSDP=4.04D-08 MaxDP=8.80D-07 DE= 3.41D-13 OVMax= 3.64D-07

 Cycle  11  Pass 1  IDiag  1:
 E= -255.098427512879     Delta-E=        0.000000000001 Rises=F Damp=F
 DIIS: error= 5.42D-09 at cycle  11 NSaved=  11.
 NSaved=11 IEnMin= 9 EnMin= -255.098427512881     IErMin=11 ErrMin= 5.42D-09
 ErrMax= 5.42D-09  0.00D+00 EMaxC= 1.00D-01 BMatC= 3.67D-15 BMatP= 6.92D-14
 IDIUse=1 WtCom= 1.00D+00 WtEn= 0.00D+00
 Coeff-Com:  0.140D-05 0.367D-05-0.353D-04-0.138D-03-0.299D-03 0.354D-02
 Coeff-Com:  0.129D-02-0.326D-01-0.268D-01 0.116D+00 0.939D+00
 Coeff:      0.140D-05 0.367D-05-0.353D-04-0.138D-03-0.299D-03 0.354D-02
 Coeff:      0.129D-02-0.326D-01-0.268D-01 0.116D+00 0.939D+00
 Gap=     0.355 Goal=   None    Shift=    0.000
 RMSDP=8.19D-09 MaxDP=1.36D-07 DE= 1.08D-12 OVMax= 6.76D-08

 SCF Done:  E(RwB97XD) =  -255.098427513     A.U. after   11 cycles
            NFock= 11  Conv=0.82D-08     -V/T= 2.0056
 KE= 2.536734259538D+02 PE=-9.109129904900D+02 EE= 2.455084632390D+02
 Leave Link  502 at Wed May 12 11:56:10 2021, MaxMem=  2147483648 cpu:        11.3
 (Enter /opt/cluster/programs/g09_d.01/g09/l701.exe)
 Compute integral first derivatives.
 ... and contract with generalized density number  0.
 R6Disp: Adding Grimme-D2 dispersion energy 1st derivatives to the gradient.
 Leave Link  701 at Wed May 12 11:56:10 2021, MaxMem=  2147483648 cpu:         0.6
 (Enter /opt/cluster/programs/g09_d.01/g09/l702.exe)
 L702 exits ... SP integral derivatives will be done elsewhere.
 Leave Link  702 at Wed May 12 11:56:10 2021, MaxMem=  2147483648 cpu:         0.2
 (Enter /opt/cluster/programs/g09_d.01/g09/l703.exe)
 Compute integral first derivatives, UseDBF=F ICtDFT=           0.
 Integral derivatives from FoFJK, PRISM(SPDF).
 Calling FoFJK, ICntrl=      2127 FMM=F ISym2X=0 I1Cent= 0 IOpClX= 0 NMat=1 NMatS=1 NMatT=0.
 FoFJK:  IHMeth= 1 ICntrl=    2127 DoSepK=T KAlg= 0 I1Cent=   0 FoldK=F
 IRaf=         1 NMat=   1 IRICut=       1 DoRegI=T DoRafI=F ISym2E= 0.
 FoFCou: FMM=F IPFlag=           0 FMFlag=      100000 FMFlg1=         800
         NFxFlg=           0 DoJE=F BraDBF=F KetDBF=F FulRan=T
         wScrn=  0.000000 ICntrl=    2527 IOpCl=  0 I1Cent=           0 NGrid=           0
         NMat0=    1 NMatS0=      1 NMatT0=    0 NMatD0=    1 NMtDS0=    0 NMtDT0=    0
 Symmetry not used in FoFCou.
 Leave Link  703 at Wed May 12 11:56:11 2021, MaxMem=  2147483648 cpu:         3.3
 (Enter /opt/cluster/programs/g09_d.01/g09/l716.exe)
 Dipole        =-7.36557595D-01 5.95013786D-01 1.43336409D-01
 ***** Axes restored to original set *****
 -------------------------------------------------------------------
 Center     Atomic                   Forces (Hartrees/Bohr)
 Number     Number              X              Y              Z
 -------------------------------------------------------------------
      1        6           0.000610942   -0.001652391   -0.001456412
      2        6          -0.003312765    0.002438831    0.002670656
      3        6           0.000493036    0.001693953   -0.002427084
      4        6           0.000990364   -0.001235885    0.000940770
      5        1           0.000009664   -0.000024949   -0.000056902
      6        1          -0.000048736    0.000032776    0.000102251
      7        9           0.001222932   -0.001127772    0.000258034
      8        1          -0.000104321   -0.000076601    0.000018780
      9        1          -0.000002656    0.000044826    0.000006976
     10        1           0.000141542   -0.000092789   -0.000057070
 -------------------------------------------------------------------
 Cartesian Forces:  Max     0.003312765 RMS     0.001219002
 Leave Link  716 at Wed May 12 11:56:11 2021, MaxMem=  2147483648 cpu:         0.2
 (Enter /opt/cluster/programs/g09_d.01/g09/l103.exe)

 GradGradGradGradGradGradGradGradGradGradGradGradGradGradGradGradGradGrad
 Berny optimization.
 Using GEDIIS/GDIIS optimizer.
 FormGI is forming the generalized inverse of G from B-inverse, IUseBI=4.
 Internal  Forces:  Max     0.001676032 RMS     0.000663689
 Search for a local minimum.
 Step number   2 out of a maximum of   43
 All quantities printed in internal units (Hartrees-Bohrs-Radians)
 RMS Force = .54921D-03 SwitMx=.10000D-02 MixMth= 2
 Mixed Optimization -- En-DIIS/RFO-DIIS
 Update second derivatives using D2CorX and points    1    2
 DE= -1.65D-04 DEPred=-1.60D-04 R= 1.03D+00
 TightC=F SS=  1.41D+00  RLast= 3.41D-02 DXNew= 5.0454D-01 1.0226D-01
 Trust test= 1.03D+00 RLast= 3.41D-02 DXMaxT set to 3.00D-01
 ITU=  1  0
 Use linear search instead of GDIIS.
     Eigenvalues ---    0.01679   0.02123   0.02830   0.02835   0.02952
     Eigenvalues ---    0.02967   0.15845   0.15996   0.16000   0.16000
     Eigenvalues ---    0.16131   0.20891   0.24107   0.24984   0.34357
     Eigenvalues ---    0.35179   0.35260   0.35460   0.35625   0.35777
     Eigenvalues ---    0.38484   0.57268   0.706061000.000001000.00000
     Eigenvalues --- 1000.000001000.000001000.000001000.000001000.00000
     Eigenvalues --- 1000.000001000.000001000.00000
 RFO step:  Lambda=-2.73768168D-05 EMin= 1.67866984D-02
 Quartic linear search produced a step of  0.01807.
 Iteration  1 RMS(Cart)=  0.00428469 RMS(Int)=  0.00000913
 Iteration  2 RMS(Cart)=  0.00001087 RMS(Int)=  0.00000068
 Iteration  3 RMS(Cart)=  0.00000000 RMS(Int)=  0.00000068
 Iteration  1 RMS(Cart)=  0.00000037 RMS(Int)=  0.00000029
 ITry= 1 IFail=0 DXMaxC= 9.11D-03 DCOld= 1.00D+10 DXMaxT= 3.00D-01 DXLimC= 3.00D+00 Rises=F
 Variable       Old X    -DE/DX   Delta X   Delta X   Delta X     New X
                                 (Linear)    (Quad)   (Total)
    R1        2.51107   0.00130  -0.00020   0.00153   0.00133   2.51240
    R2        2.04503   0.00001  -0.00003  -0.00008  -0.00010   2.04493
    R3        2.04597  -0.00004  -0.00002  -0.00017  -0.00018   2.04579
    R4        2.76277   0.00130  -0.00002   0.00353   0.00351   2.76628
    R5        2.68057  -0.00168  -0.00029  -0.00519  -0.00548   2.67509
    R6        2.52798   0.00121  -0.00021   0.00140   0.00119   2.52917
    R7        2.05386  -0.00006  -0.00004  -0.00032  -0.00036   2.05350
    R8        2.05274  -0.00004  -0.00001  -0.00016  -0.00017   2.05257
    R9        2.04872   0.00008  -0.00003   0.00011   0.00008   2.04880
    A1        2.11460   0.00000  -0.00003  -0.00008  -0.00010   2.11450
    A2        2.09629   0.00001  -0.00007  -0.00017  -0.00024   2.09604
    A3        2.07228  -0.00002   0.00009   0.00025   0.00034   2.07261
    A4        2.28404  -0.00107  -0.00008  -0.00467  -0.00475   2.27929
    A5        2.05546   0.00078   0.00006   0.00328   0.00334   2.05880
    A6        1.94258   0.00033   0.00003   0.00149   0.00152   1.94410
    A7        2.16121  -0.00009  -0.00018  -0.00107  -0.00126   2.15996
    A8        2.01459  -0.00007   0.00010  -0.00008   0.00002   2.01461
    A9        2.10699   0.00017   0.00008   0.00123   0.00131   2.10830
   A10        2.12685  -0.00011  -0.00005  -0.00088  -0.00093   2.12593
   A11        2.11302   0.00022  -0.00003   0.00126   0.00122   2.11424
   A12        2.04330  -0.00011   0.00008  -0.00038  -0.00030   2.04301
    D1        3.13408   0.00048   0.00000   0.00350   0.00351   3.13759
    D2        0.04814  -0.00034  -0.00012   0.00069   0.00057   0.04871
    D3        0.00036   0.00049   0.00004   0.00416   0.00420   0.00455
    D4       -3.08559  -0.00033  -0.00009   0.00135   0.00126  -3.08433
    D5        0.69833  -0.00154   0.00000   0.00000   0.00000   0.69833
    D6       -2.47324  -0.00075   0.00009   0.00280   0.00289  -2.47035
    D7       -2.49611  -0.00075   0.00012   0.00273   0.00284  -2.49327
    D8        0.61551   0.00005   0.00021   0.00553   0.00573   0.62124
    D9        0.02682   0.00044   0.00000   0.00208   0.00209   0.02891
   D10       -3.12083   0.00043  -0.00006   0.00181   0.00176  -3.11907
   D11       -3.08328  -0.00039  -0.00009  -0.00084  -0.00093  -3.08421
   D12        0.05225  -0.00040  -0.00015  -0.00110  -0.00126   0.05100
         Item               Value     Threshold  Converged?
 Maximum Force            0.001676     0.000450     NO 
 RMS     Force            0.000549     0.000300     NO 
 Maximum Displacement     0.009112     0.001800     NO 
 RMS     Displacement     0.004287     0.001200     NO 
 Predicted change in Energy=-1.377560D-05
 Lowest energy point so far.  Saving SCF results.
 GradGradGradGradGradGradGradGradGradGradGradGradGradGradGradGradGradGrad

 Leave Link  103 at Wed May 12 11:56:11 2021, MaxMem=  2147483648 cpu:         0.0
 (Enter /opt/cluster/programs/g09_d.01/g09/l202.exe)
                          Input orientation:                          
 ---------------------------------------------------------------------
 Center     Atomic      Atomic             Coordinates (Angstroms)
 Number     Number       Type             X           Y           Z
 ---------------------------------------------------------------------
      1          6           0       -0.915155   -1.304454    0.089189
      2          6           0       -0.465229   -0.054060    0.048457
      3          6           0        0.880138    0.481600    0.262762
      4          6           0        1.995289   -0.107821   -0.184762
      5          1           0       -1.957631   -1.530481   -0.092901
      6          1           0       -0.237668   -2.118054    0.315149
      7          9           0       -1.402688    0.981493   -0.181136
      8          1           0        0.926549    1.425641    0.798927
      9          1           0        1.964279   -1.023837   -0.767622
     10          1           0        2.972774    0.315896    0.016313
 ---------------------------------------------------------------------
                    Distance matrix (angstroms):
                    1          2          3          4          5
     1  C    0.000000
     2  C    1.329503   0.000000
     3  C    2.538345   1.463854   0.000000
     4  C    3.158744   2.472130   1.338379   0.000000
     5  H    1.082129   2.104060   3.496842   4.202140   0.000000
     6  H    1.082585   2.093556   2.830271   3.045824   1.862799
     7  F    2.352938   1.415596   2.378703   3.568314   2.574055
     8  H    3.368831   2.165587   1.086664   2.112192   4.225224
     9  H    3.017285   2.740248   2.122121   1.086173   4.011648
    10  H    4.212699   3.458000   2.113604   1.084179   5.265922
                    6          7          8          9         10
     6  H    0.000000
     7  F    3.348247   0.000000
     8  H    3.761279   2.565762   0.000000
     9  H    2.686685   3.962547   3.087216   0.000000
    10  H    4.039846   4.430200   2.455821   1.851081   0.000000
 Stoichiometry    C4H5F
 Framework group  C1[X(C4H5F)]
 Deg. of freedom    24
 Full point group                 C1      NOp   1
 RotChk:  IX=0 Diff= 1.83D-03
 Largest Abelian subgroup         C1      NOp   1
 Largest concise Abelian subgroup C1      NOp   1
                         Standard orientation:                         
 ---------------------------------------------------------------------
 Center     Atomic      Atomic             Coordinates (Angstroms)
 Number     Number       Type             X           Y           Z
 ---------------------------------------------------------------------
      1          6           0        0.912716    1.306158    0.092587
      2          6           0        0.465333    0.054857    0.051697
      3          6           0       -0.879707   -0.483165    0.262099
      4          6           0       -1.994494    0.103631   -0.189763
      5          1           0        1.955357    1.533999   -0.086276
      6          1           0        0.232918    2.118691    0.315420
      7          9           0        1.405540   -0.979132   -0.173667
      8          1           0       -0.926088   -1.426722    0.799117
      9          1           0       -1.963305    1.019083   -0.773498
     10          1           0       -2.971826   -0.321754    0.008512
 ---------------------------------------------------------------------
 Rotational constants (GHZ):      9.2679369      3.9499428      2.8723068
 Leave Link  202 at Wed May 12 11:56:11 2021, MaxMem=  2147483648 cpu:         0.0
 (Enter /opt/cluster/programs/g09_d.01/g09/l301.exe)
 Standard basis: 6-31+G (6D, 7F)
 Ernie: Thresh=  0.10000D-02 Tol=  0.10000D-05 Strict=F.
 There are    75 symmetry adapted cartesian basis functions of A   symmetry.
 There are    75 symmetry adapted basis functions of A   symmetry.
    75 basis functions,   150 primitive gaussians,    75 cartesian basis functions
    19 alpha electrons       19 beta electrons
       nuclear repulsion energy       156.6468057810 Hartrees.
 IExCor= 4639 DFT=T Ex+Corr=wB97XD ExCW=0 ScaHFX=  1.000000
 ScaDFX=  1.000000  1.000000  1.000000  1.000000 ScalE2=  1.000000  1.000000
 IRadAn=      0 IRanWt=     -1 IRanGd=            0 ICorTp=0 IEmpDi=121
  HFx wShort=  0.000000 wLong=  0.200000 cFull=  0.222036 cShort=  0.000000 cLong=  0.777964
  DFx wShort=  0.000000 wLong=  0.200000 cFull=  0.000000 cShort=  0.000000 cLong=  1.000000
 NAtoms=   10 NActive=   10 NUniq=   10 SFac= 1.00D+00 NAtFMM=   60 NAOKFM=F Big=F
 Integral buffers will be    131072 words long.
 Raffenetti 2 integral format.
 Two-electron integral symmetry is turned on.
 R6Disp:  Grimme-D2 Dispersion energy=       -0.0031225343 Hartrees.
 Nuclear repulsion after empirical dispersion term =      156.6436832467 Hartrees.
 Leave Link  301 at Wed May 12 11:56:11 2021, MaxMem=  2147483648 cpu:         0.3
 (Enter /opt/cluster/programs/g09_d.01/g09/l302.exe)
 NPDir=0 NMtPBC=     1 NCelOv=     1 NCel=       1 NClECP=     1 NCelD=      1
         NCelK=      1 NCelE2=     1 NClLst=     1 CellRange=     0.0.
 One-electron integrals computed using PRISM.
 NBasis=    75 RedAO= T EigKep=  5.49D-05  NBF=    75
 NBsUse=    75 1.00D-06 EigRej= -1.00D+00 NBFU=    75
 Precomputing XC quadrature grid using
 IXCGrd= 4 IRadAn=           0 IRanWt=          -1 IRanGd=           0 AccXCQ= 0.00D+00.
 Generated NRdTot=       0 NPtTot=           0 NUsed=           0 NTot=          32
 NSgBfM=    75    75    75    75    75 MxSgAt=    10 MxSgA2=    10.
 Leave Link  302 at Wed May 12 11:56:11 2021, MaxMem=  2147483648 cpu:         0.8
 (Enter /opt/cluster/programs/g09_d.01/g09/l303.exe)
 DipDrv:  MaxL=1.
 Leave Link  303 at Wed May 12 11:56:11 2021, MaxMem=  2147483648 cpu:         0.2
 (Enter /opt/cluster/programs/g09_d.01/g09/l401.exe)
 Initial guess from the checkpoint file:  "/home/unibas/boittier/RDKit_G2/B.pdb/SCAN_1_2_3_4_S_17_20.0/11_SCAN_1_2_3_4_F/B.pdb.chk"
 B after Tr=     0.000000    0.000000    0.000000
         Rot=    1.000000   -0.000106    0.000117   -0.000516 Ang=  -0.06 deg.
 Guess basis will be translated and rotated to current coordinates.
 JPrj=2 DoOrth=T DoCkMO=T.
 Leave Link  401 at Wed May 12 11:56:11 2021, MaxMem=  2147483648 cpu:         0.6
 (Enter /opt/cluster/programs/g09_d.01/g09/l502.exe)
 Closed shell SCF:
 Using DIIS extrapolation, IDIIS=  1040.
 Integral symmetry usage will be decided dynamically.
 Keep R1 ints in memory in canonical form, NReq=9056162.
 IVT=       36600 IEndB=       36600 NGot=  2147483648 MDV=  2139321699
 LenX=  2139321699 LenY=  2139315633
 Requested convergence on RMS density matrix=1.00D-08 within 128 cycles.
 Requested convergence on MAX density matrix=1.00D-06.
 Requested convergence on             energy=1.00D-06.
 No special actions if energy rises.
 FoFCou: FMM=F IPFlag=           0 FMFlag=           0 FMFlg1=           0
         NFxFlg=           0 DoJE=F BraDBF=F KetDBF=F FulRan=T
         wScrn=  0.000000 ICntrl=     600 IOpCl=  0 I1Cent=           0 NGrid=           0
         NMat0=    1 NMatS0=   2850 NMatT0=    0 NMatD0=    1 NMtDS0=    0 NMtDT0=    0
 Symmetry not used in FoFCou.

 Cycle   1  Pass 1  IDiag  1:
 E= -255.098425154602    
 DIIS: error= 2.48D-04 at cycle   1 NSaved=   1.
 NSaved= 1 IEnMin= 1 EnMin= -255.098425154602     IErMin= 1 ErrMin= 2.48D-04
 ErrMax= 2.48D-04  0.00D+00 EMaxC= 1.00D-01 BMatC= 1.21D-05 BMatP= 1.21D-05
 IDIUse=3 WtCom= 9.98D-01 WtEn= 2.48D-03
 Coeff-Com:  0.100D+01
 Coeff-En:   0.100D+01
 Coeff:      0.100D+01
 Gap=     0.581 Goal=   None    Shift=    0.000
 RMSDP=1.66D-04 MaxDP=3.03D-03              OVMax= 1.17D-03

 Cycle   2  Pass 1  IDiag  1:
 E= -255.098443642382     Delta-E=       -0.000018487780 Rises=F Damp=F
 DIIS: error= 1.52D-04 at cycle   2 NSaved=   2.
 NSaved= 2 IEnMin= 2 EnMin= -255.098443642382     IErMin= 2 ErrMin= 1.52D-04
 ErrMax= 1.52D-04  0.00D+00 EMaxC= 1.00D-01 BMatC= 2.08D-06 BMatP= 1.21D-05
 IDIUse=3 WtCom= 9.98D-01 WtEn= 1.52D-03
 Coeff-Com:  0.126D+00 0.874D+00
 Coeff-En:   0.000D+00 0.100D+01
 Coeff:      0.125D+00 0.875D+00
 Gap=     0.356 Goal=   None    Shift=    0.000
 RMSDP=4.75D-05 MaxDP=1.06D-03 DE=-1.85D-05 OVMax= 4.65D-04

 Cycle   3  Pass 1  IDiag  1:
 E= -255.098444773513     Delta-E=       -0.000001131132 Rises=F Damp=F
 DIIS: error= 1.41D-04 at cycle   3 NSaved=   3.
 NSaved= 3 IEnMin= 3 EnMin= -255.098444773513     IErMin= 3 ErrMin= 1.41D-04
 ErrMax= 1.41D-04  0.00D+00 EMaxC= 1.00D-01 BMatC= 1.57D-06 BMatP= 2.08D-06
 IDIUse=3 WtCom= 9.99D-01 WtEn= 1.41D-03
 Coeff-Com: -0.106D+00 0.486D+00 0.620D+00
 Coeff-En:   0.000D+00 0.225D+00 0.775D+00
 Coeff:     -0.106D+00 0.486D+00 0.620D+00
 Gap=     0.356 Goal=   None    Shift=    0.000
 RMSDP=3.24D-05 MaxDP=8.20D-04 DE=-1.13D-06 OVMax= 2.28D-04

 Cycle   4  Pass 1  IDiag  1:
 E= -255.098445934484     Delta-E=       -0.000001160971 Rises=F Damp=F
 DIIS: error= 1.24D-05 at cycle   4 NSaved=   4.
 NSaved= 4 IEnMin= 4 EnMin= -255.098445934484     IErMin= 4 ErrMin= 1.24D-05
 ErrMax= 1.24D-05  0.00D+00 EMaxC= 1.00D-01 BMatC= 1.04D-08 BMatP= 1.57D-06
 IDIUse=1 WtCom= 1.00D+00 WtEn= 0.00D+00
 Coeff-Com:  0.345D-02-0.732D-01-0.274D-01 0.110D+01
 Coeff:      0.345D-02-0.732D-01-0.274D-01 0.110D+01
 Gap=     0.356 Goal=   None    Shift=    0.000
 RMSDP=6.26D-06 MaxDP=8.84D-05 DE=-1.16D-06 OVMax= 8.18D-05

 Cycle   5  Pass 1  IDiag  1:
 E= -255.098445963446     Delta-E=       -0.000000028962 Rises=F Damp=F
 DIIS: error= 4.08D-06 at cycle   5 NSaved=   5.
 NSaved= 5 IEnMin= 5 EnMin= -255.098445963446     IErMin= 5 ErrMin= 4.08D-06
 ErrMax= 4.08D-06  0.00D+00 EMaxC= 1.00D-01 BMatC= 1.79D-09 BMatP= 1.04D-08
 IDIUse=1 WtCom= 1.00D+00 WtEn= 0.00D+00
 Coeff-Com:  0.927D-02-0.606D-01-0.570D-01 0.348D+00 0.760D+00
 Coeff:      0.927D-02-0.606D-01-0.570D-01 0.348D+00 0.760D+00
 Gap=     0.356 Goal=   None    Shift=    0.000
 RMSDP=1.76D-06 MaxDP=1.93D-05 DE=-2.90D-08 OVMax= 2.25D-05

 Cycle   6  Pass 1  IDiag  1:
 E= -255.098445966714     Delta-E=       -0.000000003268 Rises=F Damp=F
 DIIS: error= 1.26D-06 at cycle   6 NSaved=   6.
 NSaved= 6 IEnMin= 6 EnMin= -255.098445966714     IErMin= 6 ErrMin= 1.26D-06
 ErrMax= 1.26D-06  0.00D+00 EMaxC= 1.00D-01 BMatC= 1.50D-10 BMatP= 1.79D-09
 IDIUse=1 WtCom= 1.00D+00 WtEn= 0.00D+00
 Coeff-Com:  0.142D-02-0.280D-02-0.950D-02-0.620D-01 0.139D+00 0.934D+00
 Coeff:      0.142D-02-0.280D-02-0.950D-02-0.620D-01 0.139D+00 0.934D+00
 Gap=     0.356 Goal=   None    Shift=    0.000
 RMSDP=7.38D-07 MaxDP=1.14D-05 DE=-3.27D-09 OVMax= 9.73D-06

 Cycle   7  Pass 1  IDiag  1:
 E= -255.098445967059     Delta-E=       -0.000000000345 Rises=F Damp=F
 DIIS: error= 7.36D-07 at cycle   7 NSaved=   7.
 NSaved= 7 IEnMin= 7 EnMin= -255.098445967059     IErMin= 7 ErrMin= 7.36D-07
 ErrMax= 7.36D-07  0.00D+00 EMaxC= 1.00D-01 BMatC= 4.41D-11 BMatP= 1.50D-10
 IDIUse=1 WtCom= 1.00D+00 WtEn= 0.00D+00
 Coeff-Com: -0.406D-03 0.551D-02 0.173D-02-0.679D-01-0.154D-01 0.443D+00
 Coeff-Com:  0.634D+00
 Coeff:     -0.406D-03 0.551D-02 0.173D-02-0.679D-01-0.154D-01 0.443D+00
 Coeff:      0.634D+00
 Gap=     0.356 Goal=   None    Shift=    0.000
 RMSDP=2.11D-07 MaxDP=2.12D-06 DE=-3.45D-10 OVMax= 3.87D-06

 Cycle   8  Pass 1  IDiag  1:
 E= -255.098445967114     Delta-E=       -0.000000000056 Rises=F Damp=F
 DIIS: error= 1.30D-07 at cycle   8 NSaved=   8.
 NSaved= 8 IEnMin= 8 EnMin= -255.098445967114     IErMin= 8 ErrMin= 1.30D-07
 ErrMax= 1.30D-07  0.00D+00 EMaxC= 1.00D-01 BMatC= 1.41D-12 BMatP= 4.41D-11
 IDIUse=1 WtCom= 1.00D+00 WtEn= 0.00D+00
 Coeff-Com: -0.174D-03 0.953D-03 0.117D-02-0.252D-02-0.160D-01-0.395D-01
 Coeff-Com:  0.104D+00 0.952D+00
 Coeff:     -0.174D-03 0.953D-03 0.117D-02-0.252D-02-0.160D-01-0.395D-01
 Coeff:      0.104D+00 0.952D+00
 Gap=     0.356 Goal=   None    Shift=    0.000
 RMSDP=9.69D-08 MaxDP=2.52D-06 DE=-5.56D-11 OVMax= 9.87D-07

 Cycle   9  Pass 1  IDiag  1:
 E= -255.098445967118     Delta-E=       -0.000000000004 Rises=F Damp=F
 DIIS: error= 2.88D-08 at cycle   9 NSaved=   9.
 NSaved= 9 IEnMin= 9 EnMin= -255.098445967118     IErMin= 9 ErrMin= 2.88D-08
 ErrMax= 2.88D-08  0.00D+00 EMaxC= 1.00D-01 BMatC= 1.09D-13 BMatP= 1.41D-12
 IDIUse=1 WtCom= 1.00D+00 WtEn= 0.00D+00
 Coeff-Com: -0.181D-04-0.138D-03 0.171D-03 0.389D-02-0.258D-02-0.385D-01
 Coeff-Com: -0.232D-01 0.205D+00 0.855D+00
 Coeff:     -0.181D-04-0.138D-03 0.171D-03 0.389D-02-0.258D-02-0.385D-01
 Coeff:     -0.232D-01 0.205D+00 0.855D+00
 Gap=     0.356 Goal=   None    Shift=    0.000
 RMSDP=2.68D-08 MaxDP=5.33D-07 DE=-4.15D-12 OVMax= 3.19D-07

 Cycle  10  Pass 1  IDiag  1:
 E= -255.098445967118     Delta-E=        0.000000000000 Rises=F Damp=F
 DIIS: error= 9.47D-09 at cycle  10 NSaved=  10.
 NSaved=10 IEnMin= 9 EnMin= -255.098445967118     IErMin=10 ErrMin= 9.47D-09
 ErrMax= 9.47D-09  0.00D+00 EMaxC= 1.00D-01 BMatC= 9.38D-15 BMatP= 1.09D-13
 IDIUse=1 WtCom= 1.00D+00 WtEn= 0.00D+00
 Coeff-Com:  0.143D-04-0.118D-03-0.979D-04 0.103D-02 0.115D-02-0.320D-02
 Coeff-Com: -0.154D-01-0.520D-01 0.158D+00 0.911D+00
 Coeff:      0.143D-04-0.118D-03-0.979D-04 0.103D-02 0.115D-02-0.320D-02
 Coeff:     -0.154D-01-0.520D-01 0.158D+00 0.911D+00
 Gap=     0.356 Goal=   None    Shift=    0.000
 RMSDP=1.03D-08 MaxDP=1.95D-07 DE= 1.71D-13 OVMax= 1.30D-07

 Cycle  11  Pass 1  IDiag  1:
 E= -255.098445967118     Delta-E=        0.000000000000 Rises=F Damp=F
 DIIS: error= 3.66D-09 at cycle  11 NSaved=  11.
 NSaved=11 IEnMin= 9 EnMin= -255.098445967118     IErMin=11 ErrMin= 3.66D-09
 ErrMax= 3.66D-09  0.00D+00 EMaxC= 1.00D-01 BMatC= 1.58D-15 BMatP= 9.38D-15
 IDIUse=1 WtCom= 1.00D+00 WtEn= 0.00D+00
 Coeff-Com:  0.625D-05-0.319D-04-0.475D-04 0.825D-04 0.597D-03 0.146D-02
 Coeff-Com: -0.387D-02-0.339D-01-0.134D-01 0.303D+00 0.746D+00
 Coeff:      0.625D-05-0.319D-04-0.475D-04 0.825D-04 0.597D-03 0.146D-02
 Coeff:     -0.387D-02-0.339D-01-0.134D-01 0.303D+00 0.746D+00
 Gap=     0.356 Goal=   None    Shift=    0.000
 RMSDP=2.79D-09 MaxDP=4.81D-08 DE= 2.27D-13 OVMax= 2.54D-08

 SCF Done:  E(RwB97XD) =  -255.098445967     A.U. after   11 cycles
            NFock= 11  Conv=0.28D-08     -V/T= 2.0056
 KE= 2.536712183062D+02 PE=-9.109282624442D+02 EE= 2.455149149242D+02
 Leave Link  502 at Wed May 12 11:56:19 2021, MaxMem=  2147483648 cpu:        55.6
 (Enter /opt/cluster/programs/g09_d.01/g09/l701.exe)
 Compute integral first derivatives.
 ... and contract with generalized density number  0.
 R6Disp: Adding Grimme-D2 dispersion energy 1st derivatives to the gradient.
 Leave Link  701 at Wed May 12 11:56:19 2021, MaxMem=  2147483648 cpu:         0.6
 (Enter /opt/cluster/programs/g09_d.01/g09/l702.exe)
 L702 exits ... SP integral derivatives will be done elsewhere.
 Leave Link  702 at Wed May 12 11:56:19 2021, MaxMem=  2147483648 cpu:         0.2
 (Enter /opt/cluster/programs/g09_d.01/g09/l703.exe)
 Compute integral first derivatives, UseDBF=F ICtDFT=           0.
 Integral derivatives from FoFJK, PRISM(SPDF).
 Calling FoFJK, ICntrl=      2127 FMM=F ISym2X=0 I1Cent= 0 IOpClX= 0 NMat=1 NMatS=1 NMatT=0.
 FoFJK:  IHMeth= 1 ICntrl=    2127 DoSepK=T KAlg= 0 I1Cent=   0 FoldK=F
 IRaf=         1 NMat=   1 IRICut=       1 DoRegI=T DoRafI=F ISym2E= 0.
 FoFCou: FMM=F IPFlag=           0 FMFlag=      100000 FMFlg1=         800
         NFxFlg=           0 DoJE=F BraDBF=F KetDBF=F FulRan=T
         wScrn=  0.000000 ICntrl=    2527 IOpCl=  0 I1Cent=           0 NGrid=           0
         NMat0=    1 NMatS0=      1 NMatT0=    0 NMatD0=    1 NMtDS0=    0 NMtDT0=    0
 Symmetry not used in FoFCou.
 Leave Link  703 at Wed May 12 11:56:20 2021, MaxMem=  2147483648 cpu:         3.3
 (Enter /opt/cluster/programs/g09_d.01/g09/l716.exe)
 Dipole        =-7.33503077D-01 5.89838661D-01 1.43553003D-01
 ***** Axes restored to original set *****
 -------------------------------------------------------------------
 Center     Atomic                   Forces (Hartrees/Bohr)
 Number     Number              X              Y              Z
 -------------------------------------------------------------------
      1        6           0.000536889   -0.000769501   -0.001459288
      2        6          -0.001288143    0.001016228    0.002853047
      3        6           0.000153652    0.000891472   -0.002615383
      4        6           0.000320024   -0.000836290    0.001148750
      5        1          -0.000065163   -0.000062589   -0.000005482
      6        1          -0.000020668    0.000012019    0.000045646
      7        9           0.000311371   -0.000313441    0.000074341
      8        1          -0.000013251    0.000088840   -0.000001242
      9        1           0.000006866   -0.000017808   -0.000020711
     10        1           0.000058422   -0.000008932   -0.000019678
 -------------------------------------------------------------------
 Cartesian Forces:  Max     0.002853047 RMS     0.000891555
 Leave Link  716 at Wed May 12 11:56:20 2021, MaxMem=  2147483648 cpu:         0.2
 (Enter /opt/cluster/programs/g09_d.01/g09/l103.exe)

 GradGradGradGradGradGradGradGradGradGradGradGradGradGradGradGradGradGrad
 Berny optimization.
 Using GEDIIS/GDIIS optimizer.
 FormGI is forming the generalized inverse of G from B-inverse, IUseBI=4.
 Internal  Forces:  Max     0.001469303 RMS     0.000416127
 Search for a local minimum.
 Step number   3 out of a maximum of   43
 All quantities printed in internal units (Hartrees-Bohrs-Radians)
 RMS Force = .20026D-03 SwitMx=.10000D-02 MixMth= 2
 Mixed Optimization -- En-DIIS/RFO-DIIS
 Swapping is turned off.
 Update second derivatives using D2CorX and points    1    2    3
 DE= -1.85D-05 DEPred=-1.38D-05 R= 1.34D+00
[...]
 ***** Axes restored to original set *****
 -------------------------------------------------------------------
 Center     Atomic                   Forces (Hartrees/Bohr)
 Number     Number              X              Y              Z
 -------------------------------------------------------------------
      1        6           0.000292867   -0.000141943   -0.001503884
      2        6          -0.000387786   -0.000048102    0.003058528
      3        6          -0.000060873    0.000943305   -0.002755612
      4        6           0.000128603   -0.000715221    0.001187548
      5        1           0.000007284   -0.000033863    0.000017705
      6        1           0.000007274   -0.000000946    0.000016627
      7        9          -0.000022781   -0.000018655   -0.000010357
      8        1           0.000022754    0.000024661   -0.000023294
      9        1           0.000014152   -0.000004508    0.000003107
     10        1          -0.000001494   -0.000004728    0.000009631
 -------------------------------------------------------------------
 Cartesian Forces:  Max     0.003058528 RMS     0.000862264
 Leave Link  716 at Wed May 12 11:56:23 2021, MaxMem=  2147483648 cpu:         0.2
 (Enter /opt/cluster/programs/g09_d.01/g09/l103.exe)

 GradGradGradGradGradGradGradGradGradGradGradGradGradGradGradGradGradGrad
 Berny optimization.
 Using GEDIIS/GDIIS optimizer.
 FormGI is forming the generalized inverse of G from B-inverse, IUseBI=4.
 Internal  Forces:  Max     0.001462759 RMS     0.000365555
 Search for a local minimum.
 Step number   4 out of a maximum of   43
 All quantities printed in internal units (Hartrees-Bohrs-Radians)
 RMS Force = .23261D-04 SwitMx=.10000D-02 MixMth= 2
 Mixed Optimization -- En-DIIS/RFO-DIIS
 Swapping is turned off.
 Update second derivatives using D2CorX and points    1    2    3    4
 DE= -3.48D-06 DEPred=-3.06D-06 R= 1.14D+00
 TightC=F SS=  1.41D+00  RLast= 6.52D-03 DXNew= 5.0454D-01 1.9574D-02
 Trust test= 1.14D+00 RLast= 6.52D-03 DXMaxT set to 3.00D-01
 ITU=  1  1  1  0
     Eigenvalues ---    0.01712   0.02127   0.02820   0.02838   0.02947
     Eigenvalues ---    0.02957   0.14500   0.15998   0.16001   0.16032
     Eigenvalues ---    0.16182   0.16757   0.22185   0.25092   0.34974
     Eigenvalues ---    0.35203   0.35350   0.35412   0.35636   0.35918
     Eigenvalues ---    0.38438   0.57549   0.656851000.000001000.00000
     Eigenvalues --- 1000.000001000.000001000.000001000.000001000.00000
     Eigenvalues --- 1000.000001000.000001000.00000
 En-DIIS/RFO-DIIS IScMMF=        0 using points:     4    3    2
 RFO step:  Lambda=-1.78960680D-07.
 NNeg= 0 NP= 3 Switch=  2.50D-03 Rises=F DC=  1.85D-05 SmlDif=  1.00D-05
 RMS Error=  0.5892942982D-04 NUsed= 3 EDIIS=F
 DidBck=F Rises=F RFO-DIIS coefs:    1.05881   -0.08151    0.02270
 Iteration  1 RMS(Cart)=  0.00034642 RMS(Int)=  0.00000023
 Iteration  2 RMS(Cart)=  0.00000012 RMS(Int)=  0.00000020
 Iteration  1 RMS(Cart)=  0.00000002 RMS(Int)=  0.00000002
 ITry= 1 IFail=0 DXMaxC= 1.12D-03 DCOld= 1.00D+10 DXMaxT= 3.00D-01 DXLimC= 3.00D+00 Rises=F
 Variable       Old X    -DE/DX   Delta X   Delta X   Delta X     New X
                                 (Linear)    (Quad)   (Total)
    R1        2.51341   0.00001   0.00003   0.00000   0.00003   2.51344
    R2        2.04519   0.00000   0.00002  -0.00001   0.00001   2.04520
    R3        2.04566   0.00000   0.00000   0.00001   0.00000   2.04566
    R4        2.76769  -0.00004   0.00000  -0.00010  -0.00009   2.76759
    R5        2.67244   0.00000  -0.00003  -0.00002  -0.00005   2.67239
    R6        2.52957   0.00004   0.00000   0.00007   0.00006   2.52964
    R7        2.05371   0.00001   0.00002   0.00002   0.00004   2.05374
    R8        2.05264   0.00000   0.00001  -0.00001   0.00000   2.05264
    R9        2.04892   0.00000   0.00001  -0.00001   0.00000   2.04892
    A1        2.11484   0.00004   0.00002   0.00021   0.00024   2.11507
    A2        2.09575  -0.00002  -0.00001  -0.00011  -0.00012   2.09563
    A3        2.07256  -0.00002  -0.00001  -0.00010  -0.00011   2.07245
    A4        2.27530  -0.00004  -0.00013  -0.00012  -0.00025   2.27505
    A5        2.06111   0.00002   0.00006  -0.00005   0.00001   2.06112
    A6        1.94580   0.00004   0.00007   0.00017   0.00024   1.94603
    A7        2.15946   0.00006   0.00000   0.00024   0.00024   2.15970
    A8        2.01472  -0.00001   0.00001   0.00005   0.00005   2.01478
    A9        2.10867  -0.00004  -0.00001  -0.00028  -0.00029   2.10838
   A10        2.12560   0.00002   0.00000   0.00013   0.00013   2.12572
   A11        2.11468  -0.00001   0.00000  -0.00007  -0.00007   2.11461
   A12        2.04288  -0.00001   0.00000  -0.00005  -0.00005   2.04283
    D1        3.13863   0.00038  -0.00002   0.00008   0.00006   3.13869
    D2        0.04901  -0.00037   0.00000   0.00022   0.00022   0.04923
    D3        0.00635   0.00037   0.00001  -0.00023  -0.00022   0.00613
    D4       -3.08327  -0.00038   0.00003  -0.00009  -0.00006  -3.08333
    D5        0.69833  -0.00146   0.00000   0.00000   0.00000   0.69833
    D6       -2.47076  -0.00075  -0.00009   0.00029   0.00020  -2.47056
    D7       -2.49254  -0.00076  -0.00002  -0.00013  -0.00015  -2.49270
    D8        0.62156  -0.00004  -0.00011   0.00015   0.00004   0.62160
    D9        0.02926   0.00038  -0.00003   0.00016   0.00013   0.02940
   D10       -3.11929   0.00040  -0.00005   0.00095   0.00090  -3.11840
   D11       -3.08342  -0.00038   0.00007  -0.00015  -0.00008  -3.08350
   D12        0.05121  -0.00036   0.00004   0.00064   0.00068   0.05189
         Item               Value     Threshold  Converged?
 Maximum Force            0.000055     0.000450     YES
 RMS     Force            0.000023     0.000300     YES
 Maximum Displacement     0.001119     0.001800     YES
 RMS     Displacement     0.000346     0.001200     YES
 Predicted change in Energy=-5.729720D-08
 Optimization completed.
    -- Stationary point found.
                           ----------------------------
                           !   Optimized Parameters   !
                           ! (Angstroms and Degrees)  !
 --------------------------                            --------------------------
 ! Name  Definition              Value          Derivative Info.                !
 --------------------------------------------------------------------------------
 ! R1    R(1,2)                  1.33           -DE/DX =    0.0                 !
 ! R2    R(1,5)                  1.0823         -DE/DX =    0.0                 !
 ! R3    R(1,6)                  1.0825         -DE/DX =    0.0                 !
 ! R4    R(2,3)                  1.4646         -DE/DX =    0.0                 !
 ! R5    R(2,7)                  1.4142         -DE/DX =    0.0                 !
 ! R6    R(3,4)                  1.3386         -DE/DX =    0.0                 !
 ! R7    R(3,8)                  1.0868         -DE/DX =    0.0                 !
 ! R8    R(4,9)                  1.0862         -DE/DX =    0.0                 !
 ! R9    R(4,10)                 1.0842         -DE/DX =    0.0                 !
 ! A1    A(2,1,5)              121.1712         -DE/DX =    0.0                 !
 ! A2    A(2,1,6)              120.0777         -DE/DX =    0.0                 !
 ! A3    A(5,1,6)              118.749          -DE/DX =    0.0                 !
 ! A4    A(1,2,3)              130.365          -DE/DX =    0.0                 !
 ! A5    A(1,2,7)              118.0931         -DE/DX =    0.0                 !
 ! A6    A(3,2,7)              111.486          -DE/DX =    0.0                 !
 ! A7    A(2,3,4)              123.7279         -DE/DX =    0.0001              !
 ! A8    A(2,3,8)              115.4352         -DE/DX =    0.0                 !
 ! A9    A(4,3,8)              120.818          -DE/DX =    0.0                 !
 ! A10   A(3,4,9)              121.7878         -DE/DX =    0.0                 !
 ! A11   A(3,4,10)             121.1625         -DE/DX =    0.0                 !
 ! A12   A(9,4,10)             117.0486         -DE/DX =    0.0                 !
 ! D1    D(5,1,2,3)            179.8301         -DE/DX =    0.0004              !
 ! D2    D(5,1,2,7)              2.8081         -DE/DX =   -0.0004              !
 ! D3    D(6,1,2,3)              0.3636         -DE/DX =    0.0004              !
 ! D4    D(6,1,2,7)           -176.6584         -DE/DX =   -0.0004              !
 ! D5    D(1,2,3,4)             40.0111         -DE/DX =   -0.0015              !
 ! D6    D(1,2,3,8)           -141.5639         -DE/DX =   -0.0007              !
 ! D7    D(7,2,3,4)           -142.8121         -DE/DX =   -0.0008              !
 ! D8    D(7,2,3,8)             35.6128         -DE/DX =    0.0                 !
 ! D9    D(2,3,4,9)              1.6767         -DE/DX =    0.0004              !
 ! D10   D(2,3,4,10)          -178.7223         -DE/DX =    0.0004              !
 ! D11   D(8,3,4,9)           -176.667          -DE/DX =   -0.0004              !
 ! D12   D(8,3,4,10)             2.934          -DE/DX =   -0.0004              !
 --------------------------------------------------------------------------------
 Lowest energy point so far.  Saving SCF results.
 GradGradGradGradGradGradGradGradGradGradGradGradGradGradGradGradGradGrad

 Largest change from initial coordinates is atom    6       0.017 Angstoms.
 Leave Link  103 at Wed May 12 11:56:23 2021, MaxMem=  2147483648 cpu:         0.1
 (Enter /opt/cluster/programs/g09_d.01/g09/l202.exe)
                          Input orientation:                          
 ---------------------------------------------------------------------
 Center     Atomic      Atomic             Coordinates (Angstroms)
 Number     Number       Type             X           Y           Z
 ---------------------------------------------------------------------
      1          6           0       -0.913749   -1.303951    0.088850
      2          6           0       -0.466934   -0.051870    0.048138
      3          6           0        0.879724    0.482178    0.263421
      4          6           0        1.994079   -0.108856   -0.184596
      5          1           0       -1.955524   -1.533190   -0.094063
      6          1           0       -0.234247   -2.115351    0.316340
      7          9           0       -1.403663    0.982349   -0.181806
      8          1           0        0.927272    1.425998    0.800100
      9          1           0        1.961179   -1.024198   -0.768479
     10          1           0        2.972520    0.312814    0.016469
 ---------------------------------------------------------------------
                    Distance matrix (angstroms):
                    1          2          3          4          5
     1  C    0.000000
     2  C    1.330041   0.000000
     3  C    2.537180   1.464596   0.000000
     4  C    3.155707   2.472649   1.338591   0.000000
     5  H    1.082267   2.104859   3.496876   4.199558   0.000000
     6  H    1.082517   2.093807   2.826816   3.040130   1.862831
     7  F    2.353813   1.414194   2.379549   3.568667   2.576856
     8  H    3.368658   2.166414   1.086776   2.112695   4.226918
     9  H    3.013053   2.740076   2.122153   1.086211   4.006803
    10  H    4.209782   3.458879   2.114111   1.084242   5.263608
                    6          7          8          9         10
     6  H    0.000000
     7  F    3.348346   0.000000
     8  H    3.758231   2.567921   0.000000
     9  H    2.680921   3.961386   3.087534   0.000000
    10  H    4.033517   4.431542   2.456888   1.851096   0.000000
 Stoichiometry    C4H5F
 Framework group  C1[X(C4H5F)]
 Deg. of freedom    24
 Full point group                 C1      NOp   1
 RotChk:  IX=0 Diff= 7.16D-16
 Largest Abelian subgroup         C1      NOp   1
 Largest concise Abelian subgroup C1      NOp   1
                         Standard orientation:                         
 ---------------------------------------------------------------------
 Center     Atomic      Atomic             Coordinates (Angstroms)
 Number     Number       Type             X           Y           Z
 ---------------------------------------------------------------------
      1          6           0        0.908844    1.307487    0.092882
      2          6           0        0.466484    0.053841    0.051683
      3          6           0       -0.879120   -0.484634    0.262484
      4          6           0       -1.993832    0.102156   -0.190198
      5          1           0        1.950496    1.540137   -0.086392
      6          1           0        0.225723    2.116755    0.317104
      7          9           0        1.407602   -0.977363   -0.173835
      8          1           0       -0.925412   -1.428119    0.799861
      9          1           0       -1.961915    1.017071   -0.774807
     10          1           0       -2.971558   -0.322689    0.007641
 ---------------------------------------------------------------------
 Rotational constants (GHZ):      9.2662000      3.9508040      2.8729373
 Leave Link  202 at Wed May 12 11:56:23 2021, MaxMem=  2147483648 cpu:         0.0
 (Enter /opt/cluster/programs/g09_d.01/g09/l601.exe)
 Copying SCF densities to generalized density rwf, IOpCl= 0 IROHF=0.

 **********************************************************************

            Population analysis using the SCF density.

 **********************************************************************

 Orbital symmetries:
       Occupied  (A) (A) (A) (A) (A) (A) (A) (A) (A) (A) (A) (A)
                 (A) (A) (A) (A) (A) (A) (A)
       Virtual   (A) (A) (A) (A) (A) (A) (A) (A) (A) (A) (A) (A)
                 (A) (A) (A) (A) (A) (A) (A) (A) (A) (A) (A) (A)
                 (A) (A) (A) (A) (A) (A) (A) (A) (A) (A) (A) (A)
                 (A) (A) (A) (A) (A) (A) (A) (A) (A) (A) (A) (A)
                 (A) (A) (A) (A) (A) (A) (A) (A)
 The electronic state is 1-A.
 Alpha  occ. eigenvalues --  -24.83037 -10.40267 -10.33130 -10.32039 -10.31041
 Alpha  occ. eigenvalues --   -1.31005  -0.93177  -0.85918  -0.74453  -0.65210
 Alpha  occ. eigenvalues --   -0.61413  -0.57858  -0.55512  -0.52947  -0.50640
 Alpha  occ. eigenvalues --   -0.48494  -0.45537  -0.40291  -0.33602
 Alpha virt. eigenvalues --    0.01950   0.07340   0.08214   0.08781   0.10172
 Alpha virt. eigenvalues --    0.11271   0.12187   0.13239   0.14195   0.15204
 Alpha virt. eigenvalues --    0.16667   0.17610   0.18246   0.19027   0.20376
 Alpha virt. eigenvalues --    0.20961   0.22644   0.23358   0.23866   0.27997
 Alpha virt. eigenvalues --    0.29249   0.31512   0.32240   0.38679   0.41061
 Alpha virt. eigenvalues --    0.43106   0.44286   0.46469   0.47961   0.50338
 Alpha virt. eigenvalues --    0.52382   0.69481   0.72019   0.74577   0.77493
 Alpha virt. eigenvalues --    0.80903   0.83229   0.85427   0.88731   0.93166
 Alpha virt. eigenvalues --    0.99694   1.01866   1.05136   1.06948   1.13318
 Alpha virt. eigenvalues --    1.15551   1.16047   1.22996   1.30177   1.33136
 Alpha virt. eigenvalues --    1.39017   1.41223   1.67000   1.82031   1.85753
 Alpha virt. eigenvalues --    2.35934
          Condensed to atoms (all electrons):
               1          2          3          4          5          6
     1  C    6.684485  -0.385556  -0.484646   0.025364   0.397709   0.316062
     2  C   -0.385556   5.700225   0.206511   0.139672  -0.057278   0.012766
     3  C   -0.484646   0.206511   5.957171   0.243483   0.013743   0.004762
     4  C    0.025364   0.139672   0.243483   5.251026  -0.002539   0.005823
     5  H    0.397709  -0.057278   0.013743  -0.002539   0.452567  -0.019732
     6  H    0.316062   0.012766   0.004762   0.005823  -0.019732   0.468114
     7  F   -0.153415   0.297157  -0.153585  -0.014313  -0.002747   0.004147
     8  H    0.012706  -0.015787   0.307281   0.010830  -0.000087   0.000092
     9  H    0.007312   0.003837  -0.054521   0.386872  -0.000014   0.000423
    10  H    0.000000   0.008660  -0.033060   0.376230   0.000001  -0.000011
               7          8          9         10
     1  C   -0.153415   0.012706   0.007312   0.000000
     2  C    0.297157  -0.015787   0.003837   0.008660
     3  C   -0.153585   0.307281  -0.054521  -0.033060
     4  C   -0.014313   0.010830   0.386872   0.376230
     5  H   -0.002747  -0.000087  -0.000014   0.000001
     6  H    0.004147   0.000092   0.000423  -0.000011
     7  F    9.322092  -0.002517   0.000313  -0.000287
     8  H   -0.002517   0.458232   0.002573  -0.003095
     9  H    0.000313   0.002573   0.475315  -0.023367
    10  H   -0.000287  -0.003095  -0.023367   0.475224
 Mulliken charges:
               1
     1  C   -0.420021
     2  C    0.089792
     3  C   -0.007141
     4  C   -0.422449
     5  H    0.218377
     6  H    0.207553
     7  F   -0.296844
     8  H    0.229773
     9  H    0.201257
    10  H    0.199704
 Sum of Mulliken charges =   0.00000
 Mulliken charges with hydrogens summed into heavy atoms:
               1
     1  C    0.005909
     2  C    0.089792
     3  C    0.222632
     4  C   -0.021488
     7  F   -0.296844
 Electronic spatial extent (au):  <R**2>=            432.5124
 Charge=              0.0000 electrons
 Dipole moment (field-independent basis, Debye):
    X=             -1.8620    Y=              1.4900    Z=              0.3638  Tot=              2.4123
 Quadrupole moment (field-independent basis, Debye-Ang):
   XX=            -28.4377   YY=            -28.4753   ZZ=            -31.7019
   XY=              2.9548   XZ=              0.2339   YZ=             -1.6614
 Traceless Quadrupole moment (field-independent basis, Debye-Ang):
   XX=              1.1006   YY=              1.0630   ZZ=             -2.1636
   XY=              2.9548   XZ=              0.2339   YZ=             -1.6614
 Octapole moment (field-independent basis, Debye-Ang**2):
  XXX=              1.2272  YYY=             -2.5133  ZZZ=             -1.6922  XYY=              1.1950
  XXY=              2.3175  XXZ=             -1.3367  XZZ=              3.5737  YZZ=             -3.8212
  YYZ=              1.5599  XYZ=              1.5440
 Hexadecapole moment (field-independent basis, Debye-Ang**3):
 XXXX=           -316.5936 YYYY=           -154.5402 ZZZZ=            -46.1024 XXXY=              4.7661
 XXXZ=             -1.4510 YYYX=             -5.9583 YYYZ=             -0.7959 ZZZX=             -2.0188
 ZZZY=             -1.1449 XXYY=            -83.3463 XXZZ=            -69.8046 YYZZ=            -35.5735
 XXYZ=             -5.2944 YYXZ=             -1.2838 ZZXY=             -5.1170
 N-N= 1.566471445251D+02 E-N=-9.109305772204D+02  KE= 2.536692654666D+02
 No NMR shielding tensors so no spin-rotation constants.
 Leave Link  601 at Wed May 12 11:56:23 2021, MaxMem=  2147483648 cpu:         0.6
 (Enter /opt/cluster/programs/g09_d.01/g09/l9999.exe)
 1\1\GINC-NODE10\FOpt\RwB97XD\6-31+G\C4H5F1\BOITTIER\12-May-2021\0\\#p 
 wB97XD/6-31+G Opt=ModRedun\\B.pdb\\0,1\C,-0.9137490751,-1.3039513294,0
 .0888503311\C,-0.4669336552,-0.0518700147,0.0481383096\C,0.8797243964,
 0.4821782903,0.263421189\C,1.994078659,-0.1088558968,-0.1845955539\H,-
 1.9555241759,-1.5331900416,-0.0940626655\H,-0.2342465136,-2.1153505626
 ,0.3163400294\F,-1.4036626146,0.9823486146,-0.1818060537\H,0.92727156,
 1.425998036,0.800100472\H,1.961178986,-1.0241984201,-0.7684790978\H,2.
 9725204331,0.3128143243,0.0164690398\\Version=ES64L-G09RevD.01\State=1
 -A\HF=-255.0984495\RMSD=5.268e-09\RMSF=8.623e-04\Dipole=0.7300071,-0.5
 88575,0.1463838\Quadrupole=0.8345778,0.7775395,-1.6121173,2.1919298,-0
 .1626384,1.2416844\PG=C01 [X(C4H5F1)]\\@


 ONE OF THE BENEFITS OF A COLLEGE EDUCATION
 IS TO SHOW THE BOY ITS LITTLE AVAIL 
                                    EMERSON IN 'CULTURE'
 Job cpu time:       0 days  0 hours  2 minutes  4.1 seconds.
 File lengths (MBytes):  RWF=      5 Int=      0 D2E=      0 Chk=      2 Scr=      1
 Normal termination of Gaussian 09 at Wed May 12 11:56:23 2021.
