B.pdb                                                                   
FOpt      RwB97XD                                                     6-31+G              
Number of atoms                            I               10
Info1-9                                    I   N=           9
          21          21           0           0           0         110
           2          18        -802
Charge                                     I                0
Multiplicity                               I                1
Number of electrons                        I               38
Number of alpha electrons                  I               19
Number of beta electrons                   I               19
Number of basis functions                  I               75
Number of independent functions            I               75
Number of point charges in /Mol/           I                0
Number of translation vectors              I                0
Atomic numbers                             I   N=          10
           6           6           6           6           1           1
           9           1           1           1
Nuclear charges                            R   N=          10
  6.00000000E+00  6.00000000E+00  6.00000000E+00  6.00000000E+00  1.00000000E+00
  1.00000000E+00  9.00000000E+00  1.00000000E+00  1.00000000E+00  1.00000000E+00
Current cartesian coordinates              R   N=          30
  2.62095661E+00 -1.94627890E+00 -2.73389604E-01  9.33458172E-01 -1.46609592E-01
  1.71113415E-01 -1.74214532E+00 -3.53678999E-01  9.47931930E-01 -3.66781608E+00
 -1.37009004E-01 -6.71010140E-01  4.54747770E+00 -1.49378553E+00 -7.93531170E-01
  2.08098917E+00 -3.91400406E+00 -1.23013416E-01  1.72966652E+00  2.40423185E+00
 -4.17483476E-02 -2.09128047E+00 -6.40154931E-01  2.95363511E+00 -3.35835550E+00
  1.73230256E-01 -2.67576808E+00 -5.61254989E+00 -2.61913431E-01 -3.34609237E-02
Force Field                                I                0
Int Atom Types                             I   N=          10
           0           0           0           0           0           0
           0           0           0           0
MM charges                                 R   N=          10
  0.00000000E+00  0.00000000E+00  0.00000000E+00  0.00000000E+00  0.00000000E+00
  0.00000000E+00  0.00000000E+00  0.00000000E+00  0.00000000E+00  0.00000000E+00
Integer atomic weights                     I   N=          10
          12          12          12          12           1           1
          19           1           1           1
Real atomic weights                        R   N=          10
  1.20000000E+01  1.20000000E+01  1.20000000E+01  1.20000000E+01  1.00782504E+00
  1.00782504E+00  1.89984032E+01  1.00782504E+00  1.00782504E+00  1.00782504E+00
Atom fragment info                         I   N=          10
           0           0           0           0           0           0
           0           0           0           0
Atom residue num                           I   N=          10
           0           0           0           0           0           0
           0           0           0           0
Nuclear spins                              I   N=          10
           0           0           0           0           1           1
           1           1           1           1
Nuclear ZEff                               R   N=          10
 -3.60000000E+00 -3.60000000E+00 -3.60000000E+00 -3.60000000E+00 -1.00000000E+00
 -1.00000000E+00 -6.75000000E+00 -1.00000000E+00 -1.00000000E+00 -1.00000000E+00
Nuclear ZNuc                               R   N=          10
  6.00000000E+00  6.00000000E+00  6.00000000E+00  6.00000000E+00  1.00000000E+00
  1.00000000E+00  9.00000000E+00  1.00000000E+00  1.00000000E+00  1.00000000E+00
Nuclear QMom                               R   N=          10
  0.00000000E+00  0.00000000E+00  0.00000000E+00  0.00000000E+00  0.00000000E+00
  0.00000000E+00  0.00000000E+00  0.00000000E+00  0.00000000E+00  0.00000000E+00
Nuclear GFac                               R   N=          10
  0.00000000E+00  0.00000000E+00  0.00000000E+00  0.00000000E+00  2.79284600E+00
  2.79284600E+00  2.62886700E+00  2.79284600E+00  2.79284600E+00  2.79284600E+00
MicOpt                                     I   N=          10
          -1          -1          -1          -1          -1          -1
          -1          -1          -1          -1
Number of contracted shells                I               30
Number of primitive shells                 I               75
Pure/Cartesian d shells                    I                1
Pure/Cartesian f shells                    I                0
Highest angular momentum                   I                1
Largest degree of contraction              I                6
Shell types                                I   N=          30
           0          -1          -1          -1           0          -1
          -1          -1           0          -1          -1          -1
           0          -1          -1          -1           0           0
           0           0           0          -1          -1          -1
           0           0           0           0           0           0
Number of primitives per shell             I   N=          30
           6           3           1           1           6           3
           1           1           6           3           1           1
           6           3           1           1           3           1
           3           1           6           3           1           1
           3           1           3           1           3           1
Shell to atom map                          I   N=          30
           1           1           1           1           2           2
           2           2           3           3           3           3
           4           4           4           4           5           5
           6           6           7           7           7           7
           8           8           9           9          10          10
Primitive exponents                        R   N=          75
  3.04752488E+03  4.57369518E+02  1.03948685E+02  2.92101553E+01  9.28666296E+00
  3.16392696E+00  7.86827235E+00  1.88128854E+00  5.44249258E-01  1.68714478E-01
  4.38000000E-02  3.04752488E+03  4.57369518E+02  1.03948685E+02  2.92101553E+01
  9.28666296E+00  3.16392696E+00  7.86827235E+00  1.88128854E+00  5.44249258E-01
  1.68714478E-01  4.38000000E-02  3.04752488E+03  4.57369518E+02  1.03948685E+02
  2.92101553E+01  9.28666296E+00  3.16392696E+00  7.86827235E+00  1.88128854E+00
  5.44249258E-01  1.68714478E-01  4.38000000E-02  3.04752488E+03  4.57369518E+02
  1.03948685E+02  2.92101553E+01  9.28666296E+00  3.16392696E+00  7.86827235E+00
  1.88128854E+00  5.44249258E-01  1.68714478E-01  4.38000000E-02  1.87311370E+01
  2.82539436E+00  6.40121692E-01  1.61277759E-01  1.87311370E+01  2.82539436E+00
  6.40121692E-01  1.61277759E-01  7.00171309E+03  1.05136609E+03  2.39285690E+02
  6.73974453E+01  2.15199573E+01  7.40310130E+00  2.08479528E+01  4.80830834E+00
  1.34406986E+00  3.58151393E-01  1.07600000E-01  1.87311370E+01  2.82539436E+00
  6.40121692E-01  1.61277759E-01  1.87311370E+01  2.82539436E+00  6.40121692E-01
  1.61277759E-01  1.87311370E+01  2.82539436E+00  6.40121692E-01  1.61277759E-01
Contraction coefficients                   R   N=          75
  1.83473713E-03  1.40373228E-02  6.88426223E-02  2.32184443E-01  4.67941348E-01
  3.62311985E-01 -1.19332420E-01 -1.60854152E-01  1.14345644E+00  1.00000000E+00
  1.00000000E+00  1.83473713E-03  1.40373228E-02  6.88426223E-02  2.32184443E-01
  4.67941348E-01  3.62311985E-01 -1.19332420E-01 -1.60854152E-01  1.14345644E+00
  1.00000000E+00  1.00000000E+00  1.83473713E-03  1.40373228E-02  6.88426223E-02
  2.32184443E-01  4.67941348E-01  3.62311985E-01 -1.19332420E-01 -1.60854152E-01
  1.14345644E+00  1.00000000E+00  1.00000000E+00  1.83473713E-03  1.40373228E-02
  6.88426223E-02  2.32184443E-01  4.67941348E-01  3.62311985E-01 -1.19332420E-01
 -1.60854152E-01  1.14345644E+00  1.00000000E+00  1.00000000E+00  3.34946043E-02
  2.34726953E-01  8.13757326E-01  1.00000000E+00  3.34946043E-02  2.34726953E-01
  8.13757326E-01  1.00000000E+00  1.81961690E-03  1.39160796E-02  6.84053245E-02
  2.33185760E-01  4.71267439E-01  3.56618546E-01 -1.08506975E-01 -1.46451658E-01
  1.12868858E+00  1.00000000E+00  1.00000000E+00  3.34946043E-02  2.34726953E-01
  8.13757326E-01  1.00000000E+00  3.34946043E-02  2.34726953E-01  8.13757326E-01
  1.00000000E+00  3.34946043E-02  2.34726953E-01  8.13757326E-01  1.00000000E+00
P(S=P) Contraction coefficients            R   N=          75
  0.00000000E+00  0.00000000E+00  0.00000000E+00  0.00000000E+00  0.00000000E+00
  0.00000000E+00  6.89990666E-02  3.16423961E-01  7.44308291E-01  1.00000000E+00
  1.00000000E+00  0.00000000E+00  0.00000000E+00  0.00000000E+00  0.00000000E+00
  0.00000000E+00  0.00000000E+00  6.89990666E-02  3.16423961E-01  7.44308291E-01
  1.00000000E+00  1.00000000E+00  0.00000000E+00  0.00000000E+00  0.00000000E+00
  0.00000000E+00  0.00000000E+00  0.00000000E+00  6.89990666E-02  3.16423961E-01
  7.44308291E-01  1.00000000E+00  1.00000000E+00  0.00000000E+00  0.00000000E+00
  0.00000000E+00  0.00000000E+00  0.00000000E+00  0.00000000E+00  6.89990666E-02
  3.16423961E-01  7.44308291E-01  1.00000000E+00  1.00000000E+00  0.00000000E+00
  0.00000000E+00  0.00000000E+00  0.00000000E+00  0.00000000E+00  0.00000000E+00
  0.00000000E+00  0.00000000E+00  0.00000000E+00  0.00000000E+00  0.00000000E+00
  0.00000000E+00  0.00000000E+00  0.00000000E+00  7.16287242E-02  3.45912103E-01
  7.22469956E-01  1.00000000E+00  1.00000000E+00  0.00000000E+00  0.00000000E+00
  0.00000000E+00  0.00000000E+00  0.00000000E+00  0.00000000E+00  0.00000000E+00
  0.00000000E+00  0.00000000E+00  0.00000000E+00  0.00000000E+00  0.00000000E+00
Coordinates of each shell                  R   N=          90
  2.62095661E+00 -1.94627890E+00 -2.73389604E-01  2.62095661E+00 -1.94627890E+00
 -2.73389604E-01  2.62095661E+00 -1.94627890E+00 -2.73389604E-01  2.62095661E+00
 -1.94627890E+00 -2.73389604E-01  9.33458172E-01 -1.46609592E-01  1.71113415E-01
  9.33458172E-01 -1.46609592E-01  1.71113415E-01  9.33458172E-01 -1.46609592E-01
  1.71113415E-01  9.33458172E-01 -1.46609592E-01  1.71113415E-01 -1.74214532E+00
 -3.53678999E-01  9.47931930E-01 -1.74214532E+00 -3.53678999E-01  9.47931930E-01
 -1.74214532E+00 -3.53678999E-01  9.47931930E-01 -1.74214532E+00 -3.53678999E-01
  9.47931930E-01 -3.66781608E+00 -1.37009004E-01 -6.71010140E-01 -3.66781608E+00
 -1.37009004E-01 -6.71010140E-01 -3.66781608E+00 -1.37009004E-01 -6.71010140E-01
 -3.66781608E+00 -1.37009004E-01 -6.71010140E-01  4.54747770E+00 -1.49378553E+00
 -7.93531170E-01  4.54747770E+00 -1.49378553E+00 -7.93531170E-01  2.08098917E+00
 -3.91400406E+00 -1.23013416E-01  2.08098917E+00 -3.91400406E+00 -1.23013416E-01
  1.72966652E+00  2.40423185E+00 -4.17483476E-02  1.72966652E+00  2.40423185E+00
 -4.17483476E-02  1.72966652E+00  2.40423185E+00 -4.17483476E-02  1.72966652E+00
  2.40423185E+00 -4.17483476E-02 -2.09128047E+00 -6.40154931E-01  2.95363511E+00
 -2.09128047E+00 -6.40154931E-01  2.95363511E+00 -3.35835550E+00  1.73230256E-01
 -2.67576808E+00 -3.35835550E+00  1.73230256E-01 -2.67576808E+00 -5.61254989E+00
 -2.61913431E-01 -3.34609237E-02 -5.61254989E+00 -2.61913431E-01 -3.34609237E-02
Constraint Structure                       R   N=          30
  2.63685263E+00 -1.95212444E+00 -2.67509383E-01  9.31083506E-01 -1.57506594E-01
  1.67877849E-01 -1.74547354E+00 -3.49828204E-01  9.44640327E-01 -3.68969940E+00
 -1.43171826E-01 -6.66789617E-01  4.56417479E+00 -1.48952298E+00 -7.81562134E-01
  2.11444569E+00 -3.92659731E+00 -1.22809273E-01  1.73917915E+00  2.41661422E+00
 -4.76756520E-02 -2.09399947E+00 -6.08019648E-01  2.95736873E+00 -3.40185258E+00
  1.41547585E-01 -2.67983739E+00 -5.63195991E+00 -2.51149179E-01 -1.33941302E-02
Num ILSW                                   I              100
ILSW                                       I   N=         100
           0           1           0           0           2           0
           0           0           0           0        4639          -1
           0           0           0           0           2           0
           0           0           0           0           1           0
           1           0           0           0           0           0
           0           0      100000           0          -1           0
           0           0           0           0           0           0
           0           0           0           1           0           0
           0           0           1           0           0           0
           0           0         121          41           0           0
           0           0          58           0           0           0
           0           0           0          10           0           0
           0           0           0           0           0           0
           0           0           0           0           0           0
           0           0           0           0           0           0
           0           0           0           0           0           0
           0           0           0           0
Num RLSW                                   I               41
RLSW                                       R   N=          41
  1.00000000E+00  1.00000000E+00  1.00000000E+00  1.00000000E+00  1.00000000E+00
  0.00000000E+00  2.00000000E-01  2.22036000E-01  0.00000000E+00  7.77964000E-01
  0.00000000E+00  2.00000000E-01  0.00000000E+00  0.00000000E+00  1.00000000E+00
  0.00000000E+00  0.00000000E+00  1.00000000E+00  0.00000000E+00  0.00000000E+00
  0.00000000E+00  0.00000000E+00  1.00000000E+00  0.00000000E+00  0.00000000E+00
  0.00000000E+00  0.00000000E+00  1.00000000E+00  0.00000000E+00  0.00000000E+00
  0.00000000E+00  0.00000000E+00  1.00000000E+00  0.00000000E+00  0.00000000E+00
  0.00000000E+00  0.00000000E+00  0.00000000E+00  1.00000000E+00  1.00000000E+00
  0.00000000E+00
MxBond                                     I                3
NBond                                      I   N=          10
           3           3           3           3           1           1
           1           1           1           1
IBond                                      I   N=          30
           2           5           6           1           3           7
           2           4           8           3           9          10
           1           0           0           1           0           0
           2           0           0           3           0           0
           4           0           0           4           0           0
RBond                                      R   N=          30
  2.00000000E+00  1.00000000E+00  1.00000000E+00  2.00000000E+00  1.00000000E+00
  1.00000000E+00  1.00000000E+00  2.00000000E+00  1.00000000E+00  2.00000000E+00
  1.00000000E+00  1.00000000E+00  1.00000000E+00  0.00000000E+00  0.00000000E+00
  1.00000000E+00  0.00000000E+00  0.00000000E+00  1.00000000E+00  0.00000000E+00
  0.00000000E+00  1.00000000E+00  0.00000000E+00  0.00000000E+00  1.00000000E+00
  0.00000000E+00  0.00000000E+00  1.00000000E+00  0.00000000E+00  0.00000000E+00
Virial Ratio                               R      2.005642143023202E+00
SCF Energy                                 R     -2.550923721269009E+02
Total Energy                               R     -2.550923721269009E+02
RMS Force                                  R      2.466953998336949E-04
RMS Density                                R      6.289651786017529E-09
External E-field                           R   N=          35
  0.00000000E+00  0.00000000E+00  0.00000000E+00  0.00000000E+00  0.00000000E+00
  0.00000000E+00  0.00000000E+00  0.00000000E+00  0.00000000E+00  0.00000000E+00
  0.00000000E+00  0.00000000E+00  0.00000000E+00  0.00000000E+00  0.00000000E+00
  0.00000000E+00  0.00000000E+00  0.00000000E+00  0.00000000E+00  0.00000000E+00
  0.00000000E+00  0.00000000E+00  0.00000000E+00  0.00000000E+00  0.00000000E+00
  0.00000000E+00  0.00000000E+00  0.00000000E+00  0.00000000E+00  0.00000000E+00
  0.00000000E+00  0.00000000E+00  0.00000000E+00  0.00000000E+00  0.00000000E+00
IOpCl                                      I                0
IROHF                                      I                0
Alpha Orbital Energies                     R   N=          75
 -2.48268122E+01 -1.04004902E+01 -1.03300781E+01 -1.03208088E+01 -1.03077830E+01
 -1.30475761E+00 -9.27075814E-01 -8.62388702E-01 -7.34432704E-01 -6.56912145E-01
 -6.04051261E-01 -5.77556716E-01 -5.61726673E-01 -5.23447139E-01 -5.06609642E-01
 -4.84842084E-01 -4.49602529E-01 -3.77533280E-01 -3.52061619E-01  3.79221979E-02
  5.92869103E-02  7.83464154E-02  8.44629362E-02  9.68562744E-02  1.13552517E-01
  1.16606004E-01  1.33374825E-01  1.38681259E-01  1.42847552E-01  1.59339831E-01
  1.76611999E-01  1.80866045E-01  1.84190796E-01  1.97338337E-01  2.01054662E-01
  2.34047874E-01  2.48116782E-01  2.66159476E-01  2.83817161E-01  2.90574400E-01
  3.10142499E-01  3.26723412E-01  3.89911467E-01  4.08618298E-01  4.32697361E-01
  4.44402650E-01  4.68224663E-01  4.89942991E-01  5.00483035E-01  5.19064805E-01
  6.88341760E-01  7.35941152E-01  7.70857129E-01  7.87458448E-01  8.06634157E-01
  8.22355232E-01  8.51936685E-01  9.09745992E-01  9.13236846E-01  9.36349264E-01
  1.02281717E+00  1.05004244E+00  1.07071016E+00  1.12217175E+00  1.13165962E+00
  1.16765664E+00  1.21660370E+00  1.23784274E+00  1.32580029E+00  1.39764207E+00
  1.47491176E+00  1.68020270E+00  1.83663060E+00  1.85555017E+00  2.36493056E+00
Alpha MO coefficients                      R   N=        5625
  1.11918359E-05 -7.52788537E-05  1.51027355E-04 -1.50403553E-05 -3.50698384E-05
  4.32957457E-05 -2.06144664E-03 -2.26397878E-03  5.68173812E-04  1.21777286E-02
 -2.36320947E-03  2.34039932E-03  5.43672550E-04 -2.46386653E-05  3.38999905E-04
  1.55906316E-04  5.82444695E-04 -1.64487964E-06 -5.11489678E-05  2.30069173E-03
  2.63073063E-03 -7.36050861E-04 -2.39799184E-02  2.68409492E-04 -2.09481575E-04
 -5.32662475E-04 -9.18639145E-06 -2.66988193E-04 -8.96982530E-05 -4.13534425E-05
  6.17762201E-05  1.81069530E-03  1.19061527E-03 -8.50985279E-04 -6.91375065E-04
 -8.11187731E-03  5.23911989E-03  7.49494008E-04  3.33543039E-03  7.62434666E-06
  1.27531486E-04  4.19853548E-05  7.14655600E-05 -6.27316871E-05 -1.55559363E-04
 -3.85900283E-04 -3.43914469E-05  7.11720425E-04  1.62645343E-02  3.28237043E-03
 -4.80524598E-04  2.13373113E-03  3.28039471E-04  1.01004940E-03 -2.72369520E-04
 -1.51292130E-03  9.95026150E-01  2.75855161E-02 -3.68929320E-04 -1.20706693E-03
  1.02419233E-04 -1.52782687E-02  5.64293638E-04  1.97320291E-03 -1.54753820E-04
  9.21755374E-03 -5.73778375E-04 -1.15274852E-03  2.04962394E-04  2.90980190E-06
  5.51851826E-04  1.15249015E-04  4.90602262E-04 -3.43368926E-05 -3.79798256E-04
  4.82605155E-03 -1.15500779E-03  6.82841701E-04 -5.64184299E-04 -1.78844080E-04
  8.52823892E-03 -3.76427797E-03  1.54579700E-03  1.06301976E-03 -2.01545655E-02
  4.19970494E-03 -3.56388573E-03 -1.18241455E-03  9.95505457E-01  3.63526995E-02
  3.84107352E-04  1.02637239E-03 -7.97281923E-05 -3.56609170E-02  3.16247656E-04
  5.56145203E-04 -3.19678328E-04  4.94893817E-02 -5.25953487E-03 -5.43365986E-03
  2.59349002E-03  1.95498105E-03 -1.92565517E-04 -5.23140110E-04 -3.03311172E-05
  1.33759215E-04  3.50167408E-03  4.60461257E-03 -2.44308699E-04 -2.70271666E-04
 -3.43043912E-03 -1.30047871E-02  1.98075171E-04 -3.46921741E-03 -1.59636917E-04
 -6.41794287E-04 -1.58697079E-04  4.09084771E-05  2.52398617E-05  2.52844723E-03
  1.22055869E-03 -1.57078433E-04  6.84420384E-04 -2.48741887E-02 -4.66373490E-03
  7.53620497E-04 -3.73724139E-03 -3.73533010E-05  4.59184124E-04 -2.69453436E-04
 -1.31786088E-03  3.84729829E-05  6.41212515E-04  1.36326155E-05 -8.58300036E-05
 -1.12904441E-05 -5.99012713E-04  6.10753986E-05  7.92273174E-04  2.53524665E-05
  6.51050968E-03 -9.54550192E-04 -4.57964137E-03  2.04413321E-04 -2.15066363E-04
  5.15895953E-04 -2.48923732E-04  2.25870304E-04 -5.94530043E-05  8.33971804E-04
 -5.53717171E-04 -5.41659194E-04  1.56501041E-04  4.25462573E-05 -3.03196962E-05
  2.58282981E-03 -9.16692706E-06  1.36442223E-03  9.83742092E-05 -3.14949643E-02
  5.11035119E-03 -5.15700261E-03 -1.15593475E-03 -1.82067974E-03 -2.40192634E-04
  6.43526541E-04  1.76700084E-05 -2.68977340E-04  4.01248709E-03 -6.84464266E-03
 -9.67115193E-04  1.48424710E-03 -9.26393728E-04  1.52204411E-02 -7.81114960E-03
 -2.65825085E-03  9.94345246E-01  3.64294167E-02  2.34023125E-04  1.22485872E-04
 -4.82395292E-04 -3.56739948E-02 -2.04050421E-03 -8.27248389E-04  4.67255611E-03
  7.64859197E-02  5.89426792E-04  3.38679892E-03 -1.40801866E-02  4.60942129E-02
  3.16786688E-04 -7.00277793E-04  8.18756962E-05 -5.94738224E-04  8.32453779E-03
  4.66068201E-03 -1.33554704E-04  1.51828157E-03 -4.21173078E-02 -8.69506312E-03
  8.28731690E-04 -5.33292518E-03 -1.27028119E-04 -2.03172504E-05 -1.04102831E-04
  3.11486908E-04 -2.19310416E-06 -2.13723329E-04  9.89118938E-05  1.73205758E-04
 -3.17019716E-05  1.86183982E-04 -6.77528482E-05 -8.11908158E-04  4.79304161E-05
  2.27427217E-03 -3.91198316E-04 -7.59305550E-04  1.68797702E-04 -6.21169607E-04
  2.56994844E-03 -3.53026387E-04 -8.57979040E-04 -1.19332263E-04  1.08616970E-03
 -1.80050442E-04 -8.99634390E-05 -1.66497892E-04 -2.15595470E-05  3.09626043E-05
  6.03393382E-04  1.52948186E-03  5.75058107E-04 -4.26483786E-04 -2.68161887E-02
  4.07748265E-03 -4.29826334E-03 -1.57482344E-03  1.17241949E-04 -6.49164487E-04
  2.05008006E-04  3.42033452E-05 -1.64439307E-05  2.64119951E-03 -1.47837782E-03
 -2.88651853E-04  9.07513401E-04 -1.01905823E-02  1.58466190E-02 -6.44064881E-03
 -2.40491147E-03 -4.63379068E-02 -2.84578762E-03  8.33230873E-04 -1.35632043E-04
  8.48674428E-04  9.26637899E-03 -5.76964377E-03  5.39710743E-04 -3.90189058E-03
  1.72947216E-02  1.43475817E-02  1.83911992E-03 -2.75422551E-03  9.94270805E-01
  3.55038367E-02  4.38884299E-04 -5.89052342E-05  3.41193102E-04 -3.19303894E-02
 -3.53772160E-03  4.31402359E-04 -3.02296780E-03  2.13633236E-02  4.86577204E-03
 -6.28243079E-04  5.43851265E-03 -1.41193224E-04 -9.05097276E-04  1.18109764E-04
  6.04099709E-04  4.55703115E-06  1.15464977E-04 -8.77778870E-05 -9.29778608E-06
 -1.42917067E-05 -2.51417534E-04  4.71709152E-04  7.34425506E-05  5.78459208E-05
  5.68944178E-05 -4.06830666E-05  2.72246997E-04 -4.72468874E-04  2.69416971E-05
 -3.93157204E-04 -5.96417883E-04  3.61668942E-03 -6.92509516E-04  4.10322822E-03
  9.95295237E-01  3.56828894E-02 -5.81373916E-04  4.57735957E-04  1.38101150E-04
 -3.25294036E-02  3.83375194E-03 -3.38857908E-03 -1.03252762E-03  1.99345351E-02
 -2.89073245E-03  6.20309305E-03  7.37692245E-04 -5.11406669E-03 -1.52939094E-03
 -8.61406211E-04  9.15121486E-04  2.28429659E-04  9.47365851E-03  5.17529396E-03
 -5.39415740E-03 -1.08777723E-03  2.45222882E-02 -1.67389852E-02 -8.31086043E-04
  5.92999682E-03  4.55528929E-04 -4.55384696E-04 -1.28539583E-04  5.15534557E-05
  1.17463422E-04  2.48421224E-03  2.73208962E-04  9.02421238E-04 -1.55465967E-03
 -1.60132632E-02 -1.75896894E-02  8.65355711E-04 -2.74259679E-03  1.98378635E-04
 -6.10941287E-05  1.36502880E-04 -2.02356832E-05 -4.08463709E-05 -6.26978935E-04
 -1.86675302E-03 -3.21881746E-05  5.86335803E-05 -2.65263761E-02 -4.65455459E-03
  5.05654542E-04 -4.06144849E-03 -7.18661164E-04  3.79603142E-03 -5.73588414E-04
  3.83600481E-03 -1.69552789E-06 -1.52374696E-04  6.20125074E-06  1.15489567E-04
 -2.06230193E-05  2.08164808E-04 -2.50716667E-04 -3.04887645E-04  1.47904361E-04
 -2.77867283E-05  1.60411634E-05  1.80718475E-04 -2.79223140E-04  2.71547117E-05
  5.64788230E-04  1.29261209E-04  2.37621240E-04 -1.11618835E-04 -7.90503626E-04
 -9.95008169E-03  1.90730974E-02 -8.00439203E-03  1.46879621E-02  2.12368743E-03
  3.25417995E-03  2.41212025E-02  2.42298273E-02 -6.70328076E-03 -8.93537598E-02
  2.07882127E-02 -1.37771286E-02 -5.71846293E-03 -5.86532357E-02  1.14498822E-01
  2.92311360E-02  8.95009150E-02 -7.75051169E-03  3.71256652E-02 -2.96051964E-02
 -3.96038873E-02  8.80560624E-03  1.77478229E-01 -8.83748896E-03 -7.20521005E-03
  5.33290642E-03 -8.57079042E-03  1.71023680E-02  1.23918035E-02  5.84117357E-03
 -4.31577536E-03 -1.06061188E-02 -1.41236791E-02  1.12523192E-02  6.08172970E-03
 -1.57982515E-02 -2.96958054E-02 -7.02870624E-03 -7.89028737E-03 -1.72895113E-03
  2.32669961E-03  1.98115201E-03 -2.07163203E-04  1.16437746E-03 -1.74198873E-04
  2.72093017E-03 -5.05268192E-05 -6.07561929E-03 -5.57285589E-02 -1.05529724E-02
  2.76782449E-03 -8.00261856E-03  8.55298012E-04 -1.26816428E-02  3.37328158E-03
  1.63756676E-02 -2.25869434E-01  4.79472732E-01 -2.85980984E-02 -9.22801939E-02
  7.81314177E-03  5.43319597E-01 -2.16365352E-02 -7.27245517E-02  5.98036379E-03
 -1.50578741E-02  4.68808638E-03  1.14418189E-02 -1.82074869E-03  1.81874564E-03
 -4.99076423E-03  5.60573501E-05 -3.98901605E-03  5.99826501E-04  2.37100967E-03
 -8.57353685E-02  1.66128343E-01 -6.17656021E-02  4.53037937E-02  1.57638766E-02
  1.23934786E-01 -3.82694395E-04  9.93670924E-03  1.63211303E-03  8.84845444E-02
 -1.03562690E-02  1.86985666E-02  2.67041789E-03 -1.21247593E-01  2.42813348E-01
 -3.70095049E-02 -7.53316216E-02  7.35002245E-03  1.76773881E-01 -2.90233202E-02
  2.86830789E-03  2.42895805E-03 -1.71469900E-02 -4.35649160E-02  1.38138014E-02
  8.58573808E-03 -1.39894989E-01  2.72440267E-01  8.25486343E-03  4.04775582E-03
 -5.70523784E-02  1.79512240E-01  1.11311111E-03 -5.74069550E-03  4.79665445E-03
 -1.13144341E-01 -1.28226930E-02 -4.57962118E-03  2.13923810E-02 -9.91198549E-02
  1.92401198E-01  6.98032786E-02 -7.42379041E-03  4.79090749E-02  1.35788325E-01
  3.45838049E-03  5.55468152E-04  8.17799092E-04  4.52059600E-02  1.20050153E-02
 -1.12136154E-03  3.61359712E-03  3.54933158E-02 -1.77263642E-03  4.45664135E-02
  1.14222379E-02  4.62699290E-02 -1.04241090E-01 -2.22997843E-02 -5.36728111E-02
  4.87202901E-03 -1.29949541E-01 -8.11161999E-03 -2.33902471E-02  2.04898786E-03
 -2.53548476E-02  7.57931054E-03  8.58470268E-03 -1.54865341E-03  6.72652913E-02
  4.02303693E-03  4.86019972E-02  5.77784117E-03  4.47509841E-02  3.97802491E-03
 -1.39681077E-01  2.69198534E-01 -5.48175135E-02  6.39403754E-02  1.62489979E-02
  2.07216159E-01 -2.84018370E-03 -2.32756425E-03  2.54985894E-04 -6.66341102E-02
  7.77565086E-03 -1.18818643E-02 -1.55425228E-03 -8.81159463E-02  1.82972641E-01
  1.37514590E-01 -1.05003463E-01 -2.72230980E-02  1.18676947E-01  2.81635529E-02
 -1.32290558E-02 -8.38204312E-04 -8.97464536E-02  5.90175092E-02 -1.72824440E-02
 -1.91422485E-02  8.34858495E-02 -1.64759180E-01  1.08995572E-01 -1.72055017E-02
  4.59532118E-02 -1.13363311E-01  2.09174803E-02 -2.72706114E-03 -8.54919612E-03
  1.01444419E-01  6.55394677E-02  7.25236708E-03 -6.63115934E-03  1.16732016E-01
 -2.26333189E-01 -4.61727942E-02  4.08535600E-03 -4.84115196E-02 -1.84072873E-01
 -6.72126282E-03 -5.11883802E-04  4.26389502E-03  5.38627354E-02  4.66410561E-03
 -2.16218314E-03  1.39525447E-02  7.83157960E-02  1.54493526E-02  7.68809921E-02
  1.11871856E-02  2.80567135E-02 -6.41885189E-02  1.69332845E-02 -6.27549730E-02
 -1.73154877E-03 -8.04100474E-02  7.91050104E-03 -3.30283142E-02 -1.08166139E-03
 -1.16957693E-02  2.77949924E-03  3.57692394E-03 -9.71091156E-04 -4.56933780E-02
 -5.51635299E-03 -6.27847543E-02 -5.65619590E-03 -6.82859542E-02 -1.74022248E-02
 -9.20470250E-02  1.80079571E-01  4.95023900E-02 -1.34660926E-02 -1.99407474E-02
  1.66139504E-01  1.74560291E-02 -1.01353283E-02 -5.73250948E-03 -6.53014997E-02
  9.12643307E-03 -1.68986821E-02 -8.24636580E-04  6.84578676E-02 -1.46615553E-01
  1.89694717E-01 -7.52604229E-02 -7.79368972E-02 -1.44866133E-01  5.15327162E-02
 -1.99998786E-02 -2.32597167E-02  5.34017544E-02  2.72237352E-02 -8.78272489E-03
 -8.58546580E-03  7.26647991E-02 -1.48574050E-01 -1.93524198E-01 -9.78774668E-03
 -6.70548000E-02 -1.35423427E-01 -3.63336397E-02 -3.51066420E-03 -2.80392531E-02
  1.40595338E-01 -2.81408078E-02  2.52630169E-03 -2.75714154E-02 -1.18776050E-01
  2.37057221E-01 -6.95751872E-02 -1.07724826E-03 -3.02348180E-02  2.24147881E-01
 -3.03202194E-02 -1.07526022E-03 -8.20171414E-03 -1.20619907E-01 -2.64072843E-02
  2.66649978E-03 -1.94916905E-02  9.55736018E-02  3.42225616E-02  7.52004090E-02
  2.48318000E-02 -2.62727642E-02  6.09690072E-02  9.75519959E-02  8.10349442E-02
 -3.79515684E-02  7.80220097E-02  5.40671900E-02  4.32824721E-02 -2.15077907E-02
  2.73788222E-02 -1.52882427E-03 -7.87651903E-03  1.48797740E-03 -7.29890963E-02
 -2.07089310E-02  1.05992359E-01  4.02443175E-02  1.21181886E-01  4.11592927E-02
 -5.63421503E-02  1.10289199E-01  4.88537469E-02 -1.47425666E-01 -1.13251356E-03
  1.32584604E-01 -5.99690270E-04 -5.46334824E-02  5.06700931E-03  5.44581756E-02
 -1.06806335E-02 -4.77414346E-03  2.10861420E-03  7.78584051E-02 -1.72255811E-01
 -7.22061700E-02 -1.36703997E-01  5.57098362E-02 -1.76834970E-01 -1.25529147E-03
 -2.64191308E-02  1.20119217E-02 -1.24873964E-01  1.58489066E-02  2.99037183E-02
 -1.85904760E-03 -7.58495237E-02  1.51152421E-01 -5.97455092E-02 -4.35353156E-02
  1.29871678E-01  1.75604183E-01 -5.38663794E-04 -2.14156363E-02  5.27724392E-02
  1.58310244E-02  2.72739501E-02 -9.13816849E-03  7.30572223E-03  4.97684308E-02
 -9.92966446E-02  5.55938421E-02 -2.73883535E-02  1.35702357E-01 -1.09036968E-01
  1.59386227E-02 -9.67964719E-03  4.61935086E-02  5.75318986E-02  1.62147368E-02
 -1.04709474E-03  1.33501658E-02  6.29290511E-02  3.50198442E-02  1.16630856E-01
  5.00673158E-02 -4.83526803E-02  1.13532095E-01  8.76302233E-02  3.13569451E-01
  8.56199272E-04  1.42812687E-01  4.95171197E-02  1.81983538E-01  1.68495978E-03
  5.56563263E-02  5.37034546E-04 -1.45837394E-03  4.43328039E-04  1.40006150E-01
  5.98016900E-02 -1.08800524E-01 -5.00464967E-02 -5.29233017E-02 -2.51550734E-02