N.pdb                                                                   
FOpt      RwB97XD                                                     6-31+G              
Number of atoms                            I               13
Info1-9                                    I   N=           9
          24          24           0           0           0         100
           2          18        -802
Charge                                     I                0
Multiplicity                               I                1
Number of electrons                        I               64
Number of alpha electrons                  I               32
Number of beta electrons                   I               32
Number of basis functions                  I              114
Number of independent functions            I              114
Number of point charges in /Mol/           I                0
Number of translation vectors              I                0
Atomic numbers                             I   N=          13
           6           6           1           1           1           6
           8           6           1           1           9           9
           9
Nuclear charges                            R   N=          13
  6.00000000E+00  6.00000000E+00  1.00000000E+00  1.00000000E+00  1.00000000E+00
  6.00000000E+00  8.00000000E+00  6.00000000E+00  1.00000000E+00  1.00000000E+00
  9.00000000E+00  9.00000000E+00  9.00000000E+00
Current cartesian coordinates              R   N=          39
  3.94473338E+00  2.15417630E+00 -7.03847395E-02  2.81275908E+00 -4.16197063E-01
  3.37291548E-01  2.69221534E+00  3.33241865E+00 -1.22163047E+00  5.77065858E+00
  1.96623359E+00 -1.00646436E+00  4.19438132E+00  3.12047642E+00  1.74517909E+00
  2.60239855E-01 -5.77207399E-01  1.69337792E+00  3.89127114E+00 -2.38165208E+00
 -2.96641649E-01 -1.96799859E+00 -7.39827781E-03  2.21230238E-02  1.94471716E-01
  7.45950494E-01  3.27954222E+00  2.84725036E-02 -2.50119616E+00  2.40310425E+00
 -1.97463720E+00  2.49098219E+00 -8.30415583E-01 -4.23357613E+00 -3.59146231E-01
  1.30708388E+00 -2.04831762E+00 -1.52416050E+00 -2.11233965E+00
Force Field                                I                0
Int Atom Types                             I   N=          13
           0           0           0           0           0           0
           0           0           0           0           0           0
           0
MM charges                                 R   N=          13
  0.00000000E+00  0.00000000E+00  0.00000000E+00  0.00000000E+00  0.00000000E+00
  0.00000000E+00  0.00000000E+00  0.00000000E+00  0.00000000E+00  0.00000000E+00
  0.00000000E+00  0.00000000E+00  0.00000000E+00
Integer atomic weights                     I   N=          13
          12          12           1           1           1          12
          16          12           1           1          19          19
          19
Real atomic weights                        R   N=          13
  1.20000000E+01  1.20000000E+01  1.00782504E+00  1.00782504E+00  1.00782504E+00
  1.20000000E+01  1.59949146E+01  1.20000000E+01  1.00782504E+00  1.00782504E+00
  1.89984032E+01  1.89984032E+01  1.89984032E+01
Atom fragment info                         I   N=          13
           0           0           0           0           0           0
           0           0           0           0           0           0
           0
Atom residue num                           I   N=          13
           0           0           0           0           0           0
           0           0           0           0           0           0
           0
Nuclear spins                              I   N=          13
           0           0           1           1           1           0
           0           0           1           1           1           1
           1
Nuclear ZEff                               R   N=          13
 -3.60000000E+00 -3.60000000E+00 -1.00000000E+00 -1.00000000E+00 -1.00000000E+00
 -3.60000000E+00 -5.60000000E+00 -3.60000000E+00 -1.00000000E+00 -1.00000000E+00
 -6.75000000E+00 -6.75000000E+00 -6.75000000E+00
Nuclear ZNuc                               R   N=          13
  6.00000000E+00  6.00000000E+00  1.00000000E+00  1.00000000E+00  1.00000000E+00
  6.00000000E+00  8.00000000E+00  6.00000000E+00  1.00000000E+00  1.00000000E+00
  9.00000000E+00  9.00000000E+00  9.00000000E+00
Nuclear QMom                               R   N=          13
  0.00000000E+00  0.00000000E+00  0.00000000E+00  0.00000000E+00  0.00000000E+00
  0.00000000E+00  0.00000000E+00  0.00000000E+00  0.00000000E+00  0.00000000E+00
  0.00000000E+00  0.00000000E+00  0.00000000E+00
Nuclear GFac                               R   N=          13
  0.00000000E+00  0.00000000E+00  2.79284600E+00  2.79284600E+00  2.79284600E+00
  0.00000000E+00  0.00000000E+00  0.00000000E+00  2.79284600E+00  2.79284600E+00
  2.62886700E+00  2.62886700E+00  2.62886700E+00
MicOpt                                     I   N=          13
          -1          -1          -1          -1          -1          -1
          -1          -1          -1          -1          -1          -1
          -1
Number of contracted shells                I               42
Number of primitive shells                 I              108
Pure/Cartesian d shells                    I                1
Pure/Cartesian f shells                    I                0
Highest angular momentum                   I                1
Largest degree of contraction              I                6
Shell types                                I   N=          42
           0          -1          -1          -1           0          -1
          -1          -1           0           0           0           0
           0           0           0          -1          -1          -1
           0          -1          -1          -1           0          -1
          -1          -1           0           0           0           0
           0          -1          -1          -1           0          -1
          -1          -1           0          -1          -1          -1
Number of primitives per shell             I   N=          42
           6           3           1           1           6           3
           1           1           3           1           3           1
           3           1           6           3           1           1
           6           3           1           1           6           3
           1           1           3           1           3           1
           6           3           1           1           6           3
           1           1           6           3           1           1
Shell to atom map                          I   N=          42
           1           1           1           1           2           2
           2           2           3           3           4           4
           5           5           6           6           6           6
           7           7           7           7           8           8
           8           8           9           9          10          10
          11          11          11          11          12          12
          12          12          13          13          13          13
Primitive exponents                        R   N=         108
  3.04752488E+03  4.57369518E+02  1.03948685E+02  2.92101553E+01  9.28666296E+00
  3.16392696E+00  7.86827235E+00  1.88128854E+00  5.44249258E-01  1.68714478E-01
  4.38000000E-02  3.04752488E+03  4.57369518E+02  1.03948685E+02  2.92101553E+01
  9.28666296E+00  3.16392696E+00  7.86827235E+00  1.88128854E+00  5.44249258E-01
  1.68714478E-01  4.38000000E-02  1.87311370E+01  2.82539436E+00  6.40121692E-01
  1.61277759E-01  1.87311370E+01  2.82539436E+00  6.40121692E-01  1.61277759E-01
  1.87311370E+01  2.82539436E+00  6.40121692E-01  1.61277759E-01  3.04752488E+03
  4.57369518E+02  1.03948685E+02  2.92101553E+01  9.28666296E+00  3.16392696E+00
  7.86827235E+00  1.88128854E+00  5.44249258E-01  1.68714478E-01  4.38000000E-02
  5.48467166E+03  8.25234946E+02  1.88046958E+02  5.29645000E+01  1.68975704E+01
  5.79963534E+00  1.55396162E+01  3.59993359E+00  1.01376175E+00  2.70005823E-01
  8.45000000E-02  3.04752488E+03  4.57369518E+02  1.03948685E+02  2.92101553E+01
  9.28666296E+00  3.16392696E+00  7.86827235E+00  1.88128854E+00  5.44249258E-01
  1.68714478E-01  4.38000000E-02  1.87311370E+01  2.82539436E+00  6.40121692E-01
  1.61277759E-01  1.87311370E+01  2.82539436E+00  6.40121692E-01  1.61277759E-01
  7.00171309E+03  1.05136609E+03  2.39285690E+02  6.73974453E+01  2.15199573E+01
  7.40310130E+00  2.08479528E+01  4.80830834E+00  1.34406986E+00  3.58151393E-01
  1.07600000E-01  7.00171309E+03  1.05136609E+03  2.39285690E+02  6.73974453E+01
  2.15199573E+01  7.40310130E+00  2.08479528E+01  4.80830834E+00  1.34406986E+00
  3.58151393E-01  1.07600000E-01  7.00171309E+03  1.05136609E+03  2.39285690E+02
  6.73974453E+01  2.15199573E+01  7.40310130E+00  2.08479528E+01  4.80830834E+00
  1.34406986E+00  3.58151393E-01  1.07600000E-01
Contraction coefficients                   R   N=         108
  1.83473713E-03  1.40373228E-02  6.88426223E-02  2.32184443E-01  4.67941348E-01
  3.62311985E-01 -1.19332420E-01 -1.60854152E-01  1.14345644E+00  1.00000000E+00
  1.00000000E+00  1.83473713E-03  1.40373228E-02  6.88426223E-02  2.32184443E-01
  4.67941348E-01  3.62311985E-01 -1.19332420E-01 -1.60854152E-01  1.14345644E+00
  1.00000000E+00  1.00000000E+00  3.34946043E-02  2.34726953E-01  8.13757326E-01
  1.00000000E+00  3.34946043E-02  2.34726953E-01  8.13757326E-01  1.00000000E+00
  3.34946043E-02  2.34726953E-01  8.13757326E-01  1.00000000E+00  1.83473713E-03
  1.40373228E-02  6.88426223E-02  2.32184443E-01  4.67941348E-01  3.62311985E-01
 -1.19332420E-01 -1.60854152E-01  1.14345644E+00  1.00000000E+00  1.00000000E+00
  1.83107443E-03  1.39501722E-02  6.84450781E-02  2.32714336E-01  4.70192898E-01
  3.58520853E-01 -1.10777550E-01 -1.48026263E-01  1.13076702E+00  1.00000000E+00
  1.00000000E+00  1.83473713E-03  1.40373228E-02  6.88426223E-02  2.32184443E-01
  4.67941348E-01  3.62311985E-01 -1.19332420E-01 -1.60854152E-01  1.14345644E+00
  1.00000000E+00  1.00000000E+00  3.34946043E-02  2.34726953E-01  8.13757326E-01
  1.00000000E+00  3.34946043E-02  2.34726953E-01  8.13757326E-01  1.00000000E+00
  1.81961690E-03  1.39160796E-02  6.84053245E-02  2.33185760E-01  4.71267439E-01
  3.56618546E-01 -1.08506975E-01 -1.46451658E-01  1.12868858E+00  1.00000000E+00
  1.00000000E+00  1.81961690E-03  1.39160796E-02  6.84053245E-02  2.33185760E-01
  4.71267439E-01  3.56618546E-01 -1.08506975E-01 -1.46451658E-01  1.12868858E+00
  1.00000000E+00  1.00000000E+00  1.81961690E-03  1.39160796E-02  6.84053245E-02
  2.33185760E-01  4.71267439E-01  3.56618546E-01 -1.08506975E-01 -1.46451658E-01
  1.12868858E+00  1.00000000E+00  1.00000000E+00
P(S=P) Contraction coefficients            R   N=         108
  0.00000000E+00  0.00000000E+00  0.00000000E+00  0.00000000E+00  0.00000000E+00
  0.00000000E+00  6.89990666E-02  3.16423961E-01  7.44308291E-01  1.00000000E+00
  1.00000000E+00  0.00000000E+00  0.00000000E+00  0.00000000E+00  0.00000000E+00
  0.00000000E+00  0.00000000E+00  6.89990666E-02  3.16423961E-01  7.44308291E-01
  1.00000000E+00  1.00000000E+00  0.00000000E+00  0.00000000E+00  0.00000000E+00
  0.00000000E+00  0.00000000E+00  0.00000000E+00  0.00000000E+00  0.00000000E+00
  0.00000000E+00  0.00000000E+00  0.00000000E+00  0.00000000E+00  0.00000000E+00
  0.00000000E+00  0.00000000E+00  0.00000000E+00  0.00000000E+00  0.00000000E+00
  6.89990666E-02  3.16423961E-01  7.44308291E-01  1.00000000E+00  1.00000000E+00
  0.00000000E+00  0.00000000E+00  0.00000000E+00  0.00000000E+00  0.00000000E+00
  0.00000000E+00  7.08742682E-02  3.39752839E-01  7.27158577E-01  1.00000000E+00
  1.00000000E+00  0.00000000E+00  0.00000000E+00  0.00000000E+00  0.00000000E+00
  0.00000000E+00  0.00000000E+00  6.89990666E-02  3.16423961E-01  7.44308291E-01
  1.00000000E+00  1.00000000E+00  0.00000000E+00  0.00000000E+00  0.00000000E+00
  0.00000000E+00  0.00000000E+00  0.00000000E+00  0.00000000E+00  0.00000000E+00
  0.00000000E+00  0.00000000E+00  0.00000000E+00  0.00000000E+00  0.00000000E+00
  0.00000000E+00  7.16287242E-02  3.45912103E-01  7.22469956E-01  1.00000000E+00
  1.00000000E+00  0.00000000E+00  0.00000000E+00  0.00000000E+00  0.00000000E+00
  0.00000000E+00  0.00000000E+00  7.16287242E-02  3.45912103E-01  7.22469956E-01
  1.00000000E+00  1.00000000E+00  0.00000000E+00  0.00000000E+00  0.00000000E+00
  0.00000000E+00  0.00000000E+00  0.00000000E+00  7.16287242E-02  3.45912103E-01
  7.22469956E-01  1.00000000E+00  1.00000000E+00
Coordinates of each shell                  R   N=         126
  3.94473362E+00  2.15417628E+00 -7.03847691E-02  3.94473362E+00  2.15417628E+00
 -7.03847691E-02  3.94473362E+00  2.15417628E+00 -7.03847691E-02  3.94473362E+00
  2.15417628E+00 -7.03847691E-02  2.81275918E+00 -4.16197015E-01  3.37291519E-01
  2.81275918E+00 -4.16197015E-01  3.37291519E-01  2.81275918E+00 -4.16197015E-01
  3.37291519E-01  2.81275918E+00 -4.16197015E-01  3.37291519E-01  2.69221565E+00
  3.33241871E+00 -1.22163050E+00  2.69221565E+00  3.33241871E+00 -1.22163050E+00
  5.77065881E+00  1.96623347E+00 -1.00646439E+00  5.77065881E+00  1.96623347E+00
 -1.00646439E+00  4.19438162E+00  3.12047639E+00  1.74517906E+00  4.19438162E+00
  3.12047639E+00  1.74517906E+00  2.60239941E-01 -5.77207207E-01  1.69337789E+00
  2.60239941E-01 -5.77207207E-01  1.69337789E+00  2.60239941E-01 -5.77207207E-01
  1.69337789E+00  2.60239941E-01 -5.77207207E-01  1.69337789E+00  3.89127112E+00
 -2.38165209E+00 -2.96641679E-01  3.89127112E+00 -2.38165209E+00 -2.96641679E-01
  3.89127112E+00 -2.38165209E+00 -2.96641679E-01  3.89127112E+00 -2.38165209E+00
 -2.96641679E-01 -1.96799847E+00 -7.39796041E-03  2.21229943E-02 -1.96799847E+00
 -7.39796041E-03  2.21229943E-02 -1.96799847E+00 -7.39796041E-03  2.21229943E-02
 -1.96799847E+00 -7.39796041E-03  2.21229943E-02  1.94471876E-01  7.45950689E-01
  3.27954220E+00  1.94471876E-01  7.45950689E-01  3.27954220E+00  2.84724810E-02
 -2.50119595E+00  2.40310422E+00  2.84724810E-02 -2.50119595E+00  2.40310422E+00
 -1.97463694E+00  2.49098250E+00 -8.30415612E-01 -1.97463694E+00  2.49098250E+00
 -8.30415612E-01 -1.97463694E+00  2.49098250E+00 -8.30415612E-01 -1.97463694E+00
  2.49098250E+00 -8.30415612E-01 -4.23357603E+00 -3.59145786E-01  1.30708385E+00
 -4.23357603E+00 -3.59145786E-01  1.30708385E+00 -4.23357603E+00 -3.59145786E-01
  1.30708385E+00 -4.23357603E+00 -3.59145786E-01  1.30708385E+00 -2.04831759E+00
 -1.52416018E+00 -2.11233968E+00 -2.04831759E+00 -1.52416018E+00 -2.11233968E+00
 -2.04831759E+00 -1.52416018E+00 -2.11233968E+00 -2.04831759E+00 -1.52416018E+00
 -2.11233968E+00
Constraint Structure                       R   N=          39
  3.94473362E+00  2.15417628E+00 -7.03847691E-02  2.81275918E+00 -4.16197015E-01
  3.37291519E-01  2.69221565E+00  3.33241871E+00 -1.22163050E+00  5.77065881E+00
  1.96623347E+00 -1.00646439E+00  4.19438162E+00  3.12047639E+00  1.74517906E+00
  2.60239941E-01 -5.77207207E-01  1.69337789E+00  3.89127112E+00 -2.38165209E+00
 -2.96641679E-01 -1.96799847E+00 -7.39796041E-03  2.21229943E-02  1.94471876E-01
  7.45950689E-01  3.27954220E+00  2.84724810E-02 -2.50119595E+00  2.40310422E+00
 -1.97463694E+00  2.49098250E+00 -8.30415612E-01 -4.23357603E+00 -3.59145786E-01
  1.30708385E+00 -2.04831759E+00 -1.52416018E+00 -2.11233968E+00
Num ILSW                                   I              100
ILSW                                       I   N=         100
           0           1           0           0           2           0
           0           0           0           0        4639          -1
           0           0           0           0           2           0
           0           0           0           0           1           0
           1           0           0           0           0           0
           0           0      100000           0          -1           0
           0           0           0           0           0           0
           0           0           0           1           0           0
           0           0           1           0           0           0
           0           0         121          41           0           0
           0           0          58           0           0           0
           0           0           0          13           0           0
           0           0           0           0           0           0
           0           0           0           0           0           0
           0           0           0           0           0           0
           0           0           0           0           0           0
           0           0           0           0
Num RLSW                                   I               41
RLSW                                       R   N=          41
  1.00000000E+00  1.00000000E+00  1.00000000E+00  1.00000000E+00  1.00000000E+00
  0.00000000E+00  2.00000000E-01  2.22036000E-01  0.00000000E+00  7.77964000E-01
  0.00000000E+00  2.00000000E-01  0.00000000E+00  0.00000000E+00  1.00000000E+00
  0.00000000E+00  0.00000000E+00  1.00000000E+00  0.00000000E+00  0.00000000E+00
  0.00000000E+00  0.00000000E+00  1.00000000E+00  0.00000000E+00  0.00000000E+00
  0.00000000E+00  0.00000000E+00  1.00000000E+00  0.00000000E+00  0.00000000E+00
  0.00000000E+00  0.00000000E+00  1.00000000E+00  0.00000000E+00  0.00000000E+00
  0.00000000E+00  0.00000000E+00  0.00000000E+00  1.00000000E+00  1.00000000E+00
  0.00000000E+00
MxBond                                     I                4
NBond                                      I   N=          13
           4           3           1           1           1           4
           1           4           1           1           1           1
           1
IBond                                      I   N=          52
           2           3           4           5           1           6
           7           0           1           0           0           0
           1           0           0           0           1           0
           0           0           2           8           9          10
           2           0           0           0           6          11
          12          13           6           0           0           0
           6           0           0           0           8           0
           0           0           8           0           0           0
           8           0           0           0
RBond                                      R   N=          52
  1.00000000E+00  1.00000000E+00  1.00000000E+00  1.00000000E+00  1.00000000E+00
  1.00000000E+00  2.00000000E+00  0.00000000E+00  1.00000000E+00  0.00000000E+00
  0.00000000E+00  0.00000000E+00  1.00000000E+00  0.00000000E+00  0.00000000E+00
  0.00000000E+00  1.00000000E+00  0.00000000E+00  0.00000000E+00  0.00000000E+00
  1.00000000E+00  1.00000000E+00  1.00000000E+00  1.00000000E+00  2.00000000E+00
  0.00000000E+00  0.00000000E+00  0.00000000E+00  1.00000000E+00  1.00000000E+00
  1.00000000E+00  1.00000000E+00  1.00000000E+00  0.00000000E+00  0.00000000E+00
  0.00000000E+00  1.00000000E+00  0.00000000E+00  0.00000000E+00  0.00000000E+00
  1.00000000E+00  0.00000000E+00  0.00000000E+00  0.00000000E+00  1.00000000E+00
  0.00000000E+00  0.00000000E+00  0.00000000E+00  1.00000000E+00  0.00000000E+00
  0.00000000E+00  0.00000000E+00
Virial Ratio                               R      2.005194032672697E+00
SCF Energy                                 R     -5.299260522741736E+02
Total Energy                               R     -5.299260522741736E+02
RMS Force                                  R      3.775433156960599E-04
RMS Density                                R      2.635878411698538E-09
External E-field                           R   N=          35
  0.00000000E+00  0.00000000E+00  0.00000000E+00  0.00000000E+00  0.00000000E+00
  0.00000000E+00  0.00000000E+00  0.00000000E+00  0.00000000E+00  0.00000000E+00
  0.00000000E+00  0.00000000E+00  0.00000000E+00  0.00000000E+00  0.00000000E+00
  0.00000000E+00  0.00000000E+00  0.00000000E+00  0.00000000E+00  0.00000000E+00
  0.00000000E+00  0.00000000E+00  0.00000000E+00  0.00000000E+00  0.00000000E+00
  0.00000000E+00  0.00000000E+00  0.00000000E+00  0.00000000E+00  0.00000000E+00
  0.00000000E+00  0.00000000E+00  0.00000000E+00  0.00000000E+00  0.00000000E+00
IOpCl                                      I                0
IROHF                                      I                0
Alpha Orbital Energies                     R   N=         114
 -2.48903665E+01 -2.48890877E+01 -2.48886582E+01 -1.93050849E+01 -1.05951591E+01
 -1.04386056E+01 -1.03630253E+01 -1.03224236E+01 -1.43825262E+00 -1.35310167E+00
 -1.35268133E+00 -1.19588990E+00 -9.51822769E-01 -8.74440337E-01 -7.98459159E-01
 -7.10067705E-01 -7.01552545E-01 -6.90710083E-01 -6.41181945E-01 -5.94692847E-01
 -5.84622035E-01 -5.73586842E-01 -5.67454491E-01 -5.56600591E-01 -5.41583613E-01
 -5.35640504E-01 -5.24552596E-01 -5.13310207E-01 -5.10377611E-01 -4.96511872E-01
 -4.64200292E-01 -3.69903792E-01  8.32223588E-03  5.65303984E-02  7.84807654E-02
  9.22440961E-02  1.00744235E-01  1.07444893E-01  1.11647986E-01  1.24218789E-01
  1.25313723E-01  1.29835283E-01  1.46795339E-01  1.59374032E-01  1.63068780E-01
  1.65093787E-01  1.73161386E-01  1.82276221E-01  1.83935092E-01  1.94573906E-01
  2.20477678E-01  2.30761364E-01  2.61514854E-01  2.64082539E-01  2.76031576E-01
  2.96602561E-01  3.06078674E-01  3.30954136E-01  3.34429453E-01  3.54224453E-01
  3.68091147E-01  3.82054239E-01  3.84768854E-01  3.86984630E-01  3.99251616E-01
  4.12675048E-01  4.14180320E-01  4.32729763E-01  4.35153711E-01  4.41421182E-01
  4.48093172E-01  4.49693370E-01  4.61154334E-01  4.99751661E-01  5.21239945E-01
  5.40568079E-01  5.45613474E-01  6.79031918E-01  7.39854069E-01  7.56723466E-01
  7.68214410E-01  7.97729107E-01  8.22539555E-01  8.53464413E-01  8.75101089E-01
  8.87941277E-01  9.04723704E-01  9.79116160E-01  1.00027268E+00  1.10813363E+00
  1.16291475E+00  1.17996101E+00  1.21862113E+00  1.22606238E+00  1.29033085E+00
  1.34517048E+00  1.35405771E+00  1.41765577E+00  1.45816272E+00  1.47898582E+00
  1.55948411E+00  1.61110781E+00  1.67357409E+00  1.68867691E+00  1.72252094E+00
  1.74035131E+00  1.81078062E+00  1.83058850E+00  1.84024370E+00  1.85468284E+00
  1.99489569E+00  2.30071936E+00  2.32197806E+00  2.67929061E+00
Alpha MO coefficients                      R   N=       12996
  3.18576817E-06  4.76844065E-05 -2.83808227E-05  9.25668011E-07 -7.88559109E-06
 -1.36524496E-04  1.21081022E-04  4.14515228E-04 -3.48069067E-04  4.43628294E-03
 -9.32449021E-04 -7.36167077E-04 -3.71896927E-05  1.88973243E-05  2.71566439E-04
 -1.78061051E-04  1.02395665E-05 -2.94827031E-05 -4.31021546E-04  1.74878674E-04
  1.12084721E-03  4.49600194E-04  3.75935081E-03 -1.70710097E-03 -1.77291062E-03
  8.32869914E-04  8.09567157E-05 -9.86141550E-04  1.00948491E-05 -3.34670139E-04
  9.72146251E-06  5.26675788E-05  6.23044525E-05  2.92041139E-04  2.02604229E-04
  1.89897914E-05  1.35394939E-04 -1.85909566E-03  4.90118822E-04 -1.89596857E-03
  3.41699930E-04  2.24264886E-03 -4.25433757E-03  8.65833982E-04  3.69893361E-04
 -8.95553222E-06 -1.41711792E-04  4.22490492E-05 -1.37658835E-05  2.52654568E-05
  7.65357116E-04 -3.48538105E-04  2.15335561E-04 -3.55432820E-05  3.75090740E-04
 -3.57033774E-04  3.26440950E-04 -1.87742315E-05 -1.76516537E-04 -7.68915095E-04
 -9.78802030E-05  7.26147809E-04 -2.79481030E-04  6.52261323E-03 -4.55532669E-04
  1.25215727E-03 -6.99457798E-04 -1.40956951E-02 -3.59909464E-03 -6.00636502E-04
 -2.06715234E-03  2.27048798E-04  9.25182133E-04 -1.58600327E-04  8.67252747E-05
  9.94996979E-01  2.79212403E-02  5.08104975E-05 -1.34600199E-03  4.63031795E-04
 -1.64566186E-02 -8.01128640E-05  2.62988859E-03 -8.63530594E-04  1.04799476E-02
  5.90156107E-04 -2.49042593E-03  9.46290295E-04  6.71281160E-03  5.04112526E-04
  3.35763688E-05  2.61590169E-05 -2.85706812E-05 -1.45423424E-03 -6.73027552E-04
 -4.89032620E-04  5.53067585E-04 -8.30210827E-04 -2.17246765E-04 -6.81054514E-04
  5.65805807E-04  6.21579894E-03  5.29889951E-04  9.63149504E-06  2.86449585E-05
  2.67644811E-05 -1.57456003E-03 -4.77917550E-05 -7.83623500E-04 -5.21649396E-04
 -5.49723904E-04  3.78716177E-04 -1.21014240E-03 -1.65346003E-04 -1.21681766E-05
 -1.53217526E-04  2.82607227E-05 -6.87743317E-06 -2.07269562E-05  5.59278629E-04
  1.04639152E-04  4.61341889E-05  2.39079857E-04  5.01642239E-03 -5.22007367E-04
 -1.25702983E-03  1.91892172E-04 -2.45335694E-06 -6.35282797E-05  9.03037876E-05
 -2.41157597E-05  5.00425915E-05 -8.40846718E-04 -4.97482747E-04  3.18316990E-04
 -5.65439880E-04 -6.66179190E-03 -3.31893749E-04 -1.48051499E-03  4.16028111E-04
  4.36131717E-05 -2.87971109E-04 -9.32196138E-06 -2.13117768E-04 -3.52123546E-06
 -5.26724644E-04  7.13026286E-05  2.99615890E-04  1.13882726E-04 -1.56742300E-05
  1.04229464E-04 -2.39575210E-03  2.16910200E-03 -2.87987947E-04  1.59861054E-04
  1.42919233E-02 -2.24809634E-03  8.32331021E-04 -2.37113675E-03 -1.69149721E-06
 -2.38286048E-05 -4.02755979E-06 -6.95023208E-06 -2.26347498E-05  2.20864058E-04
  4.56120676E-05  1.21322598E-04  1.83216846E-04  3.99129195E-04  5.05113800E-05
  2.00694117E-04 -2.59323966E-05 -2.02154080E-04 -9.96467949E-04 -6.62554074E-04
 -1.05199592E-04  2.91130097E-04  8.48933374E-03 -1.72747531E-03 -3.65490485E-05
  6.31702874E-04 -1.48240625E-02 -2.12016180E-03  1.01690740E-03 -3.02784866E-03
  2.72834727E-04 -2.24292455E-04  2.46724331E-04 -3.62564467E-04 -6.77075640E-03
  1.36806086E-04 -2.76958240E-05 -1.58744859E-05  2.09283729E-05 -1.29488488E-03
  4.13091034E-04  8.24053193E-04 -4.71471320E-04 -1.61144591E-03  6.08390785E-04
  8.81804523E-04 -5.84770036E-04  9.94863837E-01  2.78970736E-02  1.26900990E-03
  2.00721787E-04 -7.04895022E-04 -1.64245796E-02 -2.55558494E-03 -4.35440568E-04
  1.49278172E-03  8.91318359E-03  1.96909795E-03  3.01866435E-04 -1.02569256E-03
  1.73827885E-02  7.82563371E-04 -2.43377414E-05  2.00018570E-05  5.41786828E-05
 -1.53395235E-03  3.92485006E-04 -4.14395770E-04 -8.76792394E-04 -1.41349328E-03
  5.58743631E-04 -4.29227669E-04 -9.77451560E-04 -4.85099595E-05 -4.12848470E-04
  1.67006270E-06 -1.58489465E-05  2.09178489E-05  2.71922841E-03 -8.81237486E-04
 -1.01086801E-03  7.68339629E-06  8.88076685E-03 -1.37287631E-03 -2.03426953E-03
  3.76469550E-04  3.60449042E-05  4.57289894E-04 -1.87456105E-04  1.31426496E-04
 -6.05293139E-05 -5.77644527E-04 -1.26059951E-04 -2.28479336E-03  4.94389540E-04
 -4.30757903E-03 -1.43125392E-03 -2.40105799E-03  1.88940050E-04 -1.11891715E-04
 -1.95442605E-04 -2.08103372E-05 -2.60957062E-04 -5.18275011E-05 -1.81974631E-04
  7.19803890E-05  3.87924377E-04  2.18944452E-04 -1.24976882E-04  9.20700794E-05
 -2.40496085E-03  4.70032621E-04  1.76519216E-03  1.45701289E-03 -7.03885631E-05
 -1.85352458E-03 -1.77090152E-04  9.34140651E-04  7.46610726E-07 -5.68022538E-06
 -1.77836816E-06 -1.03046359E-06  9.29386786E-06 -3.81602258E-04  1.15761944E-04
 -3.16796951E-05 -2.34557600E-04 -4.57073575E-04  4.48975546E-05 -3.13957626E-04
  6.81497954E-05 -1.83916555E-04 -9.04004233E-04 -1.60781691E-04 -4.26017601E-04
 -6.47993457E-04  7.05682983E-03  6.07279010E-05 -8.68327697E-04 -1.69031873E-03
 -8.37404833E-03 -2.53369345E-03  8.54988733E-04 -5.91253145E-04 -2.12090987E-04
  2.97615537E-04  2.80256536E-04  1.26205772E-03 -6.04715110E-03  1.79263845E-04
  2.71116707E-06 -3.32051283E-05 -8.24673986E-06 -1.34518574E-03 -5.17108458E-06
  9.82808887E-04  9.51210142E-05 -7.92688175E-04  1.76674990E-04  1.11449125E-03
  5.65559748E-04 -1.73783555E-02 -1.92568779E-04  5.93478037E-07 -1.69927151E-05
 -1.88735656E-05 -9.48255009E-04 -5.81384356E-04  1.55833855E-04  6.89414661E-04
 -9.89837546E-04 -1.30542586E-04  3.34032839E-04  9.42784390E-04  9.94870784E-01
  2.79702448E-02  7.93613713E-05  8.70590439E-04  1.20145802E-03 -1.67041121E-02
 -2.20067995E-04 -1.77605267E-03 -2.37280287E-03  1.01063896E-02  7.41180872E-04
  1.54762330E-03  2.21527623E-03 -1.27660076E-05 -2.95368370E-04 -5.08684292E-06
  1.37666724E-04  2.39855687E-05  2.40316279E-03 -1.99614507E-03 -5.12480751E-05
  8.18060074E-04  9.41570107E-03 -7.80915659E-04 -2.43057030E-03  2.12406120E-04
  2.11747420E-04  1.40423653E-04  7.80593490E-05  8.18699029E-05 -1.81116876E-05
  7.67373690E-03  3.33932275E-03 -8.60841831E-03 -2.07834869E-03 -2.60909230E-02
  1.59228910E-03 -6.62012089E-05 -6.65320523E-04 -8.31340396E-05 -3.62286585E-04
  1.27620953E-04  3.32570051E-04 -1.26393794E-04  1.02408176E-04 -2.02326450E-05
 -3.94029766E-04 -1.86626414E-04 -5.49299544E-05  1.09442768E-04  1.44173598E-03
 -3.86939028E-04  3.59061329E-03 -2.32218523E-04 -1.19876566E-02  7.33969824E-03
 -1.44489662E-03  3.95542532E-03  9.95246685E-01  2.99003967E-02 -1.09140835E-03
  1.85882697E-03  6.11362936E-04 -2.39861054E-02  3.00963724E-03 -4.67822792E-03
 -1.59086745E-03  1.03589318E-02 -1.44310854E-03  7.25306876E-04  1.87939892E-04
  2.30040852E-05  2.06401200E-04  7.89400547E-05  7.71664812E-05  4.98135876E-05
 -9.49740955E-04 -6.61837352E-04 -2.47161994E-03 -1.43088156E-03  2.31783082E-02
  5.02792199E-03 -1.48283561E-03  2.55335138E-03 -3.84181882E-04  2.78488950E-05
  1.53147697E-04  1.68724995E-03 -4.76241890E-06 -1.27893886E-04 -2.95659571E-05
  4.10481654E-05 -4.28262788E-05  4.92854875E-04  9.06561043E-05 -3.27271672E-04
  3.47606637E-04  1.72171433E-03  3.66906488E-04 -1.12902775E-03  9.04603180E-06
 -1.21667847E-06 -2.67289311E-05 -1.88470229E-05 -4.17768245E-05 -2.02203100E-05
  8.84628115E-05  1.32170242E-04  2.88380826E-04  1.19473293E-04 -1.60481166E-04
  1.41951412E-04 -6.31322093E-05 -7.42451572E-06 -3.36874728E-06 -4.73588707E-05
  3.41789625E-05  7.89137545E-06  6.53718188E-05  2.22581915E-04 -6.77311715E-07
 -8.72306191E-05 -3.87671285E-04 -3.67314097E-03  9.42891671E-05 -9.54662786E-04