N.pdb                                                                   
FOpt      RwB97XD                                                     6-31+G              
Number of atoms                            I               13
Info1-9                                    I   N=           9
          24          24           0           0           0         110
           2          18        -802
Charge                                     I                0
Multiplicity                               I                1
Number of electrons                        I               64
Number of alpha electrons                  I               32
Number of beta electrons                   I               32
Number of basis functions                  I              114
Number of independent functions            I              114
Number of point charges in /Mol/           I                0
Number of translation vectors              I                0
Atomic numbers                             I   N=          13
           6           6           1           1           1           6
           8           6           1           1           9           9
           9
Nuclear charges                            R   N=          13
  6.00000000E+00  6.00000000E+00  1.00000000E+00  1.00000000E+00  1.00000000E+00
  6.00000000E+00  8.00000000E+00  6.00000000E+00  1.00000000E+00  1.00000000E+00
  9.00000000E+00  9.00000000E+00  9.00000000E+00
Current cartesian coordinates              R   N=          39
  3.15865875E+00  2.39917596E+00 -4.19833429E-04  2.94141949E+00 -4.27697806E-01
 -4.83318829E-04  2.23906640E+00  3.20932145E+00 -1.66735263E+00  5.15494403E+00
  2.90937871E+00  3.15298192E-03  2.23302827E+00  3.21003381E+00  1.66281570E+00
  3.66597240E-01 -1.74924314E+00 -5.02913952E-03  4.81998383E+00 -1.81318836E+00
  1.33161077E-03 -1.96974949E+00 -1.48749298E-01 -6.40988802E-05  2.91477298E-01
 -2.98599345E+00  1.65155417E+00  2.91732479E-01 -2.97433928E+00 -1.67035730E+00
 -2.14320971E+00  1.40918650E+00  2.11685513E+00 -4.13045897E+00 -1.64355236E+00
 -4.89826780E-03 -2.14318410E+00  1.42283157E+00 -2.10689992E+00
Force Field                                I                0
Int Atom Types                             I   N=          13
           0           0           0           0           0           0
           0           0           0           0           0           0
           0
MM charges                                 R   N=          13
  0.00000000E+00  0.00000000E+00  0.00000000E+00  0.00000000E+00  0.00000000E+00
  0.00000000E+00  0.00000000E+00  0.00000000E+00  0.00000000E+00  0.00000000E+00
  0.00000000E+00  0.00000000E+00  0.00000000E+00
Integer atomic weights                     I   N=          13
          12          12           1           1           1          12
          16          12           1           1          19          19
          19
Real atomic weights                        R   N=          13
  1.20000000E+01  1.20000000E+01  1.00782504E+00  1.00782504E+00  1.00782504E+00
  1.20000000E+01  1.59949146E+01  1.20000000E+01  1.00782504E+00  1.00782504E+00
  1.89984032E+01  1.89984032E+01  1.89984032E+01
Atom fragment info                         I   N=          13
           0           0           0           0           0           0
           0           0           0           0           0           0
           0
Atom residue num                           I   N=          13
           0           0           0           0           0           0
           0           0           0           0           0           0
           0
Nuclear spins                              I   N=          13
           0           0           1           1           1           0
           0           0           1           1           1           1
           1
Nuclear ZEff                               R   N=          13
 -3.60000000E+00 -3.60000000E+00 -1.00000000E+00 -1.00000000E+00 -1.00000000E+00
 -3.60000000E+00 -5.60000000E+00 -3.60000000E+00 -1.00000000E+00 -1.00000000E+00
 -6.75000000E+00 -6.75000000E+00 -6.75000000E+00
Nuclear ZNuc                               R   N=          13
  6.00000000E+00  6.00000000E+00  1.00000000E+00  1.00000000E+00  1.00000000E+00
  6.00000000E+00  8.00000000E+00  6.00000000E+00  1.00000000E+00  1.00000000E+00
  9.00000000E+00  9.00000000E+00  9.00000000E+00
Nuclear QMom                               R   N=          13
  0.00000000E+00  0.00000000E+00  0.00000000E+00  0.00000000E+00  0.00000000E+00
  0.00000000E+00  0.00000000E+00  0.00000000E+00  0.00000000E+00  0.00000000E+00
  0.00000000E+00  0.00000000E+00  0.00000000E+00
Nuclear GFac                               R   N=          13
  0.00000000E+00  0.00000000E+00  2.79284600E+00  2.79284600E+00  2.79284600E+00
  0.00000000E+00  0.00000000E+00  0.00000000E+00  2.79284600E+00  2.79284600E+00
  2.62886700E+00  2.62886700E+00  2.62886700E+00
MicOpt                                     I   N=          13
          -1          -1          -1          -1          -1          -1
          -1          -1          -1          -1          -1          -1
          -1
Number of contracted shells                I               42
Number of primitive shells                 I              108
Pure/Cartesian d shells                    I                1
Pure/Cartesian f shells                    I                0
Highest angular momentum                   I                1
Largest degree of contraction              I                6
Shell types                                I   N=          42
           0          -1          -1          -1           0          -1
          -1          -1           0           0           0           0
           0           0           0          -1          -1          -1
           0          -1          -1          -1           0          -1
          -1          -1           0           0           0           0
           0          -1          -1          -1           0          -1
          -1          -1           0          -1          -1          -1
Number of primitives per shell             I   N=          42
           6           3           1           1           6           3
           1           1           3           1           3           1
           3           1           6           3           1           1
           6           3           1           1           6           3
           1           1           3           1           3           1
           6           3           1           1           6           3
           1           1           6           3           1           1
Shell to atom map                          I   N=          42
           1           1           1           1           2           2
           2           2           3           3           4           4
           5           5           6           6           6           6
           7           7           7           7           8           8
           8           8           9           9          10          10
          11          11          11          11          12          12
          12          12          13          13          13          13
Primitive exponents                        R   N=         108
  3.04752488E+03  4.57369518E+02  1.03948685E+02  2.92101553E+01  9.28666296E+00
  3.16392696E+00  7.86827235E+00  1.88128854E+00  5.44249258E-01  1.68714478E-01
  4.38000000E-02  3.04752488E+03  4.57369518E+02  1.03948685E+02  2.92101553E+01
  9.28666296E+00  3.16392696E+00  7.86827235E+00  1.88128854E+00  5.44249258E-01
  1.68714478E-01  4.38000000E-02  1.87311370E+01  2.82539436E+00  6.40121692E-01
  1.61277759E-01  1.87311370E+01  2.82539436E+00  6.40121692E-01  1.61277759E-01
  1.87311370E+01  2.82539436E+00  6.40121692E-01  1.61277759E-01  3.04752488E+03
  4.57369518E+02  1.03948685E+02  2.92101553E+01  9.28666296E+00  3.16392696E+00
  7.86827235E+00  1.88128854E+00  5.44249258E-01  1.68714478E-01  4.38000000E-02
  5.48467166E+03  8.25234946E+02  1.88046958E+02  5.29645000E+01  1.68975704E+01
  5.79963534E+00  1.55396162E+01  3.59993359E+00  1.01376175E+00  2.70005823E-01
  8.45000000E-02  3.04752488E+03  4.57369518E+02  1.03948685E+02  2.92101553E+01
  9.28666296E+00  3.16392696E+00  7.86827235E+00  1.88128854E+00  5.44249258E-01
  1.68714478E-01  4.38000000E-02  1.87311370E+01  2.82539436E+00  6.40121692E-01
  1.61277759E-01  1.87311370E+01  2.82539436E+00  6.40121692E-01  1.61277759E-01
  7.00171309E+03  1.05136609E+03  2.39285690E+02  6.73974453E+01  2.15199573E+01
  7.40310130E+00  2.08479528E+01  4.80830834E+00  1.34406986E+00  3.58151393E-01
  1.07600000E-01  7.00171309E+03  1.05136609E+03  2.39285690E+02  6.73974453E+01
  2.15199573E+01  7.40310130E+00  2.08479528E+01  4.80830834E+00  1.34406986E+00
  3.58151393E-01  1.07600000E-01  7.00171309E+03  1.05136609E+03  2.39285690E+02
  6.73974453E+01  2.15199573E+01  7.40310130E+00  2.08479528E+01  4.80830834E+00
  1.34406986E+00  3.58151393E-01  1.07600000E-01
Contraction coefficients                   R   N=         108
  1.83473713E-03  1.40373228E-02  6.88426223E-02  2.32184443E-01  4.67941348E-01
  3.62311985E-01 -1.19332420E-01 -1.60854152E-01  1.14345644E+00  1.00000000E+00
  1.00000000E+00  1.83473713E-03  1.40373228E-02  6.88426223E-02  2.32184443E-01
  4.67941348E-01  3.62311985E-01 -1.19332420E-01 -1.60854152E-01  1.14345644E+00
  1.00000000E+00  1.00000000E+00  3.34946043E-02  2.34726953E-01  8.13757326E-01
  1.00000000E+00  3.34946043E-02  2.34726953E-01  8.13757326E-01  1.00000000E+00
  3.34946043E-02  2.34726953E-01  8.13757326E-01  1.00000000E+00  1.83473713E-03
  1.40373228E-02  6.88426223E-02  2.32184443E-01  4.67941348E-01  3.62311985E-01
 -1.19332420E-01 -1.60854152E-01  1.14345644E+00  1.00000000E+00  1.00000000E+00
  1.83107443E-03  1.39501722E-02  6.84450781E-02  2.32714336E-01  4.70192898E-01
  3.58520853E-01 -1.10777550E-01 -1.48026263E-01  1.13076702E+00  1.00000000E+00
  1.00000000E+00  1.83473713E-03  1.40373228E-02  6.88426223E-02  2.32184443E-01
  4.67941348E-01  3.62311985E-01 -1.19332420E-01 -1.60854152E-01  1.14345644E+00
  1.00000000E+00  1.00000000E+00  3.34946043E-02  2.34726953E-01  8.13757326E-01
  1.00000000E+00  3.34946043E-02  2.34726953E-01  8.13757326E-01  1.00000000E+00
  1.81961690E-03  1.39160796E-02  6.84053245E-02  2.33185760E-01  4.71267439E-01
  3.56618546E-01 -1.08506975E-01 -1.46451658E-01  1.12868858E+00  1.00000000E+00
  1.00000000E+00  1.81961690E-03  1.39160796E-02  6.84053245E-02  2.33185760E-01
  4.71267439E-01  3.56618546E-01 -1.08506975E-01 -1.46451658E-01  1.12868858E+00
  1.00000000E+00  1.00000000E+00  1.81961690E-03  1.39160796E-02  6.84053245E-02
  2.33185760E-01  4.71267439E-01  3.56618546E-01 -1.08506975E-01 -1.46451658E-01
  1.12868858E+00  1.00000000E+00  1.00000000E+00
P(S=P) Contraction coefficients            R   N=         108
  0.00000000E+00  0.00000000E+00  0.00000000E+00  0.00000000E+00  0.00000000E+00
  0.00000000E+00  6.89990666E-02  3.16423961E-01  7.44308291E-01  1.00000000E+00
  1.00000000E+00  0.00000000E+00  0.00000000E+00  0.00000000E+00  0.00000000E+00
  0.00000000E+00  0.00000000E+00  6.89990666E-02  3.16423961E-01  7.44308291E-01
  1.00000000E+00  1.00000000E+00  0.00000000E+00  0.00000000E+00  0.00000000E+00
  0.00000000E+00  0.00000000E+00  0.00000000E+00  0.00000000E+00  0.00000000E+00
  0.00000000E+00  0.00000000E+00  0.00000000E+00  0.00000000E+00  0.00000000E+00
  0.00000000E+00  0.00000000E+00  0.00000000E+00  0.00000000E+00  0.00000000E+00
  6.89990666E-02  3.16423961E-01  7.44308291E-01  1.00000000E+00  1.00000000E+00
  0.00000000E+00  0.00000000E+00  0.00000000E+00  0.00000000E+00  0.00000000E+00
  0.00000000E+00  7.08742682E-02  3.39752839E-01  7.27158577E-01  1.00000000E+00
  1.00000000E+00  0.00000000E+00  0.00000000E+00  0.00000000E+00  0.00000000E+00
  0.00000000E+00  0.00000000E+00  6.89990666E-02  3.16423961E-01  7.44308291E-01
  1.00000000E+00  1.00000000E+00  0.00000000E+00  0.00000000E+00  0.00000000E+00
  0.00000000E+00  0.00000000E+00  0.00000000E+00  0.00000000E+00  0.00000000E+00
  0.00000000E+00  0.00000000E+00  0.00000000E+00  0.00000000E+00  0.00000000E+00
  0.00000000E+00  7.16287242E-02  3.45912103E-01  7.22469956E-01  1.00000000E+00
  1.00000000E+00  0.00000000E+00  0.00000000E+00  0.00000000E+00  0.00000000E+00
  0.00000000E+00  0.00000000E+00  7.16287242E-02  3.45912103E-01  7.22469956E-01
  1.00000000E+00  1.00000000E+00  0.00000000E+00  0.00000000E+00  0.00000000E+00
  0.00000000E+00  0.00000000E+00  0.00000000E+00  7.16287242E-02  3.45912103E-01
  7.22469956E-01  1.00000000E+00  1.00000000E+00
Coordinates of each shell                  R   N=         126
  3.15865875E+00  2.39917596E+00 -4.19833429E-04  3.15865875E+00  2.39917596E+00
 -4.19833429E-04  3.15865875E+00  2.39917596E+00 -4.19833429E-04  3.15865875E+00
  2.39917596E+00 -4.19833429E-04  2.94141949E+00 -4.27697806E-01 -4.83318829E-04
  2.94141949E+00 -4.27697806E-01 -4.83318829E-04  2.94141949E+00 -4.27697806E-01
 -4.83318829E-04  2.94141949E+00 -4.27697806E-01 -4.83318829E-04  2.23906640E+00
  3.20932145E+00 -1.66735263E+00  2.23906640E+00  3.20932145E+00 -1.66735263E+00
  5.15494403E+00  2.90937871E+00  3.15298192E-03  5.15494403E+00  2.90937871E+00
  3.15298192E-03  2.23302827E+00  3.21003381E+00  1.66281570E+00  2.23302827E+00
  3.21003381E+00  1.66281570E+00  3.66597240E-01 -1.74924314E+00 -5.02913952E-03
  3.66597240E-01 -1.74924314E+00 -5.02913952E-03  3.66597240E-01 -1.74924314E+00
 -5.02913952E-03  3.66597240E-01 -1.74924314E+00 -5.02913952E-03  4.81998383E+00
 -1.81318836E+00  1.33161077E-03  4.81998383E+00 -1.81318836E+00  1.33161077E-03
  4.81998383E+00 -1.81318836E+00  1.33161077E-03  4.81998383E+00 -1.81318836E+00
  1.33161077E-03 -1.96974949E+00 -1.48749298E-01 -6.40988802E-05 -1.96974949E+00
 -1.48749298E-01 -6.40988802E-05 -1.96974949E+00 -1.48749298E-01 -6.40988802E-05
 -1.96974949E+00 -1.48749298E-01 -6.40988802E-05  2.91477298E-01 -2.98599345E+00
  1.65155417E+00  2.91477298E-01 -2.98599345E+00  1.65155417E+00  2.91732479E-01
 -2.97433928E+00 -1.67035730E+00  2.91732479E-01 -2.97433928E+00 -1.67035730E+00
 -2.14320971E+00  1.40918650E+00  2.11685513E+00 -2.14320971E+00  1.40918650E+00
  2.11685513E+00 -2.14320971E+00  1.40918650E+00  2.11685513E+00 -2.14320971E+00
  1.40918650E+00  2.11685513E+00 -4.13045897E+00 -1.64355236E+00 -4.89826780E-03
 -4.13045897E+00 -1.64355236E+00 -4.89826780E-03 -4.13045897E+00 -1.64355236E+00
 -4.89826780E-03 -4.13045897E+00 -1.64355236E+00 -4.89826780E-03 -2.14318410E+00
  1.42283157E+00 -2.10689992E+00 -2.14318410E+00  1.42283157E+00 -2.10689992E+00
 -2.14318410E+00  1.42283157E+00 -2.10689992E+00 -2.14318410E+00  1.42283157E+00
 -2.10689992E+00
Constraint Structure                       R   N=          39
  3.15721306E+00  2.39926446E+00 -5.51859085E-04  2.94121168E+00 -4.27658117E-01
 -9.20355681E-04  2.23778193E+00  3.20922754E+00 -1.66767203E+00  5.15319282E+00
  2.91066970E+00  4.17812543E-03  2.23017200E+00  3.20907825E+00  1.66247706E+00
  3.66718710E-01 -1.74971618E+00 -5.38388881E-03  4.82020794E+00 -1.81260628E+00
  1.52306021E-03 -1.96951947E+00 -1.48963175E-01 -1.89563153E-05  2.92006493E-01
 -2.98638130E+00  1.65129744E+00  2.92038618E-01 -2.97492390E+00 -1.67068804E+00
 -2.14194941E+00  1.40948641E+00  2.11660281E+00 -4.13054036E+00 -1.64335481E+00
 -3.99682982E-03 -2.14313238E+00  1.42227041E+00 -2.10710895E+00
Num ILSW                                   I              100
ILSW                                       I   N=         100
           0           1           0           0           2           0
           0           0           0           0        4639          -1
           0           0           0           0           2           0
           0           0           0           0           1           0
           1           0           0           0           0           0
           0           0      100000           0          -1           0
           0           0           0           0           0           0
           0           0           0           1           0           0
           0           0           1           0           0           0
           0           0         121          41           0           0
           0           0          58           0           0           0
           0           0           0          13           0           0
           0           0           0           0           0           0
           0           0           0           0           0           0
           0           0           0           0           0           0
           0           0           0           0           0           0
           0           0           0           0
Num RLSW                                   I               41
RLSW                                       R   N=          41
  1.00000000E+00  1.00000000E+00  1.00000000E+00  1.00000000E+00  1.00000000E+00
  0.00000000E+00  2.00000000E-01  2.22036000E-01  0.00000000E+00  7.77964000E-01
  0.00000000E+00  2.00000000E-01  0.00000000E+00  0.00000000E+00  1.00000000E+00
  0.00000000E+00  0.00000000E+00  1.00000000E+00  0.00000000E+00  0.00000000E+00
  0.00000000E+00  0.00000000E+00  1.00000000E+00  0.00000000E+00  0.00000000E+00
  0.00000000E+00  0.00000000E+00  1.00000000E+00  0.00000000E+00  0.00000000E+00
  0.00000000E+00  0.00000000E+00  1.00000000E+00  0.00000000E+00  0.00000000E+00
  0.00000000E+00  0.00000000E+00  0.00000000E+00  1.00000000E+00  1.00000000E+00
  0.00000000E+00
MxBond                                     I                4
NBond                                      I   N=          13
           4           3           1           1           1           4
           1           4           1           1           1           1
           1
IBond                                      I   N=          52
           2           3           4           5           1           6
           7           0           1           0           0           0
           1           0           0           0           1           0
           0           0           2           8           9          10
           2           0           0           0           6          11
          12          13           6           0           0           0
           6           0           0           0           8           0
           0           0           8           0           0           0
           8           0           0           0
RBond                                      R   N=          52
  1.00000000E+00  1.00000000E+00  1.00000000E+00  1.00000000E+00  1.00000000E+00
  1.00000000E+00  2.00000000E+00  0.00000000E+00  1.00000000E+00  0.00000000E+00
  0.00000000E+00  0.00000000E+00  1.00000000E+00  0.00000000E+00  0.00000000E+00
  0.00000000E+00  1.00000000E+00  0.00000000E+00  0.00000000E+00  0.00000000E+00
  1.00000000E+00  1.00000000E+00  1.00000000E+00  1.00000000E+00  2.00000000E+00
  0.00000000E+00  0.00000000E+00  0.00000000E+00  1.00000000E+00  1.00000000E+00
  1.00000000E+00  1.00000000E+00  1.00000000E+00  0.00000000E+00  0.00000000E+00
  0.00000000E+00  1.00000000E+00  0.00000000E+00  0.00000000E+00  0.00000000E+00
  1.00000000E+00  0.00000000E+00  0.00000000E+00  0.00000000E+00  1.00000000E+00
  0.00000000E+00  0.00000000E+00  0.00000000E+00  1.00000000E+00  0.00000000E+00
  0.00000000E+00  0.00000000E+00
Virial Ratio                               R      2.005193655819083E+00
SCF Energy                                 R     -5.299273549347594E+02
Total Energy                               R     -5.299273549347594E+02
RMS Force                                  R      9.260291460342321E-06
RMS Density                                R      7.676171913642985E-09
External E-field                           R   N=          35
  0.00000000E+00  0.00000000E+00  0.00000000E+00  0.00000000E+00  0.00000000E+00
  0.00000000E+00  0.00000000E+00  0.00000000E+00  0.00000000E+00  0.00000000E+00
  0.00000000E+00  0.00000000E+00  0.00000000E+00  0.00000000E+00  0.00000000E+00
  0.00000000E+00  0.00000000E+00  0.00000000E+00  0.00000000E+00  0.00000000E+00
  0.00000000E+00  0.00000000E+00  0.00000000E+00  0.00000000E+00  0.00000000E+00
  0.00000000E+00  0.00000000E+00  0.00000000E+00  0.00000000E+00  0.00000000E+00
  0.00000000E+00  0.00000000E+00  0.00000000E+00  0.00000000E+00  0.00000000E+00
IOpCl                                      I                0
IROHF                                      I                0
Alpha Orbital Energies                     R   N=         114
 -2.48930472E+01 -2.48930136E+01 -2.48911374E+01 -1.93011424E+01 -1.05954234E+01
 -1.04400291E+01 -1.03650098E+01 -1.03195096E+01 -1.44072690E+00 -1.35605001E+00
 -1.35518016E+00 -1.19409815E+00 -9.52212345E-01 -8.72170780E-01 -8.02991596E-01
 -7.11343065E-01 -7.04769108E-01 -6.93120852E-01 -6.42443595E-01 -5.98791922E-01
 -5.84495784E-01 -5.77291646E-01 -5.71150412E-01 -5.49859355E-01 -5.41911874E-01
 -5.37595275E-01 -5.31368766E-01 -5.22788645E-01 -5.04333612E-01 -4.95431922E-01
 -4.58235047E-01 -3.69512500E-01  1.43502065E-02  6.20633739E-02  8.18733883E-02
  9.66575515E-02  1.00813807E-01  1.05643736E-01  1.13298313E-01  1.13735335E-01
  1.29894468E-01  1.33524313E-01  1.37975693E-01  1.62576118E-01  1.63517733E-01
  1.76288073E-01  1.76752043E-01  1.82620466E-01  1.85053538E-01  2.12409969E-01
  2.17597731E-01  2.32149109E-01  2.39895266E-01  2.67275413E-01  2.80881560E-01
  2.96399664E-01  3.08269539E-01  3.28741306E-01  3.40890035E-01  3.44761953E-01
  3.51824207E-01  3.71536023E-01  3.81865099E-01  3.85179061E-01  3.95293550E-01
  4.00093679E-01  4.18230207E-01  4.30108645E-01  4.34442185E-01  4.46876548E-01
  4.48441738E-01  4.49291930E-01  4.84377541E-01  4.95566914E-01  5.14255626E-01
  5.22179252E-01  5.47736322E-01  7.26623955E-01  7.38392609E-01  7.51588178E-01
  7.62665007E-01  8.06850561E-01  8.29645160E-01  8.36698212E-01  8.63495305E-01
  9.16260771E-01  9.26162716E-01  9.33141846E-01  1.08199411E+00  1.11298007E+00
  1.15744720E+00  1.16065048E+00  1.18121810E+00  1.22537365E+00  1.23396964E+00
  1.33639787E+00  1.37966740E+00  1.43199436E+00  1.48153358E+00  1.50945461E+00
  1.55734982E+00  1.57890105E+00  1.65643991E+00  1.68566545E+00  1.68967826E+00
  1.74748795E+00  1.79473118E+00  1.82356751E+00  1.83950584E+00  1.85754435E+00
  1.96392175E+00  2.27790038E+00  2.34272531E+00  2.71718826E+00
Alpha MO coefficients                      R   N=       12996
  5.31130476E-05  5.62867004E-04 -2.63281116E-04 -1.81736452E-05 -3.78847306E-06
 -1.15656413E-03  1.44602264E-03  4.61630486E-04 -2.61796071E-05  9.98203995E-03
 -1.51267980E-03 -1.83745499E-03 -1.21999458E-04 -2.72609720E-05 -6.37704720E-05
 -1.17861783E-04  3.85184711E-05 -6.22801035E-06  3.36636458E-03 -5.62988971E-04
 -5.17306588E-04 -4.95819137E-05 -7.57605072E-03  1.44762971E-03 -4.38644191E-03
  2.09397474E-04  2.22609429E-04  6.45150632E-06 -5.21403507E-05 -7.47420273E-04
  2.00471330E-04  3.20918776E-04  1.29199759E-04  6.91566520E-04  2.45431367E-04
 -1.89697650E-04 -2.29608548E-05 -4.83356404E-03  1.67945238E-04 -1.98436089E-03
  4.28214337E-04  2.54821996E-02 -6.76337599E-03  5.08397596E-03 -1.80546569E-04
  1.04582445E-05  1.50181060E-04 -5.70092605E-05  3.81354328E-05 -1.14954910E-06
 -7.28970271E-04  5.73931560E-04 -2.88486240E-04  1.92875137E-05 -9.08640291E-04
 -1.87019305E-04  3.09639283E-04 -6.97967703E-05 -2.64207767E-04 -1.24291507E-03
 -2.75654016E-04  6.17974273E-04 -1.87464970E-04  9.72544463E-03 -1.24034200E-05
  1.71908181E-03 -2.46803045E-04 -3.25591168E-02 -8.18370135E-03  2.69225681E-03
  3.40513885E-04  1.44440786E-04 -1.66330495E-05  2.51771266E-04  1.63435508E-04
  5.33098014E-01  1.53782073E-02  9.87186930E-05 -4.53422852E-04 -6.58423907E-04
 -1.05203096E-02 -3.00684085E-04  1.07166377E-03  2.11048984E-03  5.50736382E-03
  7.03012555E-04 -9.69007992E-04 -1.37557494E-04  4.85816990E-03  5.23417537E-04
  3.90390810E-05  3.95471533E-05 -4.07160826E-06 -1.68994180E-03 -8.35836967E-04
 -9.44661176E-04  8.72815602E-05 -1.34577829E-03 -3.49588236E-04 -9.83981985E-04
  1.56512262E-04  8.40206338E-01  2.38865995E-02  1.37526315E-04 -7.13615568E-04
  1.00050198E-03 -1.51519052E-02 -3.64565522E-04  1.49075839E-03 -2.51933722E-03
  9.03144723E-03  8.29788561E-04 -1.40798837E-03  1.23903899E-03  1.13475780E-05
  1.21561490E-04 -5.80054702E-05 -4.75455924E-06  1.72319467E-05 -2.33231618E-04
  3.09373299E-04  9.77382039E-05  1.24524507E-04  2.31846178E-03 -3.52371851E-04
 -4.31791648E-04  5.68125415E-04 -5.78370358E-06 -1.12915932E-05 -2.69246622E-05
  9.06174627E-06  2.82230038E-05  7.38095410E-04 -1.13348209E-04 -1.30657253E-04
  2.15540418E-04 -1.84459842E-03  3.53980993E-04 -9.99164797E-04 -9.51159926E-04
 -6.73441527E-06  7.37828469E-04 -1.13770534E-05 -1.63545553E-04  9.86293076E-05
 -6.79259569E-04  2.85797898E-05  1.52182998E-04  5.53685085E-05 -4.28549031E-05
  1.00018433E-04 -1.06369422E-03  3.34804788E-05 -4.27251319E-04 -1.94728072E-03
  5.85212874E-03 -1.51950208E-03  1.16639759E-03  8.69714619E-04  2.40264904E-06
  3.42642350E-05 -1.27537344E-05  8.45557033E-06  3.96046834E-06 -1.70470569E-04
  1.30416498E-04 -6.47736818E-05 -8.01328675E-05 -2.01928019E-04 -4.47546558E-05
  6.84228785E-05  3.10963658E-04 -5.88485454E-05 -2.76476572E-04 -6.16903365E-05
  1.35465490E-04  8.46611291E-04  2.16232392E-03 -7.97092881E-06  3.82883794E-04
  1.14720323E-03 -7.37334146E-03 -1.85036424E-03  6.12237950E-04 -1.47960889E-03
  2.83508063E-04  4.21325278E-04 -1.95188099E-04 -3.90618278E-04  8.40181116E-01
  2.34114084E-02  1.13294447E-04 -6.96965876E-04 -9.61194525E-04 -1.32176776E-02
 -2.16447902E-04  1.18586156E-03  1.45354521E-03  9.47305881E-03  4.49214918E-04
 -1.22073551E-03 -2.61537930E-03  1.09452143E-03  1.16846452E-04  8.65489136E-06
  8.78478794E-06  1.88299705E-05 -3.76333675E-04 -1.86046312E-04 -2.09752947E-04
 -4.05189446E-04 -3.01752893E-04 -7.93071349E-05 -2.18237416E-04 -7.12572139E-04
 -5.33058433E-01 -1.46309862E-02 -6.07415947E-05  4.41259941E-04 -5.86478991E-04
  7.47931853E-03  6.95006623E-05 -6.19917463E-04  4.13843778E-04 -6.21544693E-03
 -1.10458632E-04  7.05481708E-04 -2.30214190E-03  4.96167494E-06 -2.56791321E-05
  7.96651082E-05  2.27764445E-05  4.41814061E-07 -1.08664285E-03 -2.13110209E-04
  8.01097285E-04 -4.27451811E-06 -6.25551928E-03  8.70777112E-04  1.43138387E-03
 -2.89332994E-07 -6.26137003E-06 -1.40699407E-04  5.03430936E-05 -9.01961822E-05
 -2.11110747E-07 -9.77107396E-04 -1.48571849E-04  2.28243125E-03  2.83012235E-06
  6.38361216E-03 -1.42040512E-03  2.09454078E-03 -3.79401762E-06  1.85366302E-05
 -1.70326166E-04  2.41652140E-05  2.10087033E-04  1.77935638E-05 -1.60534644E-04
  6.24808049E-05  2.35760376E-04  7.32887022E-05 -7.26774025E-05 -6.83071146E-07
 -2.00146255E-03  3.43792285E-03 -3.18822734E-04  3.75264553E-06  3.85141612E-03
 -3.06226052E-06  1.11602741E-05  7.20959015E-06 -1.08473347E-05 -1.35508025E-04
  1.41430701E-05 -8.59722476E-06  1.52167745E-07  1.11021073E-03 -4.39326715E-04
  8.34927277E-05 -1.39301126E-06 -2.16190887E-04  6.03904624E-04  1.25383922E-05
  1.77014678E-06 -2.14354473E-04 -1.08445395E-03 -6.02849944E-04 -3.51551625E-04
 -1.07717704E-06  9.41178448E-03 -1.71030525E-03 -1.26980722E-03 -5.22038625E-06
 -5.48082869E-03 -4.29741718E-04  1.96405380E-03  6.07018917E-07  2.06592155E-04
 -2.59472853E-04  2.07300448E-04 -2.55883295E-04 -3.48158874E-03  1.83628777E-04
 -2.81918976E-05 -3.39450768E-05 -1.30236748E-05 -1.15045598E-03  3.75755661E-04
  7.55362696E-04  6.42906798E-04 -2.15823766E-03  4.95700958E-04  1.00237046E-03
  6.96816493E-04  9.95029601E-01  2.79613898E-02  1.22264523E-03  8.30584848E-04
  2.64104501E-06 -1.67271897E-02 -2.55100943E-03 -1.78166480E-03 -5.63119974E-06
  8.82497475E-03  2.03940204E-03  1.19796557E-03  4.08296263E-06 -3.47041495E-03
  1.84553916E-04 -2.79399218E-05 -3.39431237E-05  1.27956726E-05 -1.15337514E-03
  3.74384354E-04  7.59291624E-04 -6.38128445E-04 -2.15414072E-03  5.01281296E-04
  1.00765338E-03 -6.87900651E-04 -1.54644076E-05 -2.95608524E-04 -1.11401093E-04
  1.29809011E-04 -3.02635492E-07  2.59426718E-03 -1.71992182E-03 -9.01410157E-04
  7.88228004E-07  1.86447008E-02 -3.65471540E-04 -4.66795939E-03 -1.04950112E-06
  2.24828082E-04  3.78177980E-04 -7.28312386E-05  1.38772537E-04  1.92447771E-07
  7.57590495E-03  6.44888791E-03 -6.85096371E-03  6.60688699E-06 -3.45563714E-02
  1.79320965E-03 -3.88951671E-03  9.69133967E-06 -5.78637688E-05 -4.43421772E-04
  1.02156752E-04  1.03377001E-05 -5.73252815E-05 -4.51290986E-04 -2.47641041E-05
 -5.03448240E-04 -7.10753702E-05  8.00362665E-06  1.27648414E-06  1.23836565E-03
 -2.23785735E-03  8.73154268E-04 -1.44201656E-05  2.93151430E-02 -1.93825902E-03
  5.32604237E-03 -5.73297032E-07  9.95239974E-01  2.97963459E-02 -1.86270595E-03
  1.27752435E-03 -2.03095250E-06 -2.34467227E-02  4.91251335E-03 -3.12310011E-03
  5.42036923E-06  8.29966693E-03 -9.56991347E-04  4.46281300E-04 -2.84635143E-06
 -1.96469982E-05 -2.87956209E-04 -2.72253775E-04 -4.37662122E-05 -4.21762788E-07
 -1.14062992E-03  1.11155383E-03  2.07800434E-03  1.24072314E-05 -1.75116569E-02
 -3.67875564E-03  2.30215703E-03  1.97338261E-05  1.13869393E-04 -1.13598154E-03
  1.12952342E-04 -1.15336186E-03  5.44662209E-06  1.20142340E-04  3.12002645E-05
  8.34532009E-06 -2.48721935E-05 -5.29984186E-04 -2.54713251E-04 -1.29450903E-05
  2.13978427E-04  6.44847440E-05  1.46114500E-04 -1.03474964E-04  2.35292555E-04
 -6.46756379E-06 -1.20134323E-04 -2.60649981E-05 -2.87600634E-05  2.67880674E-08
  6.75771579E-04  3.27116629E-04  2.08640699E-04 -7.39589723E-08  1.28410404E-03
  8.42117593E-05  3.54158441E-04  1.13852914E-06  5.38912317E-06  1.19306561E-04
  3.11513726E-05  7.95354892E-06  2.49785984E-05 -5.24373249E-04 -2.53687234E-04
 -1.12410698E-05 -2.13516993E-04  5.94471032E-05  1.35829436E-04 -1.05413950E-04