 Entering Gaussian System, Link 0=/opt/cluster/programs/g09_d.01/g09//g09
 Input=/home/unibas/boittier/RDKit_G2/B.pdb/SCAN_1_2_3_4_S_17_20.0/17_SCAN_1_2_3_4_F/17_SCAN_B.pdb.com
 Output=/scratch/boittier/17_SCAN_B.pdb/17_SCAN_B.pdb.out
 Initial command:
 /opt/cluster/programs/g09_d.01/g09/l1.exe "/scratch/boittier/17_SCAN_B.pdb/Gau-187764.inp" -scrdir="/scratch/boittier/17_SCAN_B.pdb/"
 Entering Link 1 = /opt/cluster/programs/g09_d.01/g09/l1.exe PID=    187766.
  
 Copyright (c) 1988,1990,1992,1993,1995,1998,2003,2009,2013,
            Gaussian, Inc.  All Rights Reserved.
  
 This is part of the Gaussian(R) 09 program.  It is based on
 the Gaussian(R) 03 system (copyright 2003, Gaussian, Inc.),
 the Gaussian(R) 98 system (copyright 1998, Gaussian, Inc.),
 the Gaussian(R) 94 system (copyright 1995, Gaussian, Inc.),
 the Gaussian 92(TM) system (copyright 1992, Gaussian, Inc.),
 the Gaussian 90(TM) system (copyright 1990, Gaussian, Inc.),
 the Gaussian 88(TM) system (copyright 1988, Gaussian, Inc.),
 the Gaussian 86(TM) system (copyright 1986, Carnegie Mellon
 University), and the Gaussian 82(TM) system (copyright 1983,
 Carnegie Mellon University). Gaussian is a federally registered
 trademark of Gaussian, Inc.
  
 This software contains proprietary and confidential information,
 including trade secrets, belonging to Gaussian, Inc.
  
 This software is provided under written license and may be
 used, copied, transmitted, or stored only in accord with that
 written license.
  
 The following legend is applicable only to US Government
 contracts under FAR:
  
                    RESTRICTED RIGHTS LEGEND
  
 Use, reproduction and disclosure by the US Government is
 subject to restrictions as set forth in subparagraphs (a)
 and (c) of the Commercial Computer Software - Restricted
 Rights clause in FAR 52.227-19.
  
 Gaussian, Inc.
 340 Quinnipiac St., Bldg. 40, Wallingford CT 06492
  
  
 ---------------------------------------------------------------
 Warning -- This program may not be used in any manner that
 competes with the business of Gaussian, Inc. or will provide
 assistance to any competitor of Gaussian, Inc.  The licensee
 of this program is prohibited from giving any competitor of
 Gaussian, Inc. access to this program.  By using this program,
 the user acknowledges that Gaussian, Inc. is engaged in the
 business of creating and licensing software in the field of
 computational chemistry and represents and warrants to the
 licensee that it is not a competitor of Gaussian, Inc. and that
 it will not use this program in any manner prohibited above.
 ---------------------------------------------------------------
  

 Cite this work as:
 Gaussian 09, Revision D.01,
 M. J. Frisch, G. W. Trucks, H. B. Schlegel, G. E. Scuseria, 
 M. A. Robb, J. R. Cheeseman, G. Scalmani, V. Barone, B. Mennucci, 
 G. A. Petersson, H. Nakatsuji, M. Caricato, X. Li, H. P. Hratchian, 
 A. F. Izmaylov, J. Bloino, G. Zheng, J. L. Sonnenberg, M. Hada, 
 M. Ehara, K. Toyota, R. Fukuda, J. Hasegawa, M. Ishida, T. Nakajima, 
 Y. Honda, O. Kitao, H. Nakai, T. Vreven, J. A. Montgomery, Jr., 
 J. E. Peralta, F. Ogliaro, M. Bearpark, J. J. Heyd, E. Brothers, 
 K. N. Kudin, V. N. Staroverov, T. Keith, R. Kobayashi, J. Normand, 
 K. Raghavachari, A. Rendell, J. C. Burant, S. S. Iyengar, J. Tomasi, 
 M. Cossi, N. Rega, J. M. Millam, M. Klene, J. E. Knox, J. B. Cross, 
 V. Bakken, C. Adamo, J. Jaramillo, R. Gomperts, R. E. Stratmann, 
 O. Yazyev, A. J. Austin, R. Cammi, C. Pomelli, J. W. Ochterski, 
 R. L. Martin, K. Morokuma, V. G. Zakrzewski, G. A. Voth, 
 P. Salvador, J. J. Dannenberg, S. Dapprich, A. D. Daniels, 
 O. Farkas, J. B. Foresman, J. V. Ortiz, J. Cioslowski, 
 and D. J. Fox, Gaussian, Inc., Wallingford CT, 2013.
 
 ******************************************
 Gaussian 09:  ES64L-G09RevD.01 24-Apr-2013
                12-May-2021 
 ******************************************
 %chk=/home/unibas/boittier/RDKit_G2/B.pdb/SCAN_1_2_3_4_S_17_20.0/17_SCAN_1_2_3_4
 _F/B.pdb.chk
 %nproc=8
 Will use up to    8 processors via shared memory.
 %mem=16GB
 -----------------------------
 #p wB97XD/6-31+G Opt=ModRedun
 -----------------------------
 1/14=-1,18=120,19=15,26=3,38=1/1,3;
 2/9=110,12=2,17=6,18=5,40=1/2;
 3/5=1,6=6,7=10,11=2,16=1,25=1,30=1,71=1,74=-58/1,2,3;
 4//1;
 5/5=2,38=5/2;
 6/7=2,8=2,9=2,10=2,28=1/1;
 7//1,2,3,16;
 1/14=-1,18=20,19=15,26=3/3(2);
 2/9=110/2;
 99//99;
 2/9=110/2;
 3/5=1,6=6,7=10,11=2,16=1,25=1,30=1,71=1,74=-58/1,2,3;
 4/5=5,16=3,69=1/1;
 5/5=2,38=5/2;
 7//1,2,3,16;
 1/14=-1,18=20,19=15,26=3/3(-5);
 2/9=110/2;
 6/7=2,8=2,9=2,10=2,19=2,28=1/1;
 99/9=1/99;
 Leave Link    1 at Wed May 12 11:56:05 2021, MaxMem=  2147483648 cpu:         0.2
 (Enter /opt/cluster/programs/g09_d.01/g09/l101.exe)
 -----
 B.pdb
 -----
 Symbolic Z-matrix:
 Charge =  0 Multiplicity = 1
 C                    -1.70756  -0.68204  -0.09528 
 C                    -0.52061  -0.08452   0.05476 
 C                     0.80482  -0.68432   0.12275 
 C                     1.95779  -0.03068  -0.10538 
 H                    -2.62087  -0.10758  -0.18392 
 H                    -1.7757   -1.76322  -0.12178 
 F                    -0.50074   1.33709   0.05837 
 H                     0.80728  -1.75643   0.30743 
 H                     1.98059   1.03483  -0.30805 
 H                     2.90875  -0.55205  -0.0802 
 
 The following ModRedundant input section has been read:
 D       1       2       3       4 F                                           
 
 NAtoms=     10 NQM=       10 NQMF=       0 NMMI=      0 NMMIF=      0
                NMic=       0 NMicF=      0.
                    Isotopes and Nuclear Properties:
 (Nuclear quadrupole moments (NQMom) in fm**2, nuclear magnetic moments (NMagM)
  in nuclear magnetons)

  Atom         1           2           3           4           5           6           7           8           9          10
 IAtWgt=          12          12          12          12           1           1          19           1           1           1
 AtmWgt=  12.0000000  12.0000000  12.0000000  12.0000000   1.0078250   1.0078250  18.9984033   1.0078250   1.0078250   1.0078250
 NucSpn=           0           0           0           0           1           1           1           1           1           1
 AtZEff=   0.0000000   0.0000000   0.0000000   0.0000000   0.0000000   0.0000000   0.0000000   0.0000000   0.0000000   0.0000000
 NQMom=    0.0000000   0.0000000   0.0000000   0.0000000   0.0000000   0.0000000   0.0000000   0.0000000   0.0000000   0.0000000
 NMagM=    0.0000000   0.0000000   0.0000000   0.0000000   2.7928460   2.7928460   2.6288670   2.7928460   2.7928460   2.7928460
 AtZNuc=   6.0000000   6.0000000   6.0000000   6.0000000   1.0000000   1.0000000   9.0000000   1.0000000   1.0000000   1.0000000
 Leave Link  101 at Wed May 12 11:56:05 2021, MaxMem=  2147483648 cpu:         4.1
 (Enter /opt/cluster/programs/g09_d.01/g09/l103.exe)

 GradGradGradGradGradGradGradGradGradGradGradGradGradGradGradGradGradGrad
 Berny optimization.
 Initialization pass.
                           ----------------------------
                           !    Initial Parameters    !
                           ! (Angstroms and Degrees)  !
 --------------------------                            --------------------------
 ! Name  Definition              Value          Derivative Info.                !
 --------------------------------------------------------------------------------
 ! R1    R(1,2)                  1.3373         estimate D2E/DX2                !
 ! R2    R(1,5)                  1.0826         estimate D2E/DX2                !
 ! R3    R(1,6)                  1.0836         estimate D2E/DX2                !
 ! R4    R(2,3)                  1.4564         estimate D2E/DX2                !
 ! R5    R(2,7)                  1.4217         estimate D2E/DX2                !
 ! R6    R(3,4)                  1.3449         estimate D2E/DX2                !
 ! R7    R(3,8)                  1.0879         estimate D2E/DX2                !
 ! R8    R(4,9)                  1.0848         estimate D2E/DX2                !
 ! R9    R(4,10)                 1.0848         estimate D2E/DX2                !
 ! A1    A(2,1,5)              121.3908         estimate D2E/DX2                !
 ! A2    A(2,1,6)              120.2878         estimate D2E/DX2                !
 ! A3    A(5,1,6)              118.319          estimate D2E/DX2                !
 ! A4    A(1,2,3)              128.9736         estimate D2E/DX2                !
 ! A5    A(1,2,7)              117.3524         estimate D2E/DX2                !
 ! A6    A(3,2,7)              113.5126         estimate D2E/DX2                !
 ! A7    A(2,3,4)              124.8988         estimate D2E/DX2                !
 ! A8    A(2,3,8)              114.5724         estimate D2E/DX2                !
 ! A9    A(4,3,8)              120.3866         estimate D2E/DX2                !
 ! A10   A(3,4,9)              121.8082         estimate D2E/DX2                !
 ! A11   A(3,4,10)             120.9316         estimate D2E/DX2                !
 ! A12   A(9,4,10)             117.2553         estimate D2E/DX2                !
 ! D1    D(5,1,2,3)           -176.6445         estimate D2E/DX2                !
 ! D2    D(5,1,2,7)             -1.5997         estimate D2E/DX2                !
 ! D3    D(6,1,2,3)              3.9178         estimate D2E/DX2                !
 ! D4    D(6,1,2,7)            178.9626         estimate D2E/DX2                !
 ! D5    D(1,2,3,4)            160.0109         Frozen                          !
 ! D6    D(1,2,3,8)            -15.6493         estimate D2E/DX2                !
 ! D7    D(7,2,3,4)            -15.1897         estimate D2E/DX2                !
 ! D8    D(7,2,3,8)            169.15           estimate D2E/DX2                !
 ! D9    D(2,3,4,9)              3.5637         estimate D2E/DX2                !
 ! D10   D(2,3,4,10)          -177.2611         estimate D2E/DX2                !
 ! D11   D(8,3,4,9)            178.988          estimate D2E/DX2                !
 ! D12   D(8,3,4,10)            -1.8368         estimate D2E/DX2                !
 --------------------------------------------------------------------------------
 Trust Radius=3.00D-01 FncErr=1.00D-07 GrdErr=1.00D-06
 Number of steps in this run=     43 maximum allowed number of steps=    100.
 GradGradGradGradGradGradGradGradGradGradGradGradGradGradGradGradGradGrad

 Leave Link  103 at Wed May 12 11:56:05 2021, MaxMem=  2147483648 cpu:         0.1
 (Enter /opt/cluster/programs/g09_d.01/g09/l202.exe)
                          Input orientation:                          
 ---------------------------------------------------------------------
 Center     Atomic      Atomic             Coordinates (Angstroms)
 Number     Number       Type             X           Y           Z
 ---------------------------------------------------------------------
      1          6           0       -1.707564   -0.682043   -0.095278
      2          6           0       -0.520614   -0.084516    0.054764
      3          6           0        0.804817   -0.684321    0.122751
      4          6           0        1.957789   -0.030675   -0.105377
      5          1           0       -2.620873   -0.107583   -0.183923
      6          1           0       -1.775699   -1.763219   -0.121780
      7          9           0       -0.500735    1.337086    0.058374
      8          1           0        0.807281   -1.756432    0.307430
      9          1           0        1.980591    1.034831   -0.308049
     10          1           0        2.908749   -0.552045   -0.080200
 ---------------------------------------------------------------------
                    Distance matrix (angstroms):
                    1          2          3          4          5
     1  C    0.000000
     2  C    1.337311   0.000000
     3  C    2.521825   1.456419   0.000000
     4  C    3.722794   2.484155   1.344857   0.000000
     5  H    1.082587   2.113904   3.487410   4.579981   0.000000
     6  H    1.083645   2.103438   2.807647   4.115934   1.859922
     7  F    2.357314   1.421746   2.407218   2.818142   2.576967
     8  H    2.764223   2.149988   1.087904   2.114785   3.835671
     9  H    4.073747   2.764163   2.126856   1.084850   4.742783
    10  H    4.618168   3.463716   2.117833   1.084797   5.548425
                    6          7          8          9         10
     6  H    0.000000
     7  F    3.357064   0.000000
     8  H    2.618407   3.367906   0.000000
     9  H    4.687589   2.526381   3.089760   0.000000
    10  H    4.838670   3.900333   2.452952   1.852449   0.000000
 Stoichiometry    C4H5F
 Framework group  C1[X(C4H5F)]
 Deg. of freedom    24
 Full point group                 C1      NOp   1
 Largest Abelian subgroup         C1      NOp   1
 Largest concise Abelian subgroup C1      NOp   1
                         Standard orientation:                         
 ---------------------------------------------------------------------
 Center     Atomic      Atomic             Coordinates (Angstroms)
 Number     Number       Type             X           Y           Z
 ---------------------------------------------------------------------
      1          6           0        1.707564   -0.682043    0.095278
      2          6           0        0.520614   -0.084516   -0.054764
      3          6           0       -0.804817   -0.684321   -0.122751
      4          6           0       -1.957789   -0.030675    0.105377
      5          1           0        2.620873   -0.107583    0.183923
      6          1           0        1.775699   -1.763219    0.121780
      7          9           0        0.500735    1.337086   -0.058374
      8          1           0       -0.807281   -1.756432   -0.307430
      9          1           0       -1.980591    1.034831    0.308049
     10          1           0       -2.908749   -0.552045    0.080200
 ---------------------------------------------------------------------
 Rotational constants (GHZ):      9.4880217      4.1815914      2.9279786
 Leave Link  202 at Wed May 12 11:56:05 2021, MaxMem=  2147483648 cpu:         0.0
 (Enter /opt/cluster/programs/g09_d.01/g09/l301.exe)
 Standard basis: 6-31+G (6D, 7F)
 Ernie: Thresh=  0.10000D-02 Tol=  0.10000D-05 Strict=F.
 There are    75 symmetry adapted cartesian basis functions of A   symmetry.
 There are    75 symmetry adapted basis functions of A   symmetry.
    75 basis functions,   150 primitive gaussians,    75 cartesian basis functions
    19 alpha electrons       19 beta electrons
       nuclear repulsion energy       157.3797923815 Hartrees.
 IExCor= 4639 DFT=T Ex+Corr=wB97XD ExCW=0 ScaHFX=  1.000000
 ScaDFX=  1.000000  1.000000  1.000000  1.000000 ScalE2=  1.000000  1.000000
 IRadAn=      0 IRanWt=     -1 IRanGd=            0 ICorTp=0 IEmpDi=121
  HFx wShort=  0.000000 wLong=  0.200000 cFull=  0.222036 cShort=  0.000000 cLong=  0.777964
  DFx wShort=  0.000000 wLong=  0.200000 cFull=  0.000000 cShort=  0.000000 cLong=  1.000000
 NAtoms=   10 NActive=   10 NUniq=   10 SFac= 1.00D+00 NAtFMM=   60 NAOKFM=F Big=F
 Integral buffers will be    131072 words long.
 Raffenetti 2 integral format.
 Two-electron integral symmetry is turned on.
 R6Disp:  Grimme-D2 Dispersion energy=       -0.0029422260 Hartrees.
 Nuclear repulsion after empirical dispersion term =      157.3768501555 Hartrees.
 Leave Link  301 at Wed May 12 11:56:06 2021, MaxMem=  2147483648 cpu:         0.3
 (Enter /opt/cluster/programs/g09_d.01/g09/l302.exe)
 NPDir=0 NMtPBC=     1 NCelOv=     1 NCel=       1 NClECP=     1 NCelD=      1
         NCelK=      1 NCelE2=     1 NClLst=     1 CellRange=     0.0.
 One-electron integrals computed using PRISM.
 NBasis=    75 RedAO= T EigKep=  3.69D-05  NBF=    75
 NBsUse=    75 1.00D-06 EigRej= -1.00D+00 NBFU=    75
 Precomputing XC quadrature grid using
 IXCGrd= 4 IRadAn=           0 IRanWt=          -1 IRanGd=           0 AccXCQ= 0.00D+00.
 Generated NRdTot=       0 NPtTot=           0 NUsed=           0 NTot=          32
 NSgBfM=    75    75    75    75    75 MxSgAt=    10 MxSgA2=    10.
 Leave Link  302 at Wed May 12 11:56:06 2021, MaxMem=  2147483648 cpu:         0.8
 (Enter /opt/cluster/programs/g09_d.01/g09/l303.exe)
 DipDrv:  MaxL=1.
 Leave Link  303 at Wed May 12 11:56:06 2021, MaxMem=  2147483648 cpu:         0.2
 (Enter /opt/cluster/programs/g09_d.01/g09/l401.exe)
 ExpMin= 4.38D-02 ExpMax= 7.00D+03 ExpMxC= 1.05D+03 IAcc=2 IRadAn=         4 AccDes= 0.00D+00
 Harris functional with IExCor= 4639 and IRadAn=       4 diagonalized for initial guess.
 HarFok:  IExCor= 4639 AccDes= 0.00D+00 IRadAn=         4 IDoV= 1 UseB2=F ITyADJ=14
 ICtDFT=  3500011 ScaDFX=  1.000000  1.000000  1.000000  1.000000
 FoFCou: FMM=F IPFlag=           0 FMFlag=      100000 FMFlg1=           0
         NFxFlg=           0 DoJE=T BraDBF=F KetDBF=T FulRan=T
         wScrn=  0.000000 ICntrl=     500 IOpCl=  0 I1Cent=   200000004 NGrid=           0
         NMat0=    1 NMatS0=      1 NMatT0=    0 NMatD0=    1 NMtDS0=    0 NMtDT0=    0
 Petite list used in FoFCou.
 Harris En= -244.788364387321    
 JPrj=0 DoOrth=F DoCkMO=F.
 Leave Link  401 at Wed May 12 11:56:06 2021, MaxMem=  2147483648 cpu:         1.3
 (Enter /opt/cluster/programs/g09_d.01/g09/l502.exe)
 Closed shell SCF:
 Using DIIS extrapolation, IDIIS=  1040.
 Integral symmetry usage will be decided dynamically.
 Keep R1 ints in memory in canonical form, NReq=9056162.
 IVT=       36600 IEndB=       36600 NGot=  2147483648 MDV=  2139321699
 LenX=  2139321699 LenY=  2139315633
 Requested convergence on RMS density matrix=1.00D-08 within 128 cycles.
 Requested convergence on MAX density matrix=1.00D-06.
 Requested convergence on             energy=1.00D-06.
 No special actions if energy rises.
 FoFCou: FMM=F IPFlag=           0 FMFlag=           0 FMFlg1=           0
         NFxFlg=           0 DoJE=F BraDBF=F KetDBF=F FulRan=T
         wScrn=  0.000000 ICntrl=     600 IOpCl=  0 I1Cent=           0 NGrid=           0
         NMat0=    1 NMatS0=   2850 NMatT0=    0 NMatD0=    1 NMtDS0=    0 NMtDT0=    0
 Symmetry not used in FoFCou.

 Cycle   1  Pass 1  IDiag  1:
 E= -254.939553741289    
 DIIS: error= 5.71D-02 at cycle   1 NSaved=   1.
 NSaved= 1 IEnMin= 1 EnMin= -254.939553741289     IErMin= 1 ErrMin= 5.71D-02
 ErrMax= 5.71D-02  0.00D+00 EMaxC= 1.00D-01 BMatC= 2.55D-01 BMatP= 2.55D-01
 IDIUse=3 WtCom= 4.29D-01 WtEn= 5.71D-01
 Coeff-Com:  0.100D+01
 Coeff-En:   0.100D+01
 Coeff:      0.100D+01
 Gap=     0.430 Goal=   None    Shift=    0.000
 GapD=    0.430 DampG=2.000 DampE=0.500 DampFc=1.0000 IDamp=-1.
 RMSDP=2.19D-02 MaxDP=5.93D-01              OVMax= 1.64D-01

 Cycle   2  Pass 1  IDiag  1:
 E= -254.905254063099     Delta-E=        0.034299678190 Rises=F Damp=F
 DIIS: error= 5.32D-02 at cycle   2 NSaved=   2.
 NSaved= 2 IEnMin= 1 EnMin= -254.939553741289     IErMin= 2 ErrMin= 5.32D-02
 ErrMax= 5.32D-02  0.00D+00 EMaxC= 1.00D-01 BMatC= 2.88D-01 BMatP= 2.55D-01
 IDIUse=2 WtCom= 0.00D+00 WtEn= 1.00D+00
 Coeff-En:   0.547D+00 0.453D+00
 Coeff:      0.547D+00 0.453D+00
 Gap=     0.402 Goal=   None    Shift=    0.000
 RMSDP=7.64D-03 MaxDP=1.08D-01 DE= 3.43D-02 OVMax= 8.77D-02

 Cycle   3  Pass 1  IDiag  1:
 E= -255.099926323272     Delta-E=       -0.194672260173 Rises=F Damp=F
 DIIS: error= 2.46D-03 at cycle   3 NSaved=   3.
 NSaved= 3 IEnMin= 3 EnMin= -255.099926323272     IErMin= 3 ErrMin= 2.46D-03
 ErrMax= 2.46D-03  0.00D+00 EMaxC= 1.00D-01 BMatC= 6.17D-04 BMatP= 2.55D-01
 IDIUse=3 WtCom= 9.75D-01 WtEn= 2.46D-02
 Coeff-Com: -0.746D-03-0.323D-01 0.103D+01
 Coeff-En:   0.000D+00 0.000D+00 0.100D+01
 Coeff:     -0.727D-03-0.315D-01 0.103D+01
 Gap=     0.344 Goal=   None    Shift=    0.000
 RMSDP=2.67D-03 MaxDP=6.07D-02 DE=-1.95D-01 OVMax= 1.40D-02

 Cycle   4  Pass 1  IDiag  1:
 E= -255.100402565612     Delta-E=       -0.000476242340 Rises=F Damp=F
 DIIS: error= 1.71D-03 at cycle   4 NSaved=   4.
 NSaved= 4 IEnMin= 4 EnMin= -255.100402565612     IErMin= 4 ErrMin= 1.71D-03
 ErrMax= 1.71D-03  0.00D+00 EMaxC= 1.00D-01 BMatC= 2.60D-04 BMatP= 6.17D-04
 IDIUse=3 WtCom= 9.83D-01 WtEn= 1.71D-02
 Coeff-Com: -0.914D-02-0.269D-01 0.474D+00 0.562D+00
 Coeff-En:   0.000D+00 0.000D+00 0.000D+00 0.100D+01
 Coeff:     -0.899D-02-0.265D-01 0.466D+00 0.569D+00
 Gap=     0.344 Goal=   None    Shift=    0.000
 RMSDP=4.12D-04 MaxDP=6.97D-03 DE=-4.76D-04 OVMax= 7.53D-03

 Cycle   5  Pass 1  IDiag  1:
 E= -255.100686571302     Delta-E=       -0.000284005689 Rises=F Damp=F
 DIIS: error= 3.68D-04 at cycle   5 NSaved=   5.
 NSaved= 5 IEnMin= 5 EnMin= -255.100686571302     IErMin= 5 ErrMin= 3.68D-04
 ErrMax= 3.68D-04  0.00D+00 EMaxC= 1.00D-01 BMatC= 8.41D-06 BMatP= 2.60D-04
 IDIUse=3 WtCom= 9.96D-01 WtEn= 3.68D-03
 Coeff-Com: -0.213D-02-0.501D-02 0.117D-01 0.959D-01 0.900D+00
 Coeff-En:   0.000D+00 0.000D+00 0.000D+00 0.000D+00 0.100D+01
 Coeff:     -0.212D-02-0.500D-02 0.117D-01 0.955D-01 0.900D+00
 Gap=     0.344 Goal=   None    Shift=    0.000
 RMSDP=3.03D-04 MaxDP=6.76D-03 DE=-2.84D-04 OVMax= 1.70D-03

 Cycle   6  Pass 1  IDiag  1:
 E= -255.100699252592     Delta-E=       -0.000012681290 Rises=F Damp=F
 DIIS: error= 2.04D-04 at cycle   6 NSaved=   6.
 NSaved= 6 IEnMin= 6 EnMin= -255.100699252592     IErMin= 6 ErrMin= 2.04D-04
 ErrMax= 2.04D-04  0.00D+00 EMaxC= 1.00D-01 BMatC= 2.28D-06 BMatP= 8.41D-06
 IDIUse=3 WtCom= 9.98D-01 WtEn= 2.04D-03
 Coeff-Com:  0.704D-03 0.217D-02-0.813D-01-0.626D-01 0.395D+00 0.746D+00
 Coeff-En:   0.000D+00 0.000D+00 0.000D+00 0.000D+00 0.000D+00 0.100D+01
 Coeff:      0.703D-03 0.217D-02-0.811D-01-0.625D-01 0.394D+00 0.747D+00
 Gap=     0.344 Goal=   None    Shift=    0.000
 RMSDP=1.07D-04 MaxDP=2.10D-03 DE=-1.27D-05 OVMax= 8.74D-04

 Cycle   7  Pass 1  IDiag  1:
 E= -255.100702422153     Delta-E=       -0.000003169561 Rises=F Damp=F
 DIIS: error= 2.82D-05 at cycle   7 NSaved=   7.
 NSaved= 7 IEnMin= 7 EnMin= -255.100702422153     IErMin= 7 ErrMin= 2.82D-05
 ErrMax= 2.82D-05  0.00D+00 EMaxC= 1.00D-01 BMatC= 4.41D-08 BMatP= 2.28D-06
 IDIUse=1 WtCom= 1.00D+00 WtEn= 0.00D+00
 Coeff-Com:  0.197D-03 0.414D-03-0.880D-02-0.102D-01 0.960D-03 0.744D-01
 Coeff-Com:  0.943D+00
 Coeff:      0.197D-03 0.414D-03-0.880D-02-0.102D-01 0.960D-03 0.744D-01
 Coeff:      0.943D+00
 Gap=     0.344 Goal=   None    Shift=    0.000
 RMSDP=1.66D-05 MaxDP=2.66D-04 DE=-3.17D-06 OVMax= 1.25D-04

 Cycle   8  Pass 1  IDiag  1:
 E= -255.100702491399     Delta-E=       -0.000000069246 Rises=F Damp=F
 DIIS: error= 1.48D-05 at cycle   8 NSaved=   8.
 NSaved= 8 IEnMin= 8 EnMin= -255.100702491399     IErMin= 8 ErrMin= 1.48D-05
 ErrMax= 1.48D-05  0.00D+00 EMaxC= 1.00D-01 BMatC= 1.69D-08 BMatP= 4.41D-08
 IDIUse=1 WtCom= 1.00D+00 WtEn= 0.00D+00
 Coeff-Com: -0.278D-04-0.182D-03 0.815D-02 0.499D-02-0.525D-01-0.721D-01
 Coeff-Com:  0.443D+00 0.668D+00
 Coeff:     -0.278D-04-0.182D-03 0.815D-02 0.499D-02-0.525D-01-0.721D-01
 Coeff:      0.443D+00 0.668D+00
 Gap=     0.344 Goal=   None    Shift=    0.000
 RMSDP=8.43D-06 MaxDP=1.92D-04 DE=-6.92D-08 OVMax= 9.32D-05

 Cycle   9  Pass 1  IDiag  1:
 E= -255.100702513090     Delta-E=       -0.000000021692 Rises=F Damp=F
 DIIS: error= 3.89D-06 at cycle   9 NSaved=   9.
 NSaved= 9 IEnMin= 9 EnMin= -255.100702513090     IErMin= 9 ErrMin= 3.89D-06
 ErrMax= 3.89D-06  0.00D+00 EMaxC= 1.00D-01 BMatC= 7.79D-10 BMatP= 1.69D-08
 IDIUse=1 WtCom= 1.00D+00 WtEn= 0.00D+00
 Coeff-Com: -0.156D-04-0.540D-04 0.208D-02 0.130D-02-0.931D-02-0.209D-01
 Coeff-Com:  0.306D-02 0.158D+00 0.865D+00
 Coeff:     -0.156D-04-0.540D-04 0.208D-02 0.130D-02-0.931D-02-0.209D-01
 Coeff:      0.306D-02 0.158D+00 0.865D+00
 Gap=     0.344 Goal=   None    Shift=    0.000
 RMSDP=2.48D-06 MaxDP=4.06D-05 DE=-2.17D-08 OVMax= 1.55D-05

 Cycle  10  Pass 1  IDiag  1:
 E= -255.100702514119     Delta-E=       -0.000000001028 Rises=F Damp=F
 DIIS: error= 5.83D-07 at cycle  10 NSaved=  10.
 NSaved=10 IEnMin=10 EnMin= -255.100702514119     IErMin=10 ErrMin= 5.83D-07
 ErrMax= 5.83D-07  0.00D+00 EMaxC= 1.00D-01 BMatC= 4.69D-11 BMatP= 7.79D-10
 IDIUse=1 WtCom= 1.00D+00 WtEn= 0.00D+00
 Coeff-Com:  0.188D-05 0.125D-04-0.427D-03-0.345D-03 0.362D-02 0.253D-02
 Coeff-Com: -0.461D-01-0.135D-01 0.189D+00 0.865D+00
 Coeff:      0.188D-05 0.125D-04-0.427D-03-0.345D-03 0.362D-02 0.253D-02
 Coeff:     -0.461D-01-0.135D-01 0.189D+00 0.865D+00
 Gap=     0.344 Goal=   None    Shift=    0.000
 RMSDP=7.12D-07 MaxDP=1.06D-05 DE=-1.03D-09 OVMax= 5.46D-06

 Cycle  11  Pass 1  IDiag  1:
 E= -255.100702514205     Delta-E=       -0.000000000086 Rises=F Damp=F
 DIIS: error= 1.37D-07 at cycle  11 NSaved=  11.
 NSaved=11 IEnMin=11 EnMin= -255.100702514205     IErMin=11 ErrMin= 1.37D-07
 ErrMax= 1.37D-07  0.00D+00 EMaxC= 1.00D-01 BMatC= 1.31D-12 BMatP= 4.69D-11
 IDIUse=1 WtCom= 1.00D+00 WtEn= 0.00D+00
 Coeff-Com:  0.583D-06 0.126D-05-0.708D-04-0.455D-04 0.318D-03 0.658D-03
 Coeff-Com:  0.183D-02-0.403D-02-0.545D-01-0.543D-01 0.111D+01
 Coeff:      0.583D-06 0.126D-05-0.708D-04-0.455D-04 0.318D-03 0.658D-03
 Coeff:      0.183D-02-0.403D-02-0.545D-01-0.543D-01 0.111D+01
 Gap=     0.344 Goal=   None    Shift=    0.000
 RMSDP=1.39D-07 MaxDP=1.92D-06 DE=-8.63D-11 OVMax= 1.64D-06

 Cycle  12  Pass 1  IDiag  1:
 E= -255.100702514207     Delta-E=       -0.000000000002 Rises=F Damp=F
 DIIS: error= 5.04D-08 at cycle  12 NSaved=  12.
 NSaved=12 IEnMin=12 EnMin= -255.100702514207     IErMin=12 ErrMin= 5.04D-08
 ErrMax= 5.04D-08  0.00D+00 EMaxC= 1.00D-01 BMatC= 9.40D-14 BMatP= 1.31D-12
 IDIUse=1 WtCom= 1.00D+00 WtEn= 0.00D+00
 Coeff-Com: -0.668D-07-0.827D-06 0.216D-04 0.120D-04-0.129D-03-0.205D-03
 Coeff-Com:  0.178D-02 0.980D-03-0.451D-02-0.343D-01-0.104D+00 0.114D+01
 Coeff:     -0.668D-07-0.827D-06 0.216D-04 0.120D-04-0.129D-03-0.205D-03
 Coeff:      0.178D-02 0.980D-03-0.451D-02-0.343D-01-0.104D+00 0.114D+01
 Gap=     0.344 Goal=   None    Shift=    0.000
 RMSDP=3.65D-08 MaxDP=5.39D-07 DE=-1.71D-12 OVMax= 3.50D-07

 Cycle  13  Pass 1  IDiag  1:
 E= -255.100702514207     Delta-E=       -0.000000000001 Rises=F Damp=F
 DIIS: error= 5.59D-09 at cycle  13 NSaved=  13.
 NSaved=13 IEnMin=13 EnMin= -255.100702514207     IErMin=13 ErrMin= 5.59D-09
 ErrMax= 5.59D-09  0.00D+00 EMaxC= 1.00D-01 BMatC= 1.66D-15 BMatP= 9.40D-14
 IDIUse=1 WtCom= 1.00D+00 WtEn= 0.00D+00
 Coeff-Com: -0.120D-07 0.633D-07 0.779D-06-0.528D-06-0.533D-06-0.143D-04
 Coeff-Com: -0.177D-03 0.125D-03 0.188D-02 0.550D-02-0.249D-01-0.115D+00
 Coeff-Com:  0.113D+01
 Coeff:     -0.120D-07 0.633D-07 0.779D-06-0.528D-06-0.533D-06-0.143D-04
 Coeff:     -0.177D-03 0.125D-03 0.188D-02 0.550D-02-0.249D-01-0.115D+00
 Coeff:      0.113D+01
 Gap=     0.344 Goal=   None    Shift=    0.000
 RMSDP=5.97D-09 MaxDP=8.20D-08 DE=-5.68D-13 OVMax= 4.95D-08

 SCF Done:  E(RwB97XD) =  -255.100702514     A.U. after   13 cycles
            NFock= 13  Conv=0.60D-08     -V/T= 2.0058
 KE= 2.536192390386D+02 PE=-9.123859903340D+02 EE= 2.462891986256D+02
 Leave Link  502 at Wed May 12 11:56:08 2021, MaxMem=  2147483648 cpu:        12.8
 (Enter /opt/cluster/programs/g09_d.01/g09/l601.exe)
 Copying SCF densities to generalized density rwf, IOpCl= 0 IROHF=0.

 **********************************************************************

            Population analysis using the SCF density.

 **********************************************************************

 Orbital symmetries:
       Occupied  (A) (A) (A) (A) (A) (A) (A) (A) (A) (A) (A) (A)
                 (A) (A) (A) (A) (A) (A) (A)
       Virtual   (A) (A) (A) (A) (A) (A) (A) (A) (A) (A) (A) (A)
                 (A) (A) (A) (A) (A) (A) (A) (A) (A) (A) (A) (A)
                 (A) (A) (A) (A) (A) (A) (A) (A) (A) (A) (A) (A)
                 (A) (A) (A) (A) (A) (A) (A) (A) (A) (A) (A) (A)
                 (A) (A) (A) (A) (A) (A) (A) (A)
 The electronic state is 1-A.
 Alpha  occ. eigenvalues --  -24.83067 -10.40488 -10.33054 -10.31560 -10.31352
 Alpha  occ. eigenvalues --   -1.30773  -0.92810  -0.86398  -0.73318  -0.66428
 Alpha  occ. eigenvalues --   -0.60177  -0.58642  -0.54333  -0.53094  -0.50447
 Alpha  occ. eigenvalues --   -0.48089  -0.45859  -0.41090  -0.32784
 Alpha virt. eigenvalues --    0.01585   0.06751   0.08044   0.09806   0.10346
 Alpha virt. eigenvalues --    0.11419   0.12110   0.12873   0.14292   0.15065
 Alpha virt. eigenvalues --    0.16191   0.16554   0.18794   0.19764   0.19901
 Alpha virt. eigenvalues --    0.22055   0.22159   0.24534   0.26146   0.28698
 Alpha virt. eigenvalues --    0.30190   0.30447   0.32528   0.38738   0.40900
 Alpha virt. eigenvalues --    0.42142   0.43366   0.45257   0.49336   0.50019
 Alpha virt. eigenvalues --    0.53439   0.69569   0.74146   0.76992   0.78618
 Alpha virt. eigenvalues --    0.82174   0.82954   0.84317   0.88462   0.92316
 Alpha virt. eigenvalues --    0.99980   1.03132   1.03794   1.10740   1.14139
 Alpha virt. eigenvalues --    1.15638   1.19758   1.25179   1.29125   1.34127
 Alpha virt. eigenvalues --    1.42475   1.46950   1.66278   1.82471   1.85988
 Alpha virt. eigenvalues --    2.38862
          Condensed to atoms (all electrons):
               1          2          3          4          5          6
     1  C    6.415717  -0.305183  -0.093087  -0.158765   0.387763   0.338308
     2  C   -0.305183   5.965699  -0.331502   0.240908  -0.053235  -0.017131
     3  C   -0.093087  -0.331502   6.265937   0.137014   0.019277   0.015351
     4  C   -0.158765   0.240908   0.137014   5.441555  -0.000680   0.000896
     5  H    0.387763  -0.053235   0.019277  -0.000680   0.446843  -0.019526
     6  H    0.338308  -0.017131   0.015351   0.000896  -0.019526   0.469266
     7  F   -0.165638   0.301097  -0.144446  -0.000134  -0.002355   0.004075
     8  H   -0.021815   0.025541   0.289965   0.011131   0.000094   0.000693
     9  H   -0.008417   0.008983  -0.068355   0.413222   0.000003  -0.000002
    10  H    0.003609   0.019964  -0.037363   0.361591   0.000001  -0.000002
               7          8          9         10
     1  C   -0.165638  -0.021815  -0.008417   0.003609
     2  C    0.301097   0.025541   0.008983   0.019964
     3  C   -0.144446   0.289965  -0.068355  -0.037363
     4  C   -0.000134   0.011131   0.413222   0.361591
     5  H   -0.002355   0.000094   0.000003   0.000001
     6  H    0.004075   0.000693  -0.000002  -0.000002
     7  F    9.324266   0.003496   0.000180   0.000469
     8  H    0.003496   0.475402   0.002464  -0.003347
     9  H    0.000180   0.002464   0.451199  -0.023487
    10  H    0.000469  -0.003347  -0.023487   0.480868
 Mulliken charges:
               1
     1  C   -0.392491
     2  C    0.144857
     3  C   -0.052791
     4  C   -0.446738
     5  H    0.221815
     6  H    0.208071
     7  F   -0.321008
     8  H    0.216377
     9  H    0.224211
    10  H    0.197697
 Sum of Mulliken charges =   0.00000
 Mulliken charges with hydrogens summed into heavy atoms:
               1
     1  C    0.037395
     2  C    0.144857
     3  C    0.163586
     4  C   -0.024830
     7  F   -0.321008
 Electronic spatial extent (au):  <R**2>=            425.9573
 Charge=              0.0000 electrons
 Dipole moment (field-independent basis, Debye):
    X=             -0.3812    Y=             -2.1375    Z=              0.1635  Tot=              2.1774
 Quadrupole moment (field-independent basis, Debye-Ang):
   XX=            -24.8324   YY=            -29.5615   ZZ=            -32.7166
   XY=             -1.3393   XZ=              0.0892   YZ=              0.7117
 Traceless Quadrupole moment (field-independent basis, Debye-Ang):
   XX=              4.2044   YY=             -0.5247   ZZ=             -3.6797
   XY=             -1.3393   XZ=              0.0892   YZ=              0.7117
 Octapole moment (field-independent basis, Debye-Ang**2):
  XXX=              2.8385  YYY=              1.2417  ZZZ=             -0.5105  XYY=             -0.6392
  XXY=              1.8408  XXZ=              2.0037  XZZ=              1.6477  YZZ=              4.9144
  YYZ=             -0.1724  XYZ=             -1.0740
 Hexadecapole moment (field-independent basis, Debye-Ang**3):
 XXXX=           -330.6831 YYYY=           -137.6843 ZZZZ=            -39.6991 XXXY=              8.4883
 XXXZ=              0.7206 YYYX=             -1.8956 YYYZ=              1.4898 ZZZX=             -0.4605
 ZZZY=             -0.0002 XXYY=            -81.2577 XXZZ=            -78.0793 YYZZ=            -32.1762
 XXYZ=              0.8451 YYXZ=              0.5641 ZZXY=              2.1215
 N-N= 1.573768501555D+02 E-N=-9.123859905027D+02  KE= 2.536192390386D+02
 No NMR shielding tensors so no spin-rotation constants.
 Leave Link  601 at Wed May 12 11:56:08 2021, MaxMem=  2147483648 cpu:         0.6
 (Enter /opt/cluster/programs/g09_d.01/g09/l701.exe)
 Compute integral first derivatives.
 ... and contract with generalized density number  0.
 R6Disp: Adding Grimme-D2 dispersion energy 1st derivatives to the gradient.
 Leave Link  701 at Wed May 12 11:56:08 2021, MaxMem=  2147483648 cpu:         0.6
 (Enter /opt/cluster/programs/g09_d.01/g09/l702.exe)
 L702 exits ... SP integral derivatives will be done elsewhere.
 Leave Link  702 at Wed May 12 11:56:08 2021, MaxMem=  2147483648 cpu:         0.2
 (Enter /opt/cluster/programs/g09_d.01/g09/l703.exe)
 Compute integral first derivatives, UseDBF=F ICtDFT=           0.
 Integral derivatives from FoFJK, PRISM(SPDF).
 Calling FoFJK, ICntrl=      2127 FMM=F ISym2X=0 I1Cent= 0 IOpClX= 0 NMat=1 NMatS=1 NMatT=0.
 FoFJK:  IHMeth= 1 ICntrl=    2127 DoSepK=T KAlg= 0 I1Cent=   0 FoldK=F
 IRaf=         1 NMat=   1 IRICut=       1 DoRegI=T DoRafI=F ISym2E= 0.
 FoFCou: FMM=F IPFlag=           0 FMFlag=      100000 FMFlg1=         800
         NFxFlg=           0 DoJE=F BraDBF=F KetDBF=F FulRan=T
         wScrn=  0.000000 ICntrl=    2527 IOpCl=  0 I1Cent=           0 NGrid=           0
         NMat0=    1 NMatS0=      1 NMatT0=    0 NMatD0=    1 NMtDS0=    0 NMtDT0=    0
 Symmetry not used in FoFCou.
 Leave Link  703 at Wed May 12 11:56:08 2021, MaxMem=  2147483648 cpu:         3.3
 (Enter /opt/cluster/programs/g09_d.01/g09/l716.exe)
 Dipole        =-1.49973920D-01-8.40976564D-01 6.43273622D-02
 ***** Axes restored to original set *****
 -------------------------------------------------------------------
 Center     Atomic                   Forces (Hartrees/Bohr)
 Number     Number              X              Y              Z
 -------------------------------------------------------------------
      1        6           0.005238813    0.002163739    0.004194841
      2        6          -0.006680258    0.005584031   -0.005068065
      3        6           0.006383632   -0.000084552   -0.003926397
      4        6          -0.005180382   -0.001909667    0.004089921
      5        1           0.000614649    0.000097456    0.000141978
      6        1           0.000517324    0.000361017   -0.000003348
      7        9           0.000083586   -0.006409544    0.000193333
      8        1           0.000120131    0.000510100    0.000147179
      9        1          -0.000398293   -0.000206438    0.000088749
     10        1          -0.000699201   -0.000106141    0.000141808
 -------------------------------------------------------------------
 Cartesian Forces:  Max     0.006680258 RMS     0.003149386
 Leave Link  716 at Wed May 12 11:56:08 2021, MaxMem=  2147483648 cpu:         0.2
 (Enter /opt/cluster/programs/g09_d.01/g09/l103.exe)

 GradGradGradGradGradGradGradGradGradGradGradGradGradGradGradGradGradGrad
 Berny optimization.
 FormGI is forming the generalized inverse of G from B-inverse, IUseBI=4.
 Internal  Forces:  Max     0.007310221 RMS     0.002304426
 Search for a local minimum.
 Step number   1 out of a maximum of   43
 All quantities printed in internal units (Hartrees-Bohrs-Radians)
 RMS Force = .21777D-02 SwitMx=.10000D-02 MixMth= 1
 Mixed Optimization -- RFO/linear search
 Second derivative matrix not updated -- first step.
 ITU=  0
     Eigenvalues ---    0.01755   0.02151   0.02818   0.02819   0.02918
     Eigenvalues ---    0.02918   0.15971   0.16000   0.16000   0.16000
     Eigenvalues ---    0.16000   0.22007   0.24953   0.25000   0.35056
     Eigenvalues ---    0.35415   0.35421   0.35558   0.35684   0.37416
     Eigenvalues ---    0.42199   0.56130   0.578121000.000001000.00000
     Eigenvalues --- 1000.000001000.000001000.000001000.000001000.00000
     Eigenvalues --- 1000.000001000.000001000.00000
 RFO step:  Lambda=-3.12436189D-04 EMin= 1.75516589D-02
 Linear search not attempted -- first point.
 Iteration  1 RMS(Cart)=  0.00886813 RMS(Int)=  0.00002381
 Iteration  2 RMS(Cart)=  0.00002403 RMS(Int)=  0.00000313
 Iteration  3 RMS(Cart)=  0.00000000 RMS(Int)=  0.00000313
 Iteration  1 RMS(Cart)=  0.00000022 RMS(Int)=  0.00000015
 ITry= 1 IFail=0 DXMaxC= 2.29D-02 DCOld= 1.00D+10 DXMaxT= 3.00D-01 DXLimC= 3.00D+00 Rises=F
 Variable       Old X    -DE/DX   Delta X   Delta X   Delta X     New X
                                 (Linear)    (Quad)   (Total)
    R1        2.52715  -0.00731   0.00000  -0.01264  -0.01264   2.51451
    R2        2.04579  -0.00048   0.00000  -0.00135  -0.00135   2.04445
    R3        2.04779  -0.00039   0.00000  -0.00109  -0.00109   2.04670
    R4        2.75223   0.00096   0.00000   0.00258   0.00258   2.75481
    R5        2.68671  -0.00641   0.00000  -0.01517  -0.01517   2.67154
    R6        2.54141  -0.00719   0.00000  -0.01280  -0.01280   2.52861
    R7        2.05584  -0.00048   0.00000  -0.00137  -0.00137   2.05447
    R8        2.05007  -0.00022   0.00000  -0.00063  -0.00063   2.04944
    R9        2.04997  -0.00056   0.00000  -0.00158  -0.00158   2.04839
    A1        2.11867  -0.00022   0.00000  -0.00140  -0.00140   2.11727
    A2        2.09942  -0.00039   0.00000  -0.00245  -0.00245   2.09697
    A3        2.06506   0.00062   0.00000   0.00385   0.00385   2.06890
    A4        2.25101  -0.00063   0.00000  -0.00249  -0.00250   2.24851
    A5        2.04819   0.00069   0.00000   0.00250   0.00250   2.05068
    A6        1.98117   0.00006   0.00000   0.00052   0.00051   1.98168
    A7        2.17990  -0.00100   0.00000  -0.00457  -0.00457   2.17533
    A8        1.99967   0.00060   0.00000   0.00320   0.00320   2.00286
    A9        2.10114   0.00051   0.00000   0.00177   0.00176   2.10290
   A10        2.12595  -0.00024   0.00000  -0.00150  -0.00150   2.12445
   A11        2.11066  -0.00034   0.00000  -0.00212  -0.00212   2.10853
   A12        2.04649   0.00058   0.00000   0.00360   0.00360   2.05009
    D1       -3.08303  -0.00100   0.00000  -0.00632  -0.00632  -3.08935
    D2       -0.02792   0.00087   0.00000   0.00186   0.00187  -0.02605
    D3        0.06838  -0.00098   0.00000  -0.00583  -0.00583   0.06255
    D4        3.12349   0.00088   0.00000   0.00235   0.00236   3.12584
    D5        2.79272   0.00339   0.00000   0.00000   0.00000   2.79272
    D6       -0.27313   0.00165   0.00000  -0.00629  -0.00629  -0.27942
    D7       -0.26511   0.00156   0.00000  -0.00801  -0.00801  -0.27312
    D8        2.95222  -0.00019   0.00000  -0.01430  -0.01429   2.93793
    D9        0.06220  -0.00091   0.00000  -0.00307  -0.00307   0.05913
   D10       -3.09379  -0.00097   0.00000  -0.00526  -0.00526  -3.09905
   D11        3.12393   0.00093   0.00000   0.00359   0.00359   3.12752
   D12       -0.03206   0.00086   0.00000   0.00140   0.00140  -0.03066
         Item               Value     Threshold  Converged?
 Maximum Force            0.007310     0.000450     NO 
 RMS     Force            0.002178     0.000300     NO 
 Maximum Displacement     0.022936     0.001800     NO 
 RMS     Displacement     0.008873     0.001200     NO 
 Predicted change in Energy=-1.563928D-04
 Lowest energy point so far.  Saving SCF results.
 GradGradGradGradGradGradGradGradGradGradGradGradGradGradGradGradGradGrad

 Leave Link  103 at Wed May 12 11:56:08 2021, MaxMem=  2147483648 cpu:         0.0
 (Enter /opt/cluster/programs/g09_d.01/g09/l202.exe)
                          Input orientation:                          
 ---------------------------------------------------------------------
 Center     Atomic      Atomic             Coordinates (Angstroms)
 Number     Number       Type             X           Y           Z
 ---------------------------------------------------------------------
      1          6           0       -1.701106   -0.678407   -0.096941
      2          6           0       -0.520511   -0.082954    0.052021
      3          6           0        0.804976   -0.685771    0.121474
      4          6           0        1.950346   -0.032823   -0.107106
      5          1           0       -2.613938   -0.103859   -0.181107
      6          1           0       -1.765323   -1.759157   -0.126743
      7          9           0       -0.499308    1.330554    0.063845
      8          1           0        0.808951   -1.755826    0.313640
      9          1           0        1.968454    1.031686   -0.313666
     10          1           0        2.901201   -0.552361   -0.076707
 ---------------------------------------------------------------------
                    Distance matrix (angstroms):
                    1          2          3          4          5
     1  C    0.000000
     2  C    1.330623   0.000000
     3  C    2.515593   1.457782   0.000000
     4  C    3.708098   2.476484   1.338082   0.000000
     5  H    1.081874   2.106471   3.481257   4.565437   0.000000
     6  H    1.083067   2.095512   2.796463   4.097172   1.860945
     7  F    2.346507   1.413716   2.402091   2.808705   2.566944
     8  H    2.762209   2.152770   1.087181   2.109159   3.832746
     9  H    4.054265   2.751563   2.119596   1.084516   4.722854
    10  H    4.604078   3.456159   2.109795   1.083960   5.534331
                    6          7          8          9         10
     6  H    0.000000
     7  F    3.344463   0.000000
     8  H    2.611673   3.361499   0.000000
     9  H    4.665280   2.514296   3.083534   0.000000
    10  H    4.820302   3.889548   2.445038   1.853476   0.000000
 Stoichiometry    C4H5F
 Framework group  C1[X(C4H5F)]
 Deg. of freedom    24
 Full point group                 C1      NOp   1
 RotChk:  IX=0 Diff= 4.84D-03
 Largest Abelian subgroup         C1      NOp   1
 Largest concise Abelian subgroup C1      NOp   1
                         Standard orientation:                         
 ---------------------------------------------------------------------
 Center     Atomic      Atomic             Coordinates (Angstroms)
 Number     Number       Type             X           Y           Z
 ---------------------------------------------------------------------
      1          6           0        1.699543   -0.681831    0.095968
      2          6           0        0.520516   -0.083011   -0.051914
      3          6           0       -0.806500   -0.682260   -0.123014
      4          6           0       -1.950240   -0.026884    0.106782
      5          1           0        2.613830   -0.109823    0.181627
      6          1           0        1.760974   -1.762808    0.123353
      7          9           0        0.502949    1.330569   -0.060563
      8          1           0       -0.813184   -1.751867   -0.317587
      9          1           0       -1.965658    1.037200    0.315732
     10          1           0       -2.902421   -0.543906    0.075005
 ---------------------------------------------------------------------
 Rotational constants (GHZ):      9.5551794      4.2083717      2.9480720
 Leave Link  202 at Wed May 12 11:56:09 2021, MaxMem=  2147483648 cpu:         0.0
 (Enter /opt/cluster/programs/g09_d.01/g09/l301.exe)
 Standard basis: 6-31+G (6D, 7F)
 Ernie: Thresh=  0.10000D-02 Tol=  0.10000D-05 Strict=F.
 There are    75 symmetry adapted cartesian basis functions of A   symmetry.
 There are    75 symmetry adapted basis functions of A   symmetry.
    75 basis functions,   150 primitive gaussians,    75 cartesian basis functions
    19 alpha electrons       19 beta electrons
       nuclear repulsion energy       157.8921108316 Hartrees.
 IExCor= 4639 DFT=T Ex+Corr=wB97XD ExCW=0 ScaHFX=  1.000000
 ScaDFX=  1.000000  1.000000  1.000000  1.000000 ScalE2=  1.000000  1.000000
 IRadAn=      0 IRanWt=     -1 IRanGd=            0 ICorTp=0 IEmpDi=121
  HFx wShort=  0.000000 wLong=  0.200000 cFull=  0.222036 cShort=  0.000000 cLong=  0.777964
  DFx wShort=  0.000000 wLong=  0.200000 cFull=  0.000000 cShort=  0.000000 cLong=  1.000000
 NAtoms=   10 NActive=   10 NUniq=   10 SFac= 1.00D+00 NAtFMM=   60 NAOKFM=F Big=F
 Integral buffers will be    131072 words long.
 Raffenetti 2 integral format.
 Two-electron integral symmetry is turned on.
 R6Disp:  Grimme-D2 Dispersion energy=       -0.0029402851 Hartrees.
 Nuclear repulsion after empirical dispersion term =      157.8891705465 Hartrees.
 Leave Link  301 at Wed May 12 11:56:09 2021, MaxMem=  2147483648 cpu:         0.3
 (Enter /opt/cluster/programs/g09_d.01/g09/l302.exe)
 NPDir=0 NMtPBC=     1 NCelOv=     1 NCel=       1 NClECP=     1 NCelD=      1
         NCelK=      1 NCelE2=     1 NClLst=     1 CellRange=     0.0.
 One-electron integrals computed using PRISM.
 NBasis=    75 RedAO= T EigKep=  3.56D-05  NBF=    75
 NBsUse=    75 1.00D-06 EigRej= -1.00D+00 NBFU=    75
 Precomputing XC quadrature grid using
 IXCGrd= 4 IRadAn=           0 IRanWt=          -1 IRanGd=           0 AccXCQ= 0.00D+00.
 Generated NRdTot=       0 NPtTot=           0 NUsed=           0 NTot=          32
 NSgBfM=    75    75    75    75    75 MxSgAt=    10 MxSgA2=    10.
 Leave Link  302 at Wed May 12 11:56:09 2021, MaxMem=  2147483648 cpu:         0.8
 (Enter /opt/cluster/programs/g09_d.01/g09/l303.exe)
 DipDrv:  MaxL=1.
 Leave Link  303 at Wed May 12 11:56:09 2021, MaxMem=  2147483648 cpu:         0.2
 (Enter /opt/cluster/programs/g09_d.01/g09/l401.exe)
 Initial guess from the checkpoint file:  "/home/unibas/boittier/RDKit_G2/B.pdb/SCAN_1_2_3_4_S_17_20.0/17_SCAN_1_2_3_4_F/B.pdb.chk"
 B after Tr=     0.000000    0.000000    0.000000
         Rot=    0.999999    0.000121   -0.000059    0.001138 Ang=   0.13 deg.
 Guess basis will be translated and rotated to current coordinates.
 JPrj=2 DoOrth=T DoCkMO=T.
 Generating alternative initial guess.
 ExpMin= 4.38D-02 ExpMax= 7.00D+03 ExpMxC= 1.05D+03 IAcc=2 IRadAn=         4 AccDes= 0.00D+00
 Harris functional with IExCor= 4639 and IRadAn=       4 diagonalized for initial guess.
 HarFok:  IExCor= 4639 AccDes= 0.00D+00 IRadAn=         4 IDoV= 1 UseB2=F ITyADJ=14
 ICtDFT=  3500011 ScaDFX=  1.000000  1.000000  1.000000  1.000000
 FoFCou: FMM=F IPFlag=           0 FMFlag=      100000 FMFlg1=           0
         NFxFlg=           0 DoJE=T BraDBF=F KetDBF=T FulRan=T
         wScrn=  0.000000 ICntrl=     500 IOpCl=  0 I1Cent=   200000004 NGrid=           0
         NMat0=    1 NMatS0=      1 NMatT0=    0 NMatD0=    1 NMtDS0=    0 NMtDT0=    0
 Petite list used in FoFCou.
 Harris En= -244.786180574450    
 Leave Link  401 at Wed May 12 11:56:09 2021, MaxMem=  2147483648 cpu:         1.7
 (Enter /opt/cluster/programs/g09_d.01/g09/l502.exe)
 Closed shell SCF:
 Using DIIS extrapolation, IDIIS=  1040.
 Integral symmetry usage will be decided dynamically.
 Keep R1 ints in memory in canonical form, NReq=9056162.
 IVT=       36600 IEndB=       36600 NGot=  2147483648 MDV=  2139321699
 LenX=  2139321699 LenY=  2139315633
 Requested convergence on RMS density matrix=1.00D-08 within 128 cycles.
 Requested convergence on MAX density matrix=1.00D-06.
 Requested convergence on             energy=1.00D-06.
 No special actions if energy rises.
 FoFCou: FMM=F IPFlag=           0 FMFlag=           0 FMFlg1=           0
         NFxFlg=           0 DoJE=F BraDBF=F KetDBF=F FulRan=T
         wScrn=  0.000000 ICntrl=     600 IOpCl=  0 I1Cent=           0 NGrid=           0
         NMat0=    1 NMatS0=   2850 NMatT0=    0 NMatD0=    1 NMtDS0=    0 NMtDT0=    0
 Symmetry not used in FoFCou.

 Cycle   1  Pass 1  IDiag  1:
 E= -255.100774810411    
 DIIS: error= 5.37D-04 at cycle   1 NSaved=   1.
 NSaved= 1 IEnMin= 1 EnMin= -255.100774810411     IErMin= 1 ErrMin= 5.37D-04
 ErrMax= 5.37D-04  0.00D+00 EMaxC= 1.00D-01 BMatC= 5.29D-05 BMatP= 5.29D-05
 IDIUse=3 WtCom= 9.95D-01 WtEn= 5.37D-03
 Coeff-Com:  0.100D+01
 Coeff-En:   0.100D+01
 Coeff:      0.100D+01
 Gap=     0.570 Goal=   None    Shift=    0.000
 RMSDP=7.47D-04 MaxDP=1.57D-02              OVMax= 2.17D-03

 Cycle   2  Pass 1  IDiag  1:
 E= -255.100853711133     Delta-E=       -0.000078900723 Rises=F Damp=F
 DIIS: error= 1.58D-04 at cycle   2 NSaved=   2.
 NSaved= 2 IEnMin= 2 EnMin= -255.100853711133     IErMin= 2 ErrMin= 1.58D-04
 ErrMax= 1.58D-04  0.00D+00 EMaxC= 1.00D-01 BMatC= 4.02D-06 BMatP= 5.29D-05
 IDIUse=3 WtCom= 9.98D-01 WtEn= 1.58D-03
 Coeff-Com:  0.344D-01 0.966D+00
 Coeff-En:   0.000D+00 0.100D+01
 Coeff:      0.344D-01 0.966D+00
 Gap=     0.347 Goal=   None    Shift=    0.000
 RMSDP=1.38D-04 MaxDP=3.54D-03 DE=-7.89D-05 OVMax= 9.20D-04

 Cycle   3  Pass 1  IDiag  1:
 E= -255.100859542833     Delta-E=       -0.000005831700 Rises=F Damp=F
 DIIS: error= 1.13D-04 at cycle   3 NSaved=   3.
 NSaved= 3 IEnMin= 3 EnMin= -255.100859542833     IErMin= 3 ErrMin= 1.13D-04
 ErrMax= 1.13D-04  0.00D+00 EMaxC= 1.00D-01 BMatC= 1.22D-06 BMatP= 4.02D-06
 IDIUse=3 WtCom= 9.99D-01 WtEn= 1.13D-03
 Coeff-Com: -0.640D-01 0.321D+00 0.743D+00
 Coeff-En:   0.000D+00 0.000D+00 0.100D+01
 Coeff:     -0.640D-01 0.321D+00 0.743D+00
 Gap=     0.347 Goal=   None    Shift=    0.000
 RMSDP=3.85D-05 MaxDP=7.08D-04 DE=-5.83D-06 OVMax= 3.38D-04

 Cycle   4  Pass 1  IDiag  1:
 E= -255.100860875870     Delta-E=       -0.000001333037 Rises=F Damp=F
 DIIS: error= 3.64D-05 at cycle   4 NSaved=   4.
 NSaved= 4 IEnMin= 4 EnMin= -255.100860875870     IErMin= 4 ErrMin= 3.64D-05
 ErrMax= 3.64D-05  0.00D+00 EMaxC= 1.00D-01 BMatC= 1.49D-07 BMatP= 1.22D-06
 IDIUse=1 WtCom= 1.00D+00 WtEn= 0.00D+00
 Coeff-Com: -0.252D-01 0.541D-01 0.291D+00 0.680D+00
 Coeff:     -0.252D-01 0.541D-01 0.291D+00 0.680D+00
 Gap=     0.347 Goal=   None    Shift=    0.000
 RMSDP=1.24D-05 MaxDP=2.39D-04 DE=-1.33D-06 OVMax= 1.41D-04

 Cycle   5  Pass 1  IDiag  1:
 E= -255.100861038020     Delta-E=       -0.000000162151 Rises=F Damp=F
 DIIS: error= 1.17D-05 at cycle   5 NSaved=   5.
 NSaved= 5 IEnMin= 5 EnMin= -255.100861038020     IErMin= 5 ErrMin= 1.17D-05
 ErrMax= 1.17D-05  0.00D+00 EMaxC= 1.00D-01 BMatC= 2.23D-08 BMatP= 1.49D-07
 IDIUse=1 WtCom= 1.00D+00 WtEn= 0.00D+00
 Coeff-Com:  0.828D-02-0.640D-01-0.968D-01 0.246D+00 0.907D+00
 Coeff:      0.828D-02-0.640D-01-0.968D-01 0.246D+00 0.907D+00
 Gap=     0.347 Goal=   None    Shift=    0.000
 RMSDP=8.00D-06 MaxDP=1.73D-04 DE=-1.62D-07 OVMax= 1.05D-04

 Cycle   6  Pass 1  IDiag  1:
 E= -255.100861079393     Delta-E=       -0.000000041373 Rises=F Damp=F
 DIIS: error= 2.73D-06 at cycle   6 NSaved=   6.
 NSaved= 6 IEnMin= 6 EnMin= -255.100861079393     IErMin= 6 ErrMin= 2.73D-06
 ErrMax= 2.73D-06  0.00D+00 EMaxC= 1.00D-01 BMatC= 3.32D-10 BMatP= 2.23D-08
 IDIUse=1 WtCom= 1.00D+00 WtEn= 0.00D+00
 Coeff-Com:  0.298D-03 0.293D-02-0.625D-02-0.414D-01-0.101D+00 0.115D+01
 Coeff:      0.298D-03 0.293D-02-0.625D-02-0.414D-01-0.101D+00 0.115D+01
 Gap=     0.347 Goal=   None    Shift=    0.000
 RMSDP=2.61D-06 MaxDP=5.14D-05 DE=-4.14D-08 OVMax= 2.70D-05

 Cycle   7  Pass 1  IDiag  1:
 E= -255.100861080730     Delta-E=       -0.000000001336 Rises=F Damp=F
 DIIS: error= 1.52D-06 at cycle   7 NSaved=   7.
 NSaved= 7 IEnMin= 7 EnMin= -255.100861080730     IErMin= 7 ErrMin= 1.52D-06
 ErrMax= 1.52D-06  0.00D+00 EMaxC= 1.00D-01 BMatC= 1.48D-10 BMatP= 3.32D-10
 IDIUse=1 WtCom= 1.00D+00 WtEn= 0.00D+00
 Coeff-Com: -0.308D-03 0.539D-02 0.279D-02-0.357D-01-0.104D+00 0.553D+00
 Coeff-Com:  0.579D+00
 Coeff:     -0.308D-03 0.539D-02 0.279D-02-0.357D-01-0.104D+00 0.553D+00
 Coeff:      0.579D+00
 Gap=     0.347 Goal=   None    Shift=    0.000
 RMSDP=6.22D-07 MaxDP=9.70D-06 DE=-1.34D-09 OVMax= 5.59D-06

 Cycle   8  Pass 1  IDiag  1:
 E= -255.100861080907     Delta-E=       -0.000000000177 Rises=F Damp=F
 DIIS: error= 2.00D-07 at cycle   8 NSaved=   8.
 NSaved= 8 IEnMin= 8 EnMin= -255.100861080907     IErMin= 8 ErrMin= 2.00D-07
 ErrMax= 2.00D-07  0.00D+00 EMaxC= 1.00D-01 BMatC= 4.04D-12 BMatP= 1.48D-10
 IDIUse=1 WtCom= 1.00D+00 WtEn= 0.00D+00
 Coeff-Com: -0.971D-04 0.318D-03 0.148D-02 0.389D-03 0.366D-04-0.837D-01
 Coeff-Com:  0.614D-01 0.102D+01
 Coeff:     -0.971D-04 0.318D-03 0.148D-02 0.389D-03 0.366D-04-0.837D-01
 Coeff:      0.614D-01 0.102D+01
 Gap=     0.347 Goal=   None    Shift=    0.000
 RMSDP=1.90D-07 MaxDP=2.85D-06 DE=-1.77D-10 OVMax= 1.89D-06

 Cycle   9  Pass 1  IDiag  1:
 E= -255.100861080920     Delta-E=       -0.000000000013 Rises=F Damp=F
 DIIS: error= 5.58D-08 at cycle   9 NSaved=   9.
 NSaved= 9 IEnMin= 9 EnMin= -255.100861080920     IErMin= 9 ErrMin= 5.58D-08
 ErrMax= 5.58D-08  0.00D+00 EMaxC= 1.00D-01 BMatC= 2.25D-13 BMatP= 4.04D-12
 IDIUse=1 WtCom= 1.00D+00 WtEn= 0.00D+00
 Coeff-Com: -0.851D-06-0.190D-03 0.785D-04 0.179D-02 0.454D-02-0.380D-01
 Coeff-Com: -0.145D-01 0.162D+00 0.885D+00
 Coeff:     -0.851D-06-0.190D-03 0.785D-04 0.179D-02 0.454D-02-0.380D-01
 Coeff:     -0.145D-01 0.162D+00 0.885D+00
 Gap=     0.347 Goal=   None    Shift=    0.000
 RMSDP=4.80D-08 MaxDP=8.17D-07 DE=-1.30D-11 OVMax= 3.43D-07

 Cycle  10  Pass 1  IDiag  1:
 E= -255.100861080918     Delta-E=        0.000000000001 Rises=F Damp=F
 DIIS: error= 3.00D-08 at cycle  10 NSaved=  10.
 NSaved=10 IEnMin= 9 EnMin= -255.100861080920     IErMin=10 ErrMin= 3.00D-08
 ErrMax= 3.00D-08  0.00D+00 EMaxC= 1.00D-01 BMatC= 6.16D-14 BMatP= 2.25D-13
 IDIUse=1 WtCom= 1.00D+00 WtEn= 0.00D+00
 Coeff-Com:  0.938D-05-0.105D-03-0.127D-03 0.687D-03 0.173D-02-0.620D-02
 Coeff-Com: -0.121D-01-0.515D-01 0.358D+00 0.709D+00
 Coeff:      0.938D-05-0.105D-03-0.127D-03 0.687D-03 0.173D-02-0.620D-02
 Coeff:     -0.121D-01-0.515D-01 0.358D+00 0.709D+00
 Gap=     0.347 Goal=   None    Shift=    0.000
 RMSDP=1.60D-08 MaxDP=3.29D-07 DE= 1.42D-12 OVMax= 1.43D-07

 Cycle  11  Pass 1  IDiag  1:
 E= -255.100861080919     Delta-E=       -0.000000000001 Rises=F Damp=F
 DIIS: error= 7.58D-09 at cycle  11 NSaved=  11.
 NSaved=11 IEnMin= 9 EnMin= -255.100861080920     IErMin=11 ErrMin= 7.58D-09
 ErrMax= 7.58D-09  0.00D+00 EMaxC= 1.00D-01 BMatC= 3.41D-15 BMatP= 6.16D-14
 IDIUse=1 WtCom= 1.00D+00 WtEn= 0.00D+00
 Coeff-Com:  0.252D-05-0.969D-05-0.376D-04 0.746D-05 0.404D-04 0.178D-02
 Coeff-Com: -0.124D-02-0.251D-01-0.291D-02 0.148D+00 0.879D+00
 Coeff:      0.252D-05-0.969D-05-0.376D-04 0.746D-05 0.404D-04 0.178D-02
 Coeff:     -0.124D-02-0.251D-01-0.291D-02 0.148D+00 0.879D+00
 Gap=     0.347 Goal=   None    Shift=    0.000
 RMSDP=4.91D-09 MaxDP=8.52D-08 DE=-6.82D-13 OVMax= 4.70D-08

 SCF Done:  E(RwB97XD) =  -255.100861081     A.U. after   11 cycles
            NFock= 11  Conv=0.49D-08     -V/T= 2.0056
 KE= 2.536793547895D+02 PE=-9.134533557617D+02 EE= 2.467839693448D+02
 Leave Link  502 at Wed May 12 11:56:11 2021, MaxMem=  2147483648 cpu:        11.2
 (Enter /opt/cluster/programs/g09_d.01/g09/l701.exe)
 Compute integral first derivatives.
 ... and contract with generalized density number  0.
 R6Disp: Adding Grimme-D2 dispersion energy 1st derivatives to the gradient.
 Leave Link  701 at Wed May 12 11:56:11 2021, MaxMem=  2147483648 cpu:         0.6
 (Enter /opt/cluster/programs/g09_d.01/g09/l702.exe)
 L702 exits ... SP integral derivatives will be done elsewhere.
 Leave Link  702 at Wed May 12 11:56:11 2021, MaxMem=  2147483648 cpu:         0.2
 (Enter /opt/cluster/programs/g09_d.01/g09/l703.exe)
 Compute integral first derivatives, UseDBF=F ICtDFT=           0.
 Integral derivatives from FoFJK, PRISM(SPDF).
 Calling FoFJK, ICntrl=      2127 FMM=F ISym2X=0 I1Cent= 0 IOpClX= 0 NMat=1 NMatS=1 NMatT=0.
 FoFJK:  IHMeth= 1 ICntrl=    2127 DoSepK=T KAlg= 0 I1Cent=   0 FoldK=F
 IRaf=         1 NMat=   1 IRICut=       1 DoRegI=T DoRafI=F ISym2E= 0.
 FoFCou: FMM=F IPFlag=           0 FMFlag=      100000 FMFlg1=         800
         NFxFlg=           0 DoJE=F BraDBF=F KetDBF=F FulRan=T
         wScrn=  0.000000 ICntrl=    2527 IOpCl=  0 I1Cent=           0 NGrid=           0
         NMat0=    1 NMatS0=      1 NMatT0=    0 NMatD0=    1 NMtDS0=    0 NMtDT0=    0
 Symmetry not used in FoFCou.
 Leave Link  703 at Wed May 12 11:56:11 2021, MaxMem=  2147483648 cpu:         3.3
 (Enter /opt/cluster/programs/g09_d.01/g09/l716.exe)
 Dipole        =-1.50851291D-01-8.26546984D-01 6.09006815D-02
 ***** Axes restored to original set *****
 -------------------------------------------------------------------
 Center     Atomic                   Forces (Hartrees/Bohr)
 Number     Number              X              Y              Z
 -------------------------------------------------------------------
      1        6          -0.000934376   -0.001319727    0.003360228
      2        6          -0.000083408    0.004275987   -0.003638513
      3        6          -0.000118380   -0.002620361   -0.002641647
      4        6           0.000870473    0.001214612    0.003061259
      5        1          -0.000087918   -0.000050219   -0.000000543
      6        1          -0.000051785    0.000030408   -0.000103512
      7        9           0.000378222   -0.001683439    0.000016960
      8        1          -0.000172885    0.000030614    0.000039082
      9        1           0.000076271    0.000023754   -0.000038484
     10        1           0.000123785    0.000098370   -0.000054830
 -------------------------------------------------------------------
 Cartesian Forces:  Max     0.004275987 RMS     0.001570230
 Leave Link  716 at Wed May 12 11:56:12 2021, MaxMem=  2147483648 cpu:         0.2
 (Enter /opt/cluster/programs/g09_d.01/g09/l103.exe)

 GradGradGradGradGradGradGradGradGradGradGradGradGradGradGradGradGradGrad
 Berny optimization.
 Using GEDIIS/GDIIS optimizer.
 FormGI is forming the generalized inverse of G from B-inverse, IUseBI=4.
 Internal  Forces:  Max     0.003269812 RMS     0.000958061
 Search for a local minimum.
 Step number   2 out of a maximum of   43
 All quantities printed in internal units (Hartrees-Bohrs-Radians)
 RMS Force = .51386D-03 SwitMx=.10000D-02 MixMth= 2
 Mixed Optimization -- En-DIIS/RFO-DIIS
 Update second derivatives using D2CorX and points    1    2
 DE= -1.59D-04 DEPred=-1.56D-04 R= 1.01D+00
 TightC=F SS=  1.41D+00  RLast= 3.32D-02 DXNew= 5.0454D-01 9.9527D-02
 Trust test= 1.01D+00 RLast= 3.32D-02 DXMaxT set to 3.00D-01
 ITU=  1  0
 Use linear search instead of GDIIS.
     Eigenvalues ---    0.01743   0.02150   0.02818   0.02821   0.02911
     Eigenvalues ---    0.02919   0.15940   0.15994   0.16000   0.16000
     Eigenvalues ---    0.16173   0.21681   0.24002   0.24985   0.34066
     Eigenvalues ---    0.35110   0.35415   0.35458   0.35589   0.35729
     Eigenvalues ---    0.39213   0.56868   0.700721000.000001000.00000
     Eigenvalues --- 1000.000001000.000001000.000001000.000001000.00000
     Eigenvalues --- 1000.000001000.000001000.00000
 RFO step:  Lambda=-2.28343777D-05 EMin= 1.74272175D-02
 Quartic linear search produced a step of  0.01216.
 Iteration  1 RMS(Cart)=  0.00223208 RMS(Int)=  0.00000327
 Iteration  2 RMS(Cart)=  0.00000415 RMS(Int)=  0.00000044
 Iteration  3 RMS(Cart)=  0.00000000 RMS(Int)=  0.00000044
 Iteration  1 RMS(Cart)=  0.00000027 RMS(Int)=  0.00000019
 ITry= 1 IFail=0 DXMaxC= 4.89D-03 DCOld= 1.00D+10 DXMaxT= 3.00D-01 DXLimC= 3.00D+00 Rises=F
 Variable       Old X    -DE/DX   Delta X   Delta X   Delta X     New X
                                 (Linear)    (Quad)   (Total)
    R1        2.51451   0.00119  -0.00015   0.00132   0.00116   2.51568
    R2        2.04445   0.00005  -0.00002   0.00005   0.00003   2.04448
    R3        2.04670  -0.00002  -0.00001  -0.00013  -0.00014   2.04656
    R4        2.75481   0.00124   0.00003   0.00351   0.00354   2.75835
    R5        2.67154  -0.00168  -0.00018  -0.00494  -0.00513   2.66641
    R6        2.52861   0.00107  -0.00016   0.00114   0.00099   2.52960
    R7        2.05447  -0.00003  -0.00002  -0.00016  -0.00017   2.05430
    R8        2.04944   0.00003  -0.00001   0.00006   0.00005   2.04949
    R9        2.04839   0.00006  -0.00002   0.00007   0.00005   2.04844
    A1        2.11727   0.00008  -0.00002   0.00046   0.00044   2.11770
    A2        2.09697   0.00002  -0.00003  -0.00001  -0.00004   2.09693
    A3        2.06890  -0.00011   0.00005  -0.00043  -0.00038   2.06852
    A4        2.24851  -0.00070  -0.00003  -0.00312  -0.00315   2.24537
    A5        2.05068   0.00100   0.00003   0.00380   0.00383   2.05451
    A6        1.98168  -0.00020   0.00001  -0.00065  -0.00064   1.98104
    A7        2.17533  -0.00007  -0.00006  -0.00070  -0.00076   2.17457
    A8        2.00286  -0.00016   0.00004  -0.00068  -0.00064   2.00222
    A9        2.10290   0.00032   0.00002   0.00149   0.00151   2.10441
   A10        2.12445   0.00000  -0.00002  -0.00010  -0.00012   2.12433
   A11        2.10853   0.00016  -0.00003   0.00091   0.00089   2.10942
   A12        2.05009  -0.00016   0.00004  -0.00079  -0.00075   2.04934
    D1       -3.08935  -0.00083  -0.00008  -0.00080  -0.00088  -3.09023
    D2       -0.02605   0.00081   0.00002  -0.00020  -0.00018  -0.02623
    D3        0.06255  -0.00090  -0.00007  -0.00306  -0.00313   0.05942
    D4        3.12584   0.00074   0.00003  -0.00245  -0.00243   3.12342
    D5        2.79272   0.00327   0.00000   0.00000   0.00000   2.79272
    D6       -0.27942   0.00166  -0.00008  -0.00187  -0.00194  -0.28136
    D7       -0.27312   0.00164  -0.00010  -0.00075  -0.00085  -0.27397
    D8        2.93793   0.00003  -0.00017  -0.00262  -0.00279   2.93514
    D9        0.05913  -0.00087  -0.00004  -0.00214  -0.00217   0.05695
   D10       -3.09905  -0.00082  -0.00006  -0.00023  -0.00029  -3.09935
   D11        3.12752   0.00081   0.00004  -0.00025  -0.00021   3.12731
   D12       -0.03066   0.00086   0.00002   0.00165   0.00167  -0.02899
         Item               Value     Threshold  Converged?
 Maximum Force            0.001678     0.000450     NO 
 RMS     Force            0.000514     0.000300     NO 
 Maximum Displacement     0.004889     0.001800     NO 
 RMS     Displacement     0.002231     0.001200     NO 
 Predicted change in Energy=-1.145135D-05
 Lowest energy point so far.  Saving SCF results.
 GradGradGradGradGradGradGradGradGradGradGradGradGradGradGradGradGradGrad

 Leave Link  103 at Wed May 12 11:56:12 2021, MaxMem=  2147483648 cpu:         0.0
 (Enter /opt/cluster/programs/g09_d.01/g09/l202.exe)
                          Input orientation:                          
 ---------------------------------------------------------------------
 Center     Atomic      Atomic             Coordinates (Angstroms)
 Number     Number       Type             X           Y           Z
 ---------------------------------------------------------------------
      1          6           0       -1.701589   -0.678393   -0.096826
      2          6           0       -0.521589   -0.080433    0.052299
      3          6           0        0.804844   -0.685703    0.121713
      4          6           0        1.950952   -0.033077   -0.107155
      5          1           0       -2.615828   -0.105983   -0.180501
      6          1           0       -1.763402   -1.759131   -0.129330
      7          9           0       -0.497804    1.330308    0.065358
      8          1           0        0.806845   -1.755345    0.315687
      9          1           0        1.969271    1.031099   -0.315547
     10          1           0        2.902041   -0.552258   -0.076988
 ---------------------------------------------------------------------
                    Distance matrix (angstroms):
                    1          2          3          4          5
     1  C    0.000000
     2  C    1.331238   0.000000
     3  C    2.515953   1.459655   0.000000
     4  C    3.709123   2.478129   1.338605   0.000000
     5  H    1.081890   2.107293   3.482586   4.567950   0.000000
     6  H    1.082992   2.095976   2.794844   4.095873   1.860684
     7  F    2.347399   1.411002   2.400910   2.808021   2.570876
     8  H    2.760839   2.153935   1.087089   2.110446   3.831616
     9  H    4.055295   2.752308   2.120023   1.084544   4.725920
    10  H    4.605400   3.458406   2.110811   1.083988   5.536854
                    6          7          8          9         10
     6  H    0.000000
     7  F    3.344289   0.000000
     8  H    2.608490   3.359467   0.000000
     9  H    4.664001   2.514174   3.084471   0.000000
    10  H    4.819298   3.888863   2.447746   1.853103   0.000000
 Stoichiometry    C4H5F
 Framework group  C1[X(C4H5F)]
 Deg. of freedom    24
 Full point group                 C1      NOp   1
 RotChk:  IX=0 Diff= 1.05D-03
 Largest Abelian subgroup         C1      NOp   1
 Largest concise Abelian subgroup C1      NOp   1
                         Standard orientation:                         
 ---------------------------------------------------------------------
 Center     Atomic      Atomic             Coordinates (Angstroms)
 Number     Number       Type             X           Y           Z
 ---------------------------------------------------------------------
      1          6           0        1.700470   -0.681428    0.096049
      2          6           0        0.521813   -0.080503   -0.051775
      3          6           0       -0.805896   -0.682712   -0.123370
      4          6           0       -1.950675   -0.028272    0.106965
      5          1           0        2.615911   -0.111231    0.181670
      6          1           0        1.759943   -1.762385    0.125491
      7          9           0        0.501073    1.330318   -0.060817
      8          1           0       -0.810134   -1.751789   -0.320396
      9          1           0       -1.966774    1.035344    0.318385
     10          1           0       -2.902870   -0.545313    0.074990
 ---------------------------------------------------------------------
 Rotational constants (GHZ):      9.5576612      4.2068911      2.9477898
 Leave Link  202 at Wed May 12 11:56:12 2021, MaxMem=  2147483648 cpu:         0.0
 (Enter /opt/cluster/programs/g09_d.01/g09/l301.exe)
 Standard basis: 6-31+G (6D, 7F)
 Ernie: Thresh=  0.10000D-02 Tol=  0.10000D-05 Strict=F.
 There are    75 symmetry adapted cartesian basis functions of A   symmetry.
 There are    75 symmetry adapted basis functions of A   symmetry.
    75 basis functions,   150 primitive gaussians,    75 cartesian basis functions
    19 alpha electrons       19 beta electrons
       nuclear repulsion energy       157.8925838269 Hartrees.
 IExCor= 4639 DFT=T Ex+Corr=wB97XD ExCW=0 ScaHFX=  1.000000
 ScaDFX=  1.000000  1.000000  1.000000  1.000000 ScalE2=  1.000000  1.000000
 IRadAn=      0 IRanWt=     -1 IRanGd=            0 ICorTp=0 IEmpDi=121
  HFx wShort=  0.000000 wLong=  0.200000 cFull=  0.222036 cShort=  0.000000 cLong=  0.777964
  DFx wShort=  0.000000 wLong=  0.200000 cFull=  0.000000 cShort=  0.000000 cLong=  1.000000
 NAtoms=   10 NActive=   10 NUniq=   10 SFac= 1.00D+00 NAtFMM=   60 NAOKFM=F Big=F
 Integral buffers will be    131072 words long.
 Raffenetti 2 integral format.
 Two-electron integral symmetry is turned on.
 R6Disp:  Grimme-D2 Dispersion energy=       -0.0029409889 Hartrees.
 Nuclear repulsion after empirical dispersion term =      157.8896428380 Hartrees.
 Leave Link  301 at Wed May 12 11:56:12 2021, MaxMem=  2147483648 cpu:         0.3
 (Enter /opt/cluster/programs/g09_d.01/g09/l302.exe)
 NPDir=0 NMtPBC=     1 NCelOv=     1 NCel=       1 NClECP=     1 NCelD=      1
         NCelK=      1 NCelE2=     1 NClLst=     1 CellRange=     0.0.
 One-electron integrals computed using PRISM.
 NBasis=    75 RedAO= T EigKep=  3.58D-05  NBF=    75
 NBsUse=    75 1.00D-06 EigRej= -1.00D+00 NBFU=    75
 Precomputing XC quadrature grid using
 IXCGrd= 4 IRadAn=           0 IRanWt=          -1 IRanGd=           0 AccXCQ= 0.00D+00.
 Generated NRdTot=       0 NPtTot=           0 NUsed=           0 NTot=          32
 NSgBfM=    75    75    75    75    75 MxSgAt=    10 MxSgA2=    10.
 Leave Link  302 at Wed May 12 11:56:12 2021, MaxMem=  2147483648 cpu:         0.8
 (Enter /opt/cluster/programs/g09_d.01/g09/l303.exe)
 DipDrv:  MaxL=1.
 Leave Link  303 at Wed May 12 11:56:12 2021, MaxMem=  2147483648 cpu:         0.2
 (Enter /opt/cluster/programs/g09_d.01/g09/l401.exe)
 Initial guess from the checkpoint file:  "/home/unibas/boittier/RDKit_G2/B.pdb/SCAN_1_2_3_4_S_17_20.0/17_SCAN_1_2_3_4_F/B.pdb.chk"
 B after Tr=     0.000000    0.000000    0.000000
         Rot=    1.000000   -0.000064    0.000010   -0.000340 Ang=  -0.04 deg.
 Guess basis will be translated and rotated to current coordinates.
 JPrj=2 DoOrth=T DoCkMO=T.
 Leave Link  401 at Wed May 12 11:56:12 2021, MaxMem=  2147483648 cpu:         0.6
 (Enter /opt/cluster/programs/g09_d.01/g09/l502.exe)
 Closed shell SCF:
 Using DIIS extrapolation, IDIIS=  1040.
 Integral symmetry usage will be decided dynamically.
 Keep R1 ints in memory in canonical form, NReq=9056162.
 IVT=       36600 IEndB=       36600 NGot=  2147483648 MDV=  2139321699
 LenX=  2139321699 LenY=  2139315633
 Requested convergence on RMS density matrix=1.00D-08 within 128 cycles.
 Requested convergence on MAX density matrix=1.00D-06.
 Requested convergence on             energy=1.00D-06.
 No special actions if energy rises.
 FoFCou: FMM=F IPFlag=           0 FMFlag=           0 FMFlg1=           0
         NFxFlg=           0 DoJE=F BraDBF=F KetDBF=F FulRan=T
         wScrn=  0.000000 ICntrl=     600 IOpCl=  0 I1Cent=           0 NGrid=           0
         NMat0=    1 NMatS0=   2850 NMatT0=    0 NMatD0=    1 NMtDS0=    0 NMtDT0=    0
 Symmetry not used in FoFCou.

 Cycle   1  Pass 1  IDiag  1:
 E= -255.100865626841    
 DIIS: error= 1.91D-04 at cycle   1 NSaved=   1.
 NSaved= 1 IEnMin= 1 EnMin= -255.100865626841     IErMin= 1 ErrMin= 1.91D-04
 ErrMax= 1.91D-04  0.00D+00 EMaxC= 1.00D-01 BMatC= 6.69D-06 BMatP= 6.69D-06
 IDIUse=3 WtCom= 9.98D-01 WtEn= 1.91D-03
 Coeff-Com:  0.100D+01
 Coeff-En:   0.100D+01
 Coeff:      0.100D+01
 Gap=     0.570 Goal=   None    Shift=    0.000
 RMSDP=1.20D-04 MaxDP=2.30D-03              OVMax= 8.06D-04

 Cycle   2  Pass 1  IDiag  1:
 E= -255.100874609406     Delta-E=       -0.000008982564 Rises=F Damp=F
 DIIS: error= 1.11D-04 at cycle   2 NSaved=   2.
 NSaved= 2 IEnMin= 2 EnMin= -255.100874609406     IErMin= 2 ErrMin= 1.11D-04
 ErrMax= 1.11D-04  0.00D+00 EMaxC= 1.00D-01 BMatC= 1.38D-06 BMatP= 6.69D-06
 IDIUse=3 WtCom= 9.99D-01 WtEn= 1.11D-03
 Coeff-Com:  0.179D+00 0.821D+00
 Coeff-En:   0.000D+00 0.100D+01
 Coeff:      0.179D+00 0.821D+00
 Gap=     0.347 Goal=   None    Shift=    0.000
 RMSDP=4.35D-05 MaxDP=8.62D-04 DE=-8.98D-06 OVMax= 3.08D-04

 Cycle   3  Pass 1  IDiag  1:
 E= -255.100875266144     Delta-E=       -0.000000656738 Rises=F Damp=F
 DIIS: error= 1.04D-04 at cycle   3 NSaved=   3.
 NSaved= 3 IEnMin= 3 EnMin= -255.100875266144     IErMin= 3 ErrMin= 1.04D-04
 ErrMax= 1.04D-04  0.00D+00 EMaxC= 1.00D-01 BMatC= 8.54D-07 BMatP= 1.38D-06
 IDIUse=3 WtCom= 9.99D-01 WtEn= 1.04D-03
 Coeff-Com: -0.946D-01 0.449D+00 0.646D+00
 Coeff-En:   0.000D+00 0.263D+00 0.737D+00
 Coeff:     -0.945D-01 0.448D+00 0.646D+00
 Gap=     0.347 Goal=   None    Shift=    0.000
 RMSDP=2.55D-05 MaxDP=5.65D-04 DE=-6.57D-07 OVMax= 1.72D-04

 Cycle   4  Pass 1  IDiag  1:
 E= -255.100875897620     Delta-E=       -0.000000631477 Rises=F Damp=F
 DIIS: error= 8.15D-06 at cycle   4 NSaved=   4.
 NSaved= 4 IEnMin= 4 EnMin= -255.100875897620     IErMin= 4 ErrMin= 8.15D-06
 ErrMax= 8.15D-06  0.00D+00 EMaxC= 1.00D-01 BMatC= 6.92D-09 BMatP= 8.54D-07
 IDIUse=1 WtCom= 1.00D+00 WtEn= 0.00D+00
 Coeff-Com: -0.149D-01 0.202D-01 0.839D-01 0.911D+00
 Coeff:     -0.149D-01 0.202D-01 0.839D-01 0.911D+00
 Gap=     0.347 Goal=   None    Shift=    0.000
 RMSDP=4.34D-06 MaxDP=6.21D-05 DE=-6.31D-07 OVMax= 4.53D-05

 Cycle   5  Pass 1  IDiag  1:
 E= -255.100875909341     Delta-E=       -0.000000011720 Rises=F Damp=F
 DIIS: error= 4.18D-06 at cycle   5 NSaved=   5.
 NSaved= 5 IEnMin= 5 EnMin= -255.100875909341     IErMin= 5 ErrMin= 4.18D-06
 ErrMax= 4.18D-06  0.00D+00 EMaxC= 1.00D-01 BMatC= 1.45D-09 BMatP= 6.92D-09
 IDIUse=1 WtCom= 1.00D+00 WtEn= 0.00D+00
 Coeff-Com:  0.733D-02-0.532D-01-0.550D-01 0.307D+00 0.794D+00
 Coeff:      0.733D-02-0.532D-01-0.550D-01 0.307D+00 0.794D+00
 Gap=     0.347 Goal=   None    Shift=    0.000
 RMSDP=2.29D-06 MaxDP=4.01D-05 DE=-1.17D-08 OVMax= 2.07D-05

 Cycle   6  Pass 1  IDiag  1:
 E= -255.100875911836     Delta-E=       -0.000000002495 Rises=F Damp=F
 DIIS: error= 1.04D-06 at cycle   6 NSaved=   6.
 NSaved= 6 IEnMin= 6 EnMin= -255.100875911836     IErMin= 6 ErrMin= 1.04D-06
 ErrMax= 1.04D-06  0.00D+00 EMaxC= 1.00D-01 BMatC= 1.10D-10 BMatP= 1.45D-09
 IDIUse=1 WtCom= 1.00D+00 WtEn= 0.00D+00
 Coeff-Com:  0.334D-02-0.171D-01-0.232D-01 0.283D-01 0.229D+00 0.780D+00
 Coeff:      0.334D-02-0.171D-01-0.232D-01 0.283D-01 0.229D+00 0.780D+00
 Gap=     0.347 Goal=   None    Shift=    0.000
 RMSDP=5.07D-07 MaxDP=6.59D-06 DE=-2.50D-09 OVMax= 7.20D-06

 Cycle   7  Pass 1  IDiag  1:
 E= -255.100875912030     Delta-E=       -0.000000000195 Rises=F Damp=F
 DIIS: error= 5.85D-07 at cycle   7 NSaved=   7.
 NSaved= 7 IEnMin= 7 EnMin= -255.100875912030     IErMin= 7 ErrMin= 5.85D-07
 ErrMax= 5.85D-07  0.00D+00 EMaxC= 1.00D-01 BMatC= 2.31D-11 BMatP= 1.10D-10
 IDIUse=1 WtCom= 1.00D+00 WtEn= 0.00D+00
 Coeff-Com: -0.260D-03 0.413D-02 0.163D-02-0.487D-01-0.698D-01 0.287D+00
 Coeff-Com:  0.826D+00
 Coeff:     -0.260D-03 0.413D-02 0.163D-02-0.487D-01-0.698D-01 0.287D+00
 Coeff:      0.826D+00
 Gap=     0.347 Goal=   None    Shift=    0.000
 RMSDP=2.52D-07 MaxDP=4.21D-06 DE=-1.95D-10 OVMax= 2.82D-06

 Cycle   8  Pass 1  IDiag  1:
 E= -255.100875912071     Delta-E=       -0.000000000040 Rises=F Damp=F
 DIIS: error= 8.05D-08 at cycle   8 NSaved=   8.
 NSaved= 8 IEnMin= 8 EnMin= -255.100875912071     IErMin= 8 ErrMin= 8.05D-08
 ErrMax= 8.05D-08  0.00D+00 EMaxC= 1.00D-01 BMatC= 7.20D-13 BMatP= 2.31D-11
 IDIUse=1 WtCom= 1.00D+00 WtEn= 0.00D+00
 Coeff-Com: -0.223D-03 0.179D-02 0.165D-02-0.113D-01-0.263D-01 0.131D-01
 Coeff-Com:  0.165D+00 0.857D+00
 Coeff:     -0.223D-03 0.179D-02 0.165D-02-0.113D-01-0.263D-01 0.131D-01
 Coeff:      0.165D+00 0.857D+00
 Gap=     0.347 Goal=   None    Shift=    0.000
 RMSDP=5.28D-08 MaxDP=6.51D-07 DE=-4.04D-11 OVMax= 5.91D-07

 Cycle   9  Pass 1  IDiag  1:
 E= -255.100875912074     Delta-E=       -0.000000000003 Rises=F Damp=F
 DIIS: error= 3.53D-08 at cycle   9 NSaved=   9.
 NSaved= 9 IEnMin= 9 EnMin= -255.100875912074     IErMin= 9 ErrMin= 3.53D-08
 ErrMax= 3.53D-08  0.00D+00 EMaxC= 1.00D-01 BMatC= 1.12D-13 BMatP= 7.20D-13
 IDIUse=1 WtCom= 1.00D+00 WtEn= 0.00D+00
 Coeff-Com: -0.453D-04 0.697D-04 0.360D-03 0.206D-02-0.378D-04-0.293D-01
 Coeff-Com: -0.503D-01 0.242D+00 0.835D+00
 Coeff:     -0.453D-04 0.697D-04 0.360D-03 0.206D-02-0.378D-04-0.293D-01
 Coeff:     -0.503D-01 0.242D+00 0.835D+00
 Gap=     0.347 Goal=   None    Shift=    0.000
 RMSDP=2.36D-08 MaxDP=3.40D-07 DE=-3.35D-12 OVMax= 2.86D-07

 Cycle  10  Pass 1  IDiag  1:
 E= -255.100875912071     Delta-E=        0.000000000003 Rises=F Damp=F
 DIIS: error= 1.84D-08 at cycle  10 NSaved=  10.
 NSaved=10 IEnMin= 9 EnMin= -255.100875912074     IErMin=10 ErrMin= 1.84D-08
 ErrMax= 1.84D-08  0.00D+00 EMaxC= 1.00D-01 BMatC= 1.34D-14 BMatP= 1.12D-13
 IDIUse=1 WtCom= 1.00D+00 WtEn= 0.00D+00
 Coeff-Com:  0.208D-05-0.108D-03-0.139D-04 0.158D-02 0.200D-02-0.973D-02
 Coeff-Com: -0.301D-01 0.151D-01 0.283D+00 0.738D+00
 Coeff:      0.208D-05-0.108D-03-0.139D-04 0.158D-02 0.200D-02-0.973D-02
 Coeff:     -0.301D-01 0.151D-01 0.283D+00 0.738D+00
 Gap=     0.347 Goal=   None    Shift=    0.000
 RMSDP=1.13D-08 MaxDP=2.08D-07 DE= 3.41D-12 OVMax= 5.85D-08

 Cycle  11  Pass 1  IDiag  1:
 E= -255.100875912073     Delta-E=       -0.000000000002 Rises=F Damp=F
 DIIS: error= 3.97D-09 at cycle  11 NSaved=  11.
 NSaved=11 IEnMin= 9 EnMin= -255.100875912074     IErMin=11 ErrMin= 3.97D-09
 ErrMax= 3.97D-09  0.00D+00 EMaxC= 1.00D-01 BMatC= 1.72D-15 BMatP= 1.34D-14
 IDIUse=1 WtCom= 1.00D+00 WtEn= 0.00D+00
 Coeff-Com:  0.778D-05-0.511D-04-0.655D-04 0.281D-03 0.697D-03 0.100D-02
 Coeff-Com: -0.415D-02-0.331D-01-0.229D-01 0.260D+00 0.798D+00
 Coeff:      0.778D-05-0.511D-04-0.655D-04 0.281D-03 0.697D-03 0.100D-02
 Coeff:     -0.415D-02-0.331D-01-0.229D-01 0.260D+00 0.798D+00
 Gap=     0.347 Goal=   None    Shift=    0.000
 RMSDP=5.20D-09 MaxDP=1.08D-07 DE=-1.71D-12 OVMax= 3.18D-08

 SCF Done:  E(RwB97XD) =  -255.100875912     A.U. after   11 cycles
            NFock= 11  Conv=0.52D-08     -V/T= 2.0056
 KE= 2.536769809945D+02 PE=-9.134473235399D+02 EE= 2.467798237953D+02
 Leave Link  502 at Wed May 12 11:56:20 2021, MaxMem=  2147483648 cpu:        56.7
 (Enter /opt/cluster/programs/g09_d.01/g09/l701.exe)
 Compute integral first derivatives.
 ... and contract with generalized density number  0.
 R6Disp: Adding Grimme-D2 dispersion energy 1st derivatives to the gradient.
 Leave Link  701 at Wed May 12 11:56:20 2021, MaxMem=  2147483648 cpu:         0.6
 (Enter /opt/cluster/programs/g09_d.01/g09/l702.exe)
 L702 exits ... SP integral derivatives will be done elsewhere.
 Leave Link  702 at Wed May 12 11:56:20 2021, MaxMem=  2147483648 cpu:         0.2
 (Enter /opt/cluster/programs/g09_d.01/g09/l703.exe)
 Compute integral first derivatives, UseDBF=F ICtDFT=           0.
 Integral derivatives from FoFJK, PRISM(SPDF).
 Calling FoFJK, ICntrl=      2127 FMM=F ISym2X=0 I1Cent= 0 IOpClX= 0 NMat=1 NMatS=1 NMatT=0.
 FoFJK:  IHMeth= 1 ICntrl=    2127 DoSepK=T KAlg= 0 I1Cent=   0 FoldK=F
 IRaf=         1 NMat=   1 IRICut=       1 DoRegI=T DoRafI=F ISym2E= 0.
 FoFCou: FMM=F IPFlag=           0 FMFlag=      100000 FMFlg1=         800
         NFxFlg=           0 DoJE=F BraDBF=F KetDBF=F FulRan=T
         wScrn=  0.000000 ICntrl=    2527 IOpCl=  0 I1Cent=           0 NGrid=           0
         NMat0=    1 NMatS0=      1 NMatT0=    0 NMatD0=    1 NMtDS0=    0 NMtDT0=    0
 Symmetry not used in FoFCou.
 Leave Link  703 at Wed May 12 11:56:21 2021, MaxMem=  2147483648 cpu:         3.3
 (Enter /opt/cluster/programs/g09_d.01/g09/l716.exe)
 Dipole        =-1.49071883D-01-8.21288540D-01 6.14831147D-02
 ***** Axes restored to original set *****
 -------------------------------------------------------------------
 Center     Atomic                   Forces (Hartrees/Bohr)
 Number     Number              X              Y              Z
 -------------------------------------------------------------------
      1        6          -0.000467211   -0.000686307    0.003280721
      2        6           0.000663958    0.002027012   -0.003634626
      3        6          -0.000515640   -0.001806516   -0.002677257
      4        6           0.000316683    0.000875355    0.002998792
      5        1          -0.000084583   -0.000013974    0.000003069
      6        1          -0.000012048    0.000003186   -0.000002398
      7        9           0.000047371   -0.000441473    0.000025337
      8        1          -0.000051019   -0.000010663   -0.000017491
      9        1           0.000039889    0.000027701    0.000019468
     10        1           0.000062600    0.000025679    0.000004385
 -------------------------------------------------------------------
 Cartesian Forces:  Max     0.003634626 RMS     0.001290796
 Leave Link  716 at Wed May 12 11:56:21 2021, MaxMem=  2147483648 cpu:         0.2
 (Enter /opt/cluster/programs/g09_d.01/g09/l103.exe)

 GradGradGradGradGradGradGradGradGradGradGradGradGradGradGradGradGradGrad
 Berny optimization.
 Using GEDIIS/GDIIS optimizer.
 FormGI is forming the generalized inverse of G from B-inverse, IUseBI=4.
 Internal  Forces:  Max     0.003243195 RMS     0.000824946
 Search for a local minimum.
 Step number   3 out of a maximum of   43
 All quantities printed in internal units (Hartrees-Bohrs-Radians)
 RMS Force = .17251D-03 SwitMx=.10000D-02 MixMth= 2
 Mixed Optimization -- En-DIIS/RFO-DIIS
 Swapping is turned off.
 Update second derivatives using D2CorX and points    1    2    3
[...]
 Number     Number              X              Y              Z
 -------------------------------------------------------------------
      1        6          -0.000314399   -0.000230644    0.003352063
      2        6           0.000680612    0.000793859   -0.003577732
      3        6          -0.000552290   -0.001300691   -0.002821821
      4        6           0.000206730    0.000746786    0.003131575
      5        1          -0.000011164   -0.000016218   -0.000018724
      6        1           0.000006833   -0.000003670   -0.000022217
      7        9          -0.000024534    0.000005601   -0.000007515
      8        1          -0.000006365    0.000005739   -0.000017781
      9        1           0.000007025   -0.000001427   -0.000003919
     10        1           0.000007551    0.000000667   -0.000013928
 -------------------------------------------------------------------
 Cartesian Forces:  Max     0.003577732 RMS     0.001233577
 Leave Link  716 at Wed May 12 11:56:26 2021, MaxMem=  2147483648 cpu:         0.2
 (Enter /opt/cluster/programs/g09_d.01/g09/l103.exe)

 GradGradGradGradGradGradGradGradGradGradGradGradGradGradGradGradGradGrad
 Berny optimization.
 Using GEDIIS/GDIIS optimizer.
 FormGI is forming the generalized inverse of G from B-inverse, IUseBI=4.
 Internal  Forces:  Max     0.003232170 RMS     0.000805065
 Search for a local minimum.
 Step number   4 out of a maximum of   43
 All quantities printed in internal units (Hartrees-Bohrs-Radians)
 RMS Force = .26148D-04 SwitMx=.10000D-02 MixMth= 2
 Mixed Optimization -- En-DIIS/RFO-DIIS
 Swapping is turned off.
 Update second derivatives using D2CorX and points    1    2    3    4
 DE= -2.26D-06 DEPred=-2.27D-06 R= 9.95D-01
 TightC=F SS=  1.41D+00  RLast= 5.56D-03 DXNew= 5.0454D-01 1.6675D-02
 Trust test= 9.95D-01 RLast= 5.56D-03 DXMaxT set to 3.00D-01
 ITU=  1  1  1  0
     Eigenvalues ---    0.01768   0.02174   0.02818   0.02850   0.02921
     Eigenvalues ---    0.02979   0.13777   0.15991   0.16001   0.16003
     Eigenvalues ---    0.16129   0.17846   0.22160   0.25725   0.34944
     Eigenvalues ---    0.35395   0.35425   0.35516   0.35621   0.35877
     Eigenvalues ---    0.39032   0.56961   0.657491000.000001000.00000
     Eigenvalues --- 1000.000001000.000001000.000001000.000001000.00000
     Eigenvalues --- 1000.000001000.000001000.00000
 En-DIIS/RFO-DIIS IScMMF=        0 using points:     4    3    2
 RFO step:  Lambda=-7.26887222D-07.
 NNeg= 0 NP= 3 Switch=  2.50D-03 Rises=F DC=  1.48D-05 SmlDif=  1.00D-05
 RMS Error=  0.7318870820D-04 NUsed= 3 EDIIS=F
 DidBck=F Rises=F RFO-DIIS coefs:    1.01793   -0.01251   -0.00542
 Iteration  1 RMS(Cart)=  0.00042677 RMS(Int)=  0.00000042
 Iteration  2 RMS(Cart)=  0.00000019 RMS(Int)=  0.00000040
 Iteration  1 RMS(Cart)=  0.00000033 RMS(Int)=  0.00000023
 ITry= 1 IFail=0 DXMaxC= 1.07D-03 DCOld= 1.00D+10 DXMaxT= 3.00D-01 DXLimC= 3.00D+00 Rises=F
 Variable       Old X    -DE/DX   Delta X   Delta X   Delta X     New X
                                 (Linear)    (Quad)   (Total)
    R1        2.51642   0.00003   0.00002   0.00004   0.00006   2.51648
    R2        2.04468   0.00000   0.00000   0.00000   0.00000   2.04468
    R3        2.04651   0.00001   0.00000   0.00002   0.00002   2.04653
    R4        2.75962  -0.00007   0.00004  -0.00018  -0.00014   2.75949
    R5        2.66403   0.00000  -0.00007  -0.00002  -0.00009   2.66395
    R6        2.52998   0.00002   0.00001   0.00004   0.00005   2.53003
    R7        2.05426  -0.00001   0.00000  -0.00003  -0.00003   2.05423
    R8        2.04958   0.00000   0.00000   0.00001   0.00001   2.04959
    R9        2.04855   0.00000   0.00000   0.00001   0.00001   2.04857
    A1        2.11836   0.00004   0.00001   0.00026   0.00028   2.11863
    A2        2.09658  -0.00003  -0.00001  -0.00018  -0.00019   2.09639
    A3        2.06821  -0.00001  -0.00001  -0.00007  -0.00008   2.06813
    A4        2.24227  -0.00004  -0.00007  -0.00030  -0.00037   2.24190
    A5        2.05669   0.00009   0.00006  -0.00002   0.00004   2.05673
    A6        1.98201   0.00004   0.00001   0.00028   0.00029   1.98230
    A7        2.17392   0.00006  -0.00002   0.00014   0.00013   2.17405
    A8        2.00205  -0.00005  -0.00001  -0.00010  -0.00010   2.00195
    A9        2.10520   0.00008   0.00002  -0.00005  -0.00003   2.10518
   A10        2.12437   0.00000   0.00000   0.00001   0.00001   2.12438
   A11        2.10985   0.00001   0.00001   0.00008   0.00009   2.10994
   A12        2.04886  -0.00001  -0.00001  -0.00007  -0.00008   2.04878
    D1       -3.09147  -0.00080  -0.00003   0.00080   0.00077  -3.09070
    D2       -0.02646   0.00083  -0.00001   0.00005   0.00005  -0.02642
    D3        0.05914  -0.00083  -0.00002   0.00005   0.00003   0.05917
    D4        3.12414   0.00081   0.00000  -0.00069  -0.00070   3.12345
    D5        2.79272   0.00323   0.00000   0.00000   0.00000   2.79272
    D6       -0.28091   0.00167   0.00000   0.00004   0.00003  -0.28088
    D7       -0.27500   0.00165  -0.00002   0.00073   0.00071  -0.27429
    D8        2.93456   0.00009  -0.00003   0.00077   0.00074   2.93530
    D9        0.05781  -0.00084   0.00000  -0.00045  -0.00045   0.05736
   D10       -3.09968  -0.00081  -0.00001   0.00046   0.00046  -3.09922
   D11        3.12765   0.00081   0.00001  -0.00049  -0.00049   3.12717
   D12       -0.02984   0.00084  -0.00001   0.00043   0.00042  -0.02942
         Item               Value     Threshold  Converged?
 Maximum Force            0.000070     0.000450     YES
 RMS     Force            0.000026     0.000300     YES
 Maximum Displacement     0.001072     0.001800     YES
 RMS     Displacement     0.000427     0.001200     YES
 Predicted change in Energy=-8.267961D-08
 Optimization completed.
    -- Stationary point found.
                           ----------------------------
                           !   Optimized Parameters   !
                           ! (Angstroms and Degrees)  !
 --------------------------                            --------------------------
 ! Name  Definition              Value          Derivative Info.                !
 --------------------------------------------------------------------------------
 ! R1    R(1,2)                  1.3316         -DE/DX =    0.0                 !
 ! R2    R(1,5)                  1.082          -DE/DX =    0.0                 !
 ! R3    R(1,6)                  1.083          -DE/DX =    0.0                 !
 ! R4    R(2,3)                  1.4603         -DE/DX =   -0.0001              !
 ! R5    R(2,7)                  1.4097         -DE/DX =    0.0                 !
 ! R6    R(3,4)                  1.3388         -DE/DX =    0.0                 !
 ! R7    R(3,8)                  1.0871         -DE/DX =    0.0                 !
 ! R8    R(4,9)                  1.0846         -DE/DX =    0.0                 !
 ! R9    R(4,10)                 1.084          -DE/DX =    0.0                 !
 ! A1    A(2,1,5)              121.373          -DE/DX =    0.0                 !
 ! A2    A(2,1,6)              120.1254         -DE/DX =    0.0                 !
 ! A3    A(5,1,6)              118.4996         -DE/DX =    0.0                 !
 ! A4    A(1,2,3)              128.4727         -DE/DX =    0.0                 !
 ! A5    A(1,2,7)              117.8396         -DE/DX =    0.0001              !
 ! A6    A(3,2,7)              113.5608         -DE/DX =    0.0                 !
 ! A7    A(2,3,4)              124.5566         -DE/DX =    0.0001              !
 ! A8    A(2,3,8)              114.7091         -DE/DX =    0.0                 !
 ! A9    A(4,3,8)              120.6192         -DE/DX =    0.0001              !
 ! A10   A(3,4,9)              121.7176         -DE/DX =    0.0                 !
 ! A11   A(3,4,10)             120.8854         -DE/DX =    0.0                 !
 ! A12   A(9,4,10)             117.391          -DE/DX =    0.0                 !
 ! D1    D(5,1,2,3)           -177.1281         -DE/DX =   -0.0008              !
 ! D2    D(5,1,2,7)             -1.5162         -DE/DX =    0.0008              !
 ! D3    D(6,1,2,3)              3.3883         -DE/DX =   -0.0008              !
 ! D4    D(6,1,2,7)            179.0001         -DE/DX =    0.0008              !
 ! D5    D(1,2,3,4)            160.0109         -DE/DX =    0.0032              !
 ! D6    D(1,2,3,8)            -16.095          -DE/DX =    0.0017              !
 ! D7    D(7,2,3,4)            -15.7562         -DE/DX =    0.0017              !
 ! D8    D(7,2,3,8)            168.1379         -DE/DX =    0.0001              !
 ! D9    D(2,3,4,9)              3.3124         -DE/DX =   -0.0008              !
 ! D10   D(2,3,4,10)          -177.5984         -DE/DX =   -0.0008              !
 ! D11   D(8,3,4,9)            179.2013         -DE/DX =    0.0008              !
 ! D12   D(8,3,4,10)            -1.7095         -DE/DX =    0.0008              !
 --------------------------------------------------------------------------------
 Lowest energy point so far.  Saving SCF results.
 GradGradGradGradGradGradGradGradGradGradGradGradGradGradGradGradGradGrad

 Largest change from initial coordinates is atom    6       0.010 Angstoms.
 Leave Link  103 at Wed May 12 11:56:26 2021, MaxMem=  2147483648 cpu:         0.7
 (Enter /opt/cluster/programs/g09_d.01/g09/l202.exe)
                          Input orientation:                          
 ---------------------------------------------------------------------
 Center     Atomic      Atomic             Coordinates (Angstroms)
 Number     Number       Type             X           Y           Z
 ---------------------------------------------------------------------
      1          6           0       -1.701192   -0.678367   -0.097091
      2          6           0       -0.521917   -0.078109    0.052044
      3          6           0        0.804307   -0.685427    0.121732
      4          6           0        1.951034   -0.033596   -0.107491
      5          1           0       -2.616979   -0.108165   -0.180278
      6          1           0       -1.760729   -1.759221   -0.129195
      7          9           0       -0.497693    1.331361    0.065889
      8          1           0        0.804654   -1.755067    0.315614
      9          1           0        1.970211    1.030704   -0.315424
     10          1           0        2.902047   -0.553029   -0.077088
 ---------------------------------------------------------------------
                    Distance matrix (angstroms):
                    1          2          3          4          5
     1  C    0.000000
     2  C    1.331631   0.000000
     3  C    2.515046   1.460329   0.000000
     4  C    3.708719   2.478491   1.338809   0.000000
     5  H    1.081996   2.108118   3.482762   4.569201   0.000000
     6  H    1.082968   2.096101   2.792025   4.093340   1.860580
     7  F    2.348187   1.409746   2.401198   2.808813   2.573753
     8  H    2.758419   2.154402   1.087069   2.111081   3.829591
     9  H    4.055588   2.752308   2.120270   1.084592   4.728381
    10  H    4.604989   3.459154   2.111296   1.084048   5.537887
                    6          7          8          9         10
     6  H    0.000000
     7  F    3.344400   0.000000
     8  H    2.603664   3.359242   0.000000
     9  H    4.662432   2.515222   3.085004   0.000000
    10  H    4.816543   3.889678   2.449115   1.852925   0.000000
 Stoichiometry    C4H5F
 Framework group  C1[X(C4H5F)]
 Deg. of freedom    24
 Full point group                 C1      NOp   1
 RotChk:  IX=0 Diff= 2.75D-16
 Largest Abelian subgroup         C1      NOp   1
 Largest concise Abelian subgroup C1      NOp   1
                         Standard orientation:                         
 ---------------------------------------------------------------------
 Center     Atomic      Atomic             Coordinates (Angstroms)
 Number     Number       Type             X           Y           Z
 ---------------------------------------------------------------------
      1          6           0        1.699846   -0.682413    0.096206
      2          6           0        0.522100   -0.078808   -0.051499
      3          6           0       -0.805569   -0.682665   -0.123691
      4          6           0       -1.950803   -0.028780    0.107137
      5          1           0        2.616982   -0.114713    0.181606
      6          1           0        1.756735   -1.763505    0.124872
      7          9           0        0.501314    1.330754   -0.060838
      8          1           0       -0.808439   -1.751675   -0.321000
      9          1           0       -1.967477    1.034893    0.318473
     10          1           0       -2.903066   -0.545792    0.074670
 ---------------------------------------------------------------------
 Rotational constants (GHZ):      9.5506641      4.2075856      2.9475222
 Leave Link  202 at Wed May 12 11:56:26 2021, MaxMem=  2147483648 cpu:         0.0
 (Enter /opt/cluster/programs/g09_d.01/g09/l601.exe)
 Copying SCF densities to generalized density rwf, IOpCl= 0 IROHF=0.

 **********************************************************************

            Population analysis using the SCF density.

 **********************************************************************

 Orbital symmetries:
       Occupied  (A) (A) (A) (A) (A) (A) (A) (A) (A) (A) (A) (A)
                 (A) (A) (A) (A) (A) (A) (A)
       Virtual   (A) (A) (A) (A) (A) (A) (A) (A) (A) (A) (A) (A)
                 (A) (A) (A) (A) (A) (A) (A) (A) (A) (A) (A) (A)
                 (A) (A) (A) (A) (A) (A) (A) (A) (A) (A) (A) (A)
                 (A) (A) (A) (A) (A) (A) (A) (A) (A) (A) (A) (A)
                 (A) (A) (A) (A) (A) (A) (A) (A)
 The electronic state is 1-A.
 Alpha  occ. eigenvalues --  -24.83264 -10.40345 -10.32906 -10.31399 -10.31152
 Alpha  occ. eigenvalues --   -1.31340  -0.92826  -0.86508  -0.73184  -0.66577
 Alpha  occ. eigenvalues --   -0.60331  -0.58684  -0.54623  -0.53299  -0.50396
 Alpha  occ. eigenvalues --   -0.48208  -0.45748  -0.41061  -0.32843
 Alpha virt. eigenvalues --    0.01826   0.06792   0.08069   0.09819   0.10379
 Alpha virt. eigenvalues --    0.11441   0.12120   0.12886   0.14301   0.15169
 Alpha virt. eigenvalues --    0.16209   0.16567   0.18855   0.19817   0.20147
 Alpha virt. eigenvalues --    0.22070   0.22287   0.24595   0.26156   0.28782
 Alpha virt. eigenvalues --    0.30206   0.30462   0.32589   0.38924   0.40917
 Alpha virt. eigenvalues --    0.42212   0.43671   0.45379   0.49308   0.50090
 Alpha virt. eigenvalues --    0.53505   0.69466   0.74154   0.77034   0.78653
 Alpha virt. eigenvalues --    0.82311   0.83110   0.84617   0.88926   0.92621
 Alpha virt. eigenvalues --    0.99951   1.03179   1.03865   1.10765   1.14198
 Alpha virt. eigenvalues --    1.15765   1.19859   1.25488   1.29255   1.34341
 Alpha virt. eigenvalues --    1.42390   1.46976   1.66198   1.82430   1.86073
 Alpha virt. eigenvalues --    2.39436
          Condensed to atoms (all electrons):
               1          2          3          4          5          6
     1  C    6.480664  -0.351095  -0.097823  -0.167557   0.388558   0.338117
     2  C   -0.351095   5.999252  -0.334753   0.257845  -0.054516  -0.016765
     3  C   -0.097823  -0.334753   6.299520   0.109081   0.019768   0.015274
     4  C   -0.167557   0.257845   0.109081   5.462434  -0.000795   0.000769
     5  H    0.388558  -0.054516   0.019768  -0.000795   0.448318  -0.019458
     6  H    0.338117  -0.016765   0.015274   0.000769  -0.019458   0.469640
     7  F   -0.171062   0.299011  -0.145363  -0.001290  -0.002555   0.004317
     8  H   -0.022807   0.025579   0.290274   0.011572   0.000095   0.000744
     9  H   -0.008797   0.009277  -0.069672   0.414438   0.000004  -0.000003
    10  H    0.003628   0.019701  -0.038120   0.362873   0.000001  -0.000002
               7          8          9         10
     1  C   -0.171062  -0.022807  -0.008797   0.003628
     2  C    0.299011   0.025579   0.009277   0.019701
     3  C   -0.145363   0.290274  -0.069672  -0.038120
     4  C   -0.001290   0.011572   0.414438   0.362873
     5  H   -0.002555   0.000095   0.000004   0.000001
     6  H    0.004317   0.000744  -0.000003  -0.000002
     7  F    9.335175   0.003608   0.000158   0.000478
     8  H    0.003608   0.475455   0.002499  -0.003382
     9  H    0.000158   0.002499   0.451750  -0.023275
    10  H    0.000478  -0.003382  -0.023275   0.480639
 Mulliken charges:
               1
     1  C   -0.391826
     2  C    0.146465
     3  C   -0.048186
     4  C   -0.449369
     5  H    0.220582
     6  H    0.207368
     7  F   -0.322476
     8  H    0.216362
     9  H    0.223621
    10  H    0.197459
 Sum of Mulliken charges =   0.00000
 Mulliken charges with hydrogens summed into heavy atoms:
               1
     1  C    0.036123
     2  C    0.146465
     3  C    0.168177
     4  C   -0.028289
     7  F   -0.322476
 Electronic spatial extent (au):  <R**2>=            423.6931
 Charge=              0.0000 electrons
 Dipole moment (field-independent basis, Debye):
    X=             -0.3783    Y=             -2.0816    Z=              0.1543  Tot=              2.1213
 Quadrupole moment (field-independent basis, Debye-Ang):
   XX=            -24.9600   YY=            -29.5213   ZZ=            -32.6600
   XY=             -1.2811   XZ=              0.0966   YZ=              0.7431
 Traceless Quadrupole moment (field-independent basis, Debye-Ang):
   XX=              4.0871   YY=             -0.4742   ZZ=             -3.6129
   XY=             -1.2811   XZ=              0.0966   YZ=              0.7431
 Octapole moment (field-independent basis, Debye-Ang**2):
  XXX=              2.8412  YYY=              1.3597  ZZZ=             -0.5632  XYY=             -0.6308
  XXY=              1.8995  XXZ=              1.8913  XZZ=              1.6313  YZZ=              4.9054
  YYZ=             -0.2016  XYZ=             -1.1237
 Hexadecapole moment (field-independent basis, Debye-Ang**3):
 XXXX=           -329.4945 YYYY=           -136.9039 ZZZZ=            -39.6614 XXXY=              8.6967
 XXXZ=              0.7787 YYYX=             -1.7311 YYYZ=              1.5410 ZZZX=             -0.4802
 ZZZY=              0.0118 XXYY=            -80.9937 XXZZ=            -77.5875 YYZZ=            -31.9796
 XXYZ=              0.9134 YYXZ=              0.6011 ZZXY=              2.1420
 N-N= 1.578861294845D+02 E-N=-9.134361851942D+02  KE= 2.536756147758D+02
 No NMR shielding tensors so no spin-rotation constants.
 Leave Link  601 at Wed May 12 11:56:27 2021, MaxMem=  2147483648 cpu:         0.6
 (Enter /opt/cluster/programs/g09_d.01/g09/l9999.exe)
 1\1\GINC-NODE13\FOpt\RwB97XD\6-31+G\C4H5F1\BOITTIER\12-May-2021\0\\#p 
 wB97XD/6-31+G Opt=ModRedun\\B.pdb\\0,1\C,-1.7011924906,-0.6783672601,-
 0.0970905942\C,-0.5219168984,-0.0781092989,0.0520438319\C,0.8043065356
 ,-0.6854271806,0.1217318877\C,1.9510337361,-0.0335964974,-0.1074907538
 \H,-2.6169785294,-0.1081647248,-0.1802784957\H,-1.7607291427,-1.759220
 5865,-0.129194947\F,-0.4976925773,1.3313607904,0.0658891991\H,0.804654
 2336,-1.7550671032,0.3156138865\H,1.9702106223,1.0307036134,-0.3154244
 527\H,2.9020465107,-0.5530287523,-0.0770875619\\Version=ES64L-G09RevD.
 01\State=1-A\HF=-255.1008782\RMSD=9.415e-09\RMSF=1.234e-03\Dipole=0.14
 68056,-0.8191291,-0.0633857\Quadrupole=3.0433201,-0.3536397,-2.6896804
 ,0.9437694,0.0710861,-0.5455524\PG=C01 [X(C4H5F1)]\\@


 WE HAVE LEARNED THAT NOTHING IS SIMPLE AND
 RATIONAL EXCEPT WHAT WE OURSELVES HAVE INVENTED;
 THAT GOD THINKS IN TERMS NEITHER OF EUCLID OR RIEMANN; THAT SCIENCE HAS "EXPLAINED" NOTHING;
 THAT THE MORE WE KNOW THE MORE FANTASTIC THE WORLD BECOMES
 AND THE PROFOUNDER THE SURROUNDING DARKNESS.
   --  ALDOUS HUXLEY
 Job cpu time:       0 days  0 hours  2 minutes 20.7 seconds.
 File lengths (MBytes):  RWF=      5 Int=      0 D2E=      0 Chk=      2 Scr=      1
 Normal termination of Gaussian 09 at Wed May 12 11:56:27 2021.
