B.pdb                                                                   
FOpt      RwB97XD                                                     6-31+G              
Number of atoms                            I               10
Info1-9                                    I   N=           9
          21          21           0           0           0         110
           2          18        -802
Charge                                     I                0
Multiplicity                               I                1
Number of electrons                        I               38
Number of alpha electrons                  I               19
Number of beta electrons                   I               19
Number of basis functions                  I               75
Number of independent functions            I               75
Number of point charges in /Mol/           I                0
Number of translation vectors              I                0
Atomic numbers                             I   N=          10
           6           6           6           6           1           1
           9           1           1           1
Nuclear charges                            R   N=          10
  6.00000000E+00  6.00000000E+00  6.00000000E+00  6.00000000E+00  1.00000000E+00
  1.00000000E+00  9.00000000E+00  1.00000000E+00  1.00000000E+00  1.00000000E+00
Current cartesian coordinates              R   N=          30
  3.21224255E+00 -1.28957346E+00  1.81803833E-01  9.86625152E-01 -1.48925374E-01
 -9.73197371E-02 -1.52230539E+00 -1.29005060E+00 -2.33741745E-01 -3.68648419E+00
 -5.43853928E-02  2.02460358E-01  4.94537942E+00 -2.16776915E-01  3.43185897E-01
  3.31974898E+00 -3.33254224E+00  2.35973853E-01  9.47347014E-01  2.51476089E+00
 -1.14967376E-01 -1.52772915E+00 -3.31018541E+00 -6.06601476E-01 -3.71799238E+00
  1.95566358E+00  6.01825968E-01 -5.48599876E+00 -1.03139810E+00  1.41105887E-01
Force Field                                I                0
Int Atom Types                             I   N=          10
           0           0           0           0           0           0
           0           0           0           0
MM charges                                 R   N=          10
  0.00000000E+00  0.00000000E+00  0.00000000E+00  0.00000000E+00  0.00000000E+00
  0.00000000E+00  0.00000000E+00  0.00000000E+00  0.00000000E+00  0.00000000E+00
Integer atomic weights                     I   N=          10
          12          12          12          12           1           1
          19           1           1           1
Real atomic weights                        R   N=          10
  1.20000000E+01  1.20000000E+01  1.20000000E+01  1.20000000E+01  1.00782504E+00
  1.00782504E+00  1.89984032E+01  1.00782504E+00  1.00782504E+00  1.00782504E+00
Atom fragment info                         I   N=          10
           0           0           0           0           0           0
           0           0           0           0
Atom residue num                           I   N=          10
           0           0           0           0           0           0
           0           0           0           0
Nuclear spins                              I   N=          10
           0           0           0           0           1           1
           1           1           1           1
Nuclear ZEff                               R   N=          10
 -3.60000000E+00 -3.60000000E+00 -3.60000000E+00 -3.60000000E+00 -1.00000000E+00
 -1.00000000E+00 -6.75000000E+00 -1.00000000E+00 -1.00000000E+00 -1.00000000E+00
Nuclear ZNuc                               R   N=          10
  6.00000000E+00  6.00000000E+00  6.00000000E+00  6.00000000E+00  1.00000000E+00
  1.00000000E+00  9.00000000E+00  1.00000000E+00  1.00000000E+00  1.00000000E+00
Nuclear QMom                               R   N=          10
  0.00000000E+00  0.00000000E+00  0.00000000E+00  0.00000000E+00  0.00000000E+00
  0.00000000E+00  0.00000000E+00  0.00000000E+00  0.00000000E+00  0.00000000E+00
Nuclear GFac                               R   N=          10
  0.00000000E+00  0.00000000E+00  0.00000000E+00  0.00000000E+00  2.79284600E+00
  2.79284600E+00  2.62886700E+00  2.79284600E+00  2.79284600E+00  2.79284600E+00
MicOpt                                     I   N=          10
          -1          -1          -1          -1          -1          -1
          -1          -1          -1          -1
Number of contracted shells                I               30
Number of primitive shells                 I               75
Pure/Cartesian d shells                    I                1
Pure/Cartesian f shells                    I                0
Highest angular momentum                   I                1
Largest degree of contraction              I                6
Shell types                                I   N=          30
           0          -1          -1          -1           0          -1
          -1          -1           0          -1          -1          -1
           0          -1          -1          -1           0           0
           0           0           0          -1          -1          -1
           0           0           0           0           0           0
Number of primitives per shell             I   N=          30
           6           3           1           1           6           3
           1           1           6           3           1           1
           6           3           1           1           3           1
           3           1           6           3           1           1
           3           1           3           1           3           1
Shell to atom map                          I   N=          30
           1           1           1           1           2           2
           2           2           3           3           3           3
           4           4           4           4           5           5
           6           6           7           7           7           7
           8           8           9           9          10          10
Primitive exponents                        R   N=          75
  3.04752488E+03  4.57369518E+02  1.03948685E+02  2.92101553E+01  9.28666296E+00
  3.16392696E+00  7.86827235E+00  1.88128854E+00  5.44249258E-01  1.68714478E-01
  4.38000000E-02  3.04752488E+03  4.57369518E+02  1.03948685E+02  2.92101553E+01
  9.28666296E+00  3.16392696E+00  7.86827235E+00  1.88128854E+00  5.44249258E-01
  1.68714478E-01  4.38000000E-02  3.04752488E+03  4.57369518E+02  1.03948685E+02
  2.92101553E+01  9.28666296E+00  3.16392696E+00  7.86827235E+00  1.88128854E+00
  5.44249258E-01  1.68714478E-01  4.38000000E-02  3.04752488E+03  4.57369518E+02
  1.03948685E+02  2.92101553E+01  9.28666296E+00  3.16392696E+00  7.86827235E+00
  1.88128854E+00  5.44249258E-01  1.68714478E-01  4.38000000E-02  1.87311370E+01
  2.82539436E+00  6.40121692E-01  1.61277759E-01  1.87311370E+01  2.82539436E+00
  6.40121692E-01  1.61277759E-01  7.00171309E+03  1.05136609E+03  2.39285690E+02
  6.73974453E+01  2.15199573E+01  7.40310130E+00  2.08479528E+01  4.80830834E+00
  1.34406986E+00  3.58151393E-01  1.07600000E-01  1.87311370E+01  2.82539436E+00
  6.40121692E-01  1.61277759E-01  1.87311370E+01  2.82539436E+00  6.40121692E-01
  1.61277759E-01  1.87311370E+01  2.82539436E+00  6.40121692E-01  1.61277759E-01
Contraction coefficients                   R   N=          75
  1.83473713E-03  1.40373228E-02  6.88426223E-02  2.32184443E-01  4.67941348E-01
  3.62311985E-01 -1.19332420E-01 -1.60854152E-01  1.14345644E+00  1.00000000E+00
  1.00000000E+00  1.83473713E-03  1.40373228E-02  6.88426223E-02  2.32184443E-01
  4.67941348E-01  3.62311985E-01 -1.19332420E-01 -1.60854152E-01  1.14345644E+00
  1.00000000E+00  1.00000000E+00  1.83473713E-03  1.40373228E-02  6.88426223E-02
  2.32184443E-01  4.67941348E-01  3.62311985E-01 -1.19332420E-01 -1.60854152E-01
  1.14345644E+00  1.00000000E+00  1.00000000E+00  1.83473713E-03  1.40373228E-02
  6.88426223E-02  2.32184443E-01  4.67941348E-01  3.62311985E-01 -1.19332420E-01
 -1.60854152E-01  1.14345644E+00  1.00000000E+00  1.00000000E+00  3.34946043E-02
  2.34726953E-01  8.13757326E-01  1.00000000E+00  3.34946043E-02  2.34726953E-01
  8.13757326E-01  1.00000000E+00  1.81961690E-03  1.39160796E-02  6.84053245E-02
  2.33185760E-01  4.71267439E-01  3.56618546E-01 -1.08506975E-01 -1.46451658E-01
  1.12868858E+00  1.00000000E+00  1.00000000E+00  3.34946043E-02  2.34726953E-01
  8.13757326E-01  1.00000000E+00  3.34946043E-02  2.34726953E-01  8.13757326E-01
  1.00000000E+00  3.34946043E-02  2.34726953E-01  8.13757326E-01  1.00000000E+00
P(S=P) Contraction coefficients            R   N=          75
  0.00000000E+00  0.00000000E+00  0.00000000E+00  0.00000000E+00  0.00000000E+00
  0.00000000E+00  6.89990666E-02  3.16423961E-01  7.44308291E-01  1.00000000E+00
  1.00000000E+00  0.00000000E+00  0.00000000E+00  0.00000000E+00  0.00000000E+00
  0.00000000E+00  0.00000000E+00  6.89990666E-02  3.16423961E-01  7.44308291E-01
  1.00000000E+00  1.00000000E+00  0.00000000E+00  0.00000000E+00  0.00000000E+00
  0.00000000E+00  0.00000000E+00  0.00000000E+00  6.89990666E-02  3.16423961E-01
  7.44308291E-01  1.00000000E+00  1.00000000E+00  0.00000000E+00  0.00000000E+00
  0.00000000E+00  0.00000000E+00  0.00000000E+00  0.00000000E+00  6.89990666E-02
  3.16423961E-01  7.44308291E-01  1.00000000E+00  1.00000000E+00  0.00000000E+00
  0.00000000E+00  0.00000000E+00  0.00000000E+00  0.00000000E+00  0.00000000E+00
  0.00000000E+00  0.00000000E+00  0.00000000E+00  0.00000000E+00  0.00000000E+00
  0.00000000E+00  0.00000000E+00  0.00000000E+00  7.16287242E-02  3.45912103E-01
  7.22469956E-01  1.00000000E+00  1.00000000E+00  0.00000000E+00  0.00000000E+00
  0.00000000E+00  0.00000000E+00  0.00000000E+00  0.00000000E+00  0.00000000E+00
  0.00000000E+00  0.00000000E+00  0.00000000E+00  0.00000000E+00  0.00000000E+00
Coordinates of each shell                  R   N=          90
  3.21224255E+00 -1.28957346E+00  1.81803833E-01  3.21224255E+00 -1.28957346E+00
  1.81803833E-01  3.21224255E+00 -1.28957346E+00  1.81803833E-01  3.21224255E+00
 -1.28957346E+00  1.81803833E-01  9.86625152E-01 -1.48925374E-01 -9.73197371E-02
  9.86625152E-01 -1.48925374E-01 -9.73197371E-02  9.86625152E-01 -1.48925374E-01
 -9.73197371E-02  9.86625152E-01 -1.48925374E-01 -9.73197371E-02 -1.52230539E+00
 -1.29005060E+00 -2.33741745E-01 -1.52230539E+00 -1.29005060E+00 -2.33741745E-01
 -1.52230539E+00 -1.29005060E+00 -2.33741745E-01 -1.52230539E+00 -1.29005060E+00
 -2.33741745E-01 -3.68648419E+00 -5.43853928E-02  2.02460358E-01 -3.68648419E+00
 -5.43853928E-02  2.02460358E-01 -3.68648419E+00 -5.43853928E-02  2.02460358E-01
 -3.68648419E+00 -5.43853928E-02  2.02460358E-01  4.94537942E+00 -2.16776915E-01
  3.43185897E-01  4.94537942E+00 -2.16776915E-01  3.43185897E-01  3.31974898E+00
 -3.33254224E+00  2.35973853E-01  3.31974898E+00 -3.33254224E+00  2.35973853E-01
  9.47347014E-01  2.51476089E+00 -1.14967376E-01  9.47347014E-01  2.51476089E+00
 -1.14967376E-01  9.47347014E-01  2.51476089E+00 -1.14967376E-01  9.47347014E-01
  2.51476089E+00 -1.14967376E-01 -1.52772915E+00 -3.31018541E+00 -6.06601476E-01
 -1.52772915E+00 -3.31018541E+00 -6.06601476E-01 -3.71799238E+00  1.95566358E+00
  6.01825968E-01 -3.71799238E+00  1.95566358E+00  6.01825968E-01 -5.48599876E+00
 -1.03139810E+00  1.41105887E-01 -5.48599876E+00 -1.03139810E+00  1.41105887E-01
Constraint Structure                       R   N=          30
  3.22682847E+00 -1.28887414E+00  1.80049525E-01  9.83817987E-01 -1.59711852E-01
 -1.03488763E-01 -1.52088356E+00 -1.29317914E+00 -2.31965574E-01 -3.69968493E+00
 -5.79673104E-02  1.99133870E-01  4.95273231E+00 -2.03301993E-01  3.47564298E-01
  3.35558505E+00 -3.33200068E+00  2.30131047E-01  9.46252005E-01  2.52672660E+00
 -1.10310674E-01 -1.52553976E+00 -3.31917532E+00 -5.80958306E-01 -3.74277456E+00
  1.95554722E+00  5.82128444E-01 -5.49673885E+00 -1.04321390E+00  1.51556235E-01
Num ILSW                                   I              100
ILSW                                       I   N=         100
           0           1           0           0           2           0
           0           0           0           0        4639          -1
           0           0           0           0           2           0
           0           0           0           0           1           0
           1           0           0           0           0           0
           0           0      100000           0          -1           0
           0           0           0           0           0           0
           0           0           0           1           0           0
           0           0           1           0           0           0
           0           0         121          41           0           0
           0           0          58           0           0           0
           0           0           0          10           0           0
           0           0           0           0           0           0
           0           0           0           0           0           0
           0           0           0           0           0           0
           0           0           0           0           0           0
           0           0           0           0
Num RLSW                                   I               41
RLSW                                       R   N=          41
  1.00000000E+00  1.00000000E+00  1.00000000E+00  1.00000000E+00  1.00000000E+00
  0.00000000E+00  2.00000000E-01  2.22036000E-01  0.00000000E+00  7.77964000E-01
  0.00000000E+00  2.00000000E-01  0.00000000E+00  0.00000000E+00  1.00000000E+00
  0.00000000E+00  0.00000000E+00  1.00000000E+00  0.00000000E+00  0.00000000E+00
  0.00000000E+00  0.00000000E+00  1.00000000E+00  0.00000000E+00  0.00000000E+00
  0.00000000E+00  0.00000000E+00  1.00000000E+00  0.00000000E+00  0.00000000E+00
  0.00000000E+00  0.00000000E+00  1.00000000E+00  0.00000000E+00  0.00000000E+00
  0.00000000E+00  0.00000000E+00  0.00000000E+00  1.00000000E+00  1.00000000E+00
  0.00000000E+00
MxBond                                     I                3
NBond                                      I   N=          10
           3           3           3           3           1           1
           1           1           1           1
IBond                                      I   N=          30
           2           5           6           1           3           7
           2           4           8           3           9          10
           1           0           0           1           0           0
           2           0           0           3           0           0
           4           0           0           4           0           0
RBond                                      R   N=          30
  2.00000000E+00  1.00000000E+00  1.00000000E+00  2.00000000E+00  1.00000000E+00
  1.00000000E+00  1.00000000E+00  2.00000000E+00  1.00000000E+00  2.00000000E+00
  1.00000000E+00  1.00000000E+00  1.00000000E+00  0.00000000E+00  0.00000000E+00
  1.00000000E+00  0.00000000E+00  0.00000000E+00  1.00000000E+00  0.00000000E+00
  0.00000000E+00  1.00000000E+00  0.00000000E+00  0.00000000E+00  1.00000000E+00
  0.00000000E+00  0.00000000E+00  1.00000000E+00  0.00000000E+00  0.00000000E+00
Virial Ratio                               R      2.005618448583681E+00
SCF Energy                                 R     -2.551008781743214E+02
Total Energy                               R     -2.551008781743214E+02
RMS Force                                  R      1.233576858558582E-03
RMS Density                                R      9.415452361652005E-09
External E-field                           R   N=          35
  0.00000000E+00  0.00000000E+00  0.00000000E+00  0.00000000E+00  0.00000000E+00
  0.00000000E+00  0.00000000E+00  0.00000000E+00  0.00000000E+00  0.00000000E+00
  0.00000000E+00  0.00000000E+00  0.00000000E+00  0.00000000E+00  0.00000000E+00
  0.00000000E+00  0.00000000E+00  0.00000000E+00  0.00000000E+00  0.00000000E+00
  0.00000000E+00  0.00000000E+00  0.00000000E+00  0.00000000E+00  0.00000000E+00
  0.00000000E+00  0.00000000E+00  0.00000000E+00  0.00000000E+00  0.00000000E+00
  0.00000000E+00  0.00000000E+00  0.00000000E+00  0.00000000E+00  0.00000000E+00
IOpCl                                      I                0
IROHF                                      I                0
Alpha Orbital Energies                     R   N=          75
 -2.48326435E+01 -1.04034526E+01 -1.03290619E+01 -1.03139902E+01 -1.03115204E+01
 -1.31339542E+00 -9.28255084E-01 -8.65082080E-01 -7.31838857E-01 -6.65773814E-01
 -6.03305912E-01 -5.86841731E-01 -5.46227917E-01 -5.32987322E-01 -5.03963854E-01
 -4.82078415E-01 -4.57482996E-01 -4.10610320E-01 -3.28425277E-01  1.82587130E-02
  6.79211767E-02  8.06903831E-02  9.81905569E-02  1.03786722E-01  1.14408611E-01
  1.21203505E-01  1.28859338E-01  1.43014115E-01  1.51688301E-01  1.62094599E-01
  1.65668475E-01  1.88548340E-01  1.98166266E-01  2.01465282E-01  2.20703243E-01
  2.22874115E-01  2.45950873E-01  2.61562621E-01  2.87818404E-01  3.02063596E-01
  3.04617431E-01  3.25886128E-01  3.89235959E-01  4.09166670E-01  4.22119844E-01
  4.36710364E-01  4.53793450E-01  4.93077947E-01  5.00900626E-01  5.35051172E-01
  6.94658974E-01  7.41542713E-01  7.70342868E-01  7.86530750E-01  8.23105295E-01
  8.31096494E-01  8.46166265E-01  8.89255967E-01  9.26205541E-01  9.99505515E-01
  1.03179482E+00  1.03864506E+00  1.10765459E+00  1.14197539E+00  1.15765073E+00
  1.19858823E+00  1.25488333E+00  1.29255315E+00  1.34341171E+00  1.42389846E+00
  1.46975801E+00  1.66197733E+00  1.82430091E+00  1.86073321E+00  2.39436070E+00
Alpha MO coefficients                      R   N=        5625
  3.46739533E-06 -1.12757575E-04  3.35085479E-05  3.92935525E-05  8.34003023E-06
  2.27650670E-03 -2.14401334E-03 -2.85010676E-03 -3.02170679E-04  5.14507226E-03
 -1.54896089E-03  6.14386490E-04  6.31346241E-05 -4.64094633E-06  5.65614318E-04
  1.41827644E-05  4.33132122E-04 -2.87600904E-05 -1.16984270E-03 -1.91801208E-05
  6.03555327E-03  1.71398551E-04 -1.55704202E-02  2.42894142E-03 -1.07807363E-03
 -1.54371613E-04  1.54550865E-05 -6.13989933E-06 -1.40601126E-04  4.49694735E-05
  2.10910767E-05  6.40530570E-04  3.07841743E-03 -2.78940040E-03 -3.67416984E-04
  8.75748050E-03  1.15429716E-04  1.48302595E-03 -2.92712447E-04  7.39888596E-06
  1.13898289E-04  1.41217975E-04 -3.62061275E-05 -1.84207953E-05  2.77719039E-03
  5.47670248E-04 -5.87575312E-04 -2.71291062E-04 -7.51444700E-04  2.69592813E-04
  5.61375623E-04  4.75686893E-04  3.24389914E-04  1.09601986E-03 -3.11513739E-04
 -1.88766923E-03  9.95032270E-01  2.77008344E-02 -8.61067051E-06 -1.33997904E-03
  2.18089662E-05 -1.58828289E-02  4.63304313E-05  2.49861809E-03 -5.26655934E-05
  7.43712248E-03 -2.52122659E-04 -8.51969009E-04  2.74592617E-05 -2.94137517E-04
 -1.49083947E-03  2.48412567E-05 -4.59532242E-04 -7.83378208E-05 -3.87651401E-04
  4.64919316E-03 -1.23438296E-03  8.08908597E-04 -2.99756338E-04  1.09889432E-04
  9.11643076E-03 -4.45509941E-03  1.73669640E-04 -4.69789791E-04 -2.43637204E-02
  5.97621601E-03 -2.66759070E-03  4.85476083E-04  9.95515018E-01  3.64858577E-02
  1.25387645E-04  1.15661233E-03  7.61038075E-05 -3.77170237E-02  6.26491312E-04
  1.09421917E-03 -3.02932323E-04  4.64990217E-02 -1.08760707E-05 -6.67309807E-03
  5.68103436E-04  1.89726729E-03 -1.01335453E-03 -5.75682066E-04 -2.52848453E-04
 -1.30537367E-05  8.18679616E-03  4.71869421E-03  1.63382412E-03  2.57962686E-04
 -1.20508980E-02 -8.02297496E-03 -1.49406970E-03  4.08303302E-04 -3.94924686E-05
 -1.92845579E-04 -2.93084217E-05  1.11451862E-04 -2.40214707E-05  4.74614907E-04
 -7.84794673E-04 -1.01882544E-03 -4.82864905E-05 -9.29766903E-03 -1.92658507E-03
  1.84489830E-03  1.15416065E-04 -4.69466964E-05  5.37079230E-04 -3.47590741E-04
 -1.06544678E-03  4.37293298E-05  7.69139849E-04  3.07705773E-06 -7.57642594E-05
 -9.09371637E-07 -1.08149213E-03 -1.91942846E-05  8.44345640E-04  4.94777469E-06
  7.93233620E-03 -1.00949525E-04 -5.20942755E-03  1.07557340E-04 -1.90901290E-04
 -2.21872243E-04  4.63204985E-05  1.59286923E-04 -1.33787872E-04 -1.21736829E-04
 -3.96263980E-04 -3.26026110E-04  7.60679536E-05 -4.03035111E-05 -2.09092910E-05
  2.78098838E-03 -5.42976158E-04  1.72682812E-03 -1.31256175E-04  3.34701232E-03
 -6.91657871E-04 -5.59972326E-04 -8.29569218E-04 -1.94241129E-03 -1.17593830E-03
  7.76611524E-04  3.04275625E-04  9.41984937E-05  8.20886066E-03 -7.80177918E-03
 -1.40365080E-03 -4.47108601E-04 -3.46440998E-02  6.93016618E-03  2.60582441E-03
  7.67152467E-04  9.95032627E-01  3.64707859E-02  4.75933637E-05  4.55020296E-04
  1.59261432E-04 -3.75390986E-02 -9.56867161E-04 -5.74775244E-03 -1.28762703E-03
  8.44744175E-02 -3.68176479E-03  1.54875966E-02  3.54349959E-03  2.76785811E-02
 -3.51943504E-04 -7.84185497E-04  4.28279755E-04  1.61665931E-04  9.54265635E-03
  5.61169451E-03 -8.02676932E-04 -6.36064852E-04 -5.14658097E-02 -1.14866041E-02
  4.52942157E-03  1.92892008E-03 -1.34877136E-04 -7.14264379E-05 -5.38390670E-06
  6.76280555E-04  4.43030184E-06 -6.81547016E-05  4.24683271E-05  1.06489866E-04
  1.24198156E-05 -3.45726548E-04  1.15472786E-04 -1.16909197E-04 -1.44487161E-05
  1.05816649E-04  8.87837079E-04  3.51879259E-04  2.08650111E-05 -7.15434445E-04
  2.67399392E-03 -4.72439337E-04 -3.55812282E-04 -1.29632033E-04  1.45868056E-03
 -2.66121496E-03 -4.89195079E-04 -2.38799958E-05  6.85136090E-05  1.85987470E-05
  2.70500173E-03 -1.01866542E-03  2.17229667E-04 -1.64531342E-04 -1.94314476E-02
  2.12317517E-03 -3.25246873E-03  6.24047344E-04  7.81423681E-05 -1.24816764E-04
  1.97355042E-04 -4.59613731E-06 -2.87151536E-06 -1.33278166E-03 -1.61098292E-03
 -1.45326784E-06 -2.65354862E-04 -2.78843336E-02  2.15665250E-02  1.13775946E-03
  1.05909231E-03 -2.79366902E-02 -2.27708102E-03  9.91360966E-04 -6.46953947E-04
 -2.25509564E-04  9.63359022E-03 -5.06513639E-03  2.61191476E-03  1.06240170E-03
  2.44963737E-02  1.37325750E-02  6.33125126E-03 -9.47288919E-05  9.94944002E-01
  3.54917784E-02  4.58632353E-04 -3.01381310E-04 -1.40193941E-04 -3.11090665E-02
 -3.49767906E-03  2.08299016E-03  7.72927199E-04  2.33776834E-02  6.97614887E-03
 -3.87328101E-03 -1.21791509E-03 -2.59275458E-05  4.94694468E-05 -1.12581371E-04
 -1.01913719E-04  8.96993461E-06  1.16194413E-04 -1.48249763E-05  2.04755123E-05
 -1.00383703E-05 -5.64675809E-04  3.19072266E-04 -1.07133375E-05  3.52232681E-05
  1.98931954E-03 -3.32208642E-04 -5.31797000E-04  4.93998415E-05 -1.37085408E-04
  1.07216241E-04 -6.01149885E-04  3.63282235E-03 -7.18276564E-04  4.22265459E-03
  9.95297688E-01  3.57201174E-02 -6.15577508E-04  2.31165833E-04 -1.14669732E-04
 -3.27706471E-02  4.34898188E-03 -1.84547907E-03  5.98498445E-04  4.23514869E-03
 -3.34539928E-03  2.37737308E-03 -1.33597211E-04 -4.94413553E-03 -1.64133539E-03
 -1.17221036E-03  5.65508256E-04 -1.55104935E-04  1.04079956E-02  6.23552511E-03
 -3.55324828E-03  8.34922785E-04  3.74008351E-02 -6.38706377E-03 -1.05016023E-02
 -9.96694760E-04  2.68689083E-04 -2.28472069E-04 -1.40438601E-04  2.03677113E-05
 -4.40748015E-06  1.95439713E-05  4.69954570E-04  5.08633630E-04 -1.70568788E-04
 -2.66903432E-02 -1.94752468E-02 -9.52294151E-04  2.61503249E-04  2.58550197E-03
 -2.87266143E-04 -3.14653073E-05 -3.52304359E-05  1.68057003E-05  1.33794267E-03
  7.32086707E-04  1.33031663E-04 -3.45725654E-05 -1.43304374E-02 -6.90059251E-04
  3.50889238E-03  8.15640358E-04 -7.28202004E-04  4.23292120E-03 -6.13474677E-04
  4.17134787E-03  5.15990164E-07 -1.11977205E-04 -3.09325572E-05  1.49280874E-04
 -7.87578615E-06 -1.48776425E-05 -1.25186693E-04 -5.31523732E-04  5.71605564E-06
  1.22305803E-03 -4.38580616E-04  5.36077239E-04 -1.21043015E-04 -1.28173944E-04
  7.60076520E-04 -7.69913211E-05 -2.41993340E-04  2.73183670E-06  2.34118089E-04
 -9.74576023E-03  1.94984666E-02 -1.17324512E-02  1.10325907E-02 -1.51619247E-03
 -1.54960437E-02  2.38716058E-02  3.26554908E-02  2.92178882E-03 -7.87420999E-02
  2.04443674E-02 -4.00621276E-03  2.02488561E-03 -5.95809479E-02  1.15419044E-01
 -1.03957959E-03  9.75674393E-02  1.46915901E-04  4.64575930E-02 -7.55366134E-03
 -7.31433039E-02 -1.33022128E-03  1.67991708E-01 -7.16937986E-03 -1.53281444E-02
 -2.14690310E-05 -8.87833789E-03  1.71150056E-02  1.06108793E-02  9.99027279E-03
  6.35437889E-04 -1.05105011E-02 -3.44796840E-02  2.24606141E-02  2.26899790E-03
 -7.97116668E-02 -1.76678848E-02 -1.02266852E-02  2.33713505E-03 -2.92587132E-03
  2.76109863E-03  2.40830387E-03  2.80974777E-04 -2.72865578E-04 -2.04045583E-02
 -3.50213295E-04  1.10598948E-02  3.33329357E-03 -1.55301512E-03  4.25453692E-04
  7.67962710E-04 -2.22766177E-03  7.09405077E-04 -1.42960495E-02  3.80558716E-03
  1.95548249E-02 -2.25566682E-01  4.77614754E-01  2.20826367E-04 -9.88054156E-02
  1.21622869E-03  5.47665491E-01  1.29608342E-04 -8.06097296E-02  1.27288074E-03
 -7.61478532E-04  1.36681500E-03  9.43866837E-03 -8.67168683E-05  3.42270321E-03
  1.18051590E-02  1.36033944E-03 -8.72069153E-04  1.25045574E-03  6.55859739E-03
 -9.05239294E-02  1.73473309E-01 -7.82398786E-02  2.31405990E-02 -8.78323741E-03
  1.55586711E-01 -1.74244390E-02  6.32791871E-03 -3.74695538E-03  3.29856091E-02
 -4.76728796E-03  6.80409351E-03  1.53231839E-03 -1.26352358E-01  2.57070383E-01
 -1.21424319E-02 -8.88085542E-02  6.73061743E-03  1.60590754E-01 -3.90926417E-02
  1.33915413E-02  9.98288510E-05 -4.26275727E-03 -1.77808911E-02  2.84229315E-03
 -2.73770601E-03 -1.38665587E-01  2.72001199E-01  1.55562154E-02  4.44313527E-02
  1.48086778E-02  1.67009217E-01  2.19838179E-02 -2.69050239E-02 -2.84621242E-03
 -1.21759686E-01  1.48471656E-02 -3.03189525E-02 -7.39847308E-03 -8.88456512E-02
  1.71385451E-01  7.17758589E-02 -3.45908174E-02 -1.22710392E-02  1.45810606E-01
  1.16141106E-02 -5.40809516E-03 -3.18325175E-03  9.51215853E-02  1.99882948E-02
 -6.73493343E-03 -2.20691750E-03  3.76885220E-02  1.96574477E-03  4.67662569E-02
  7.60226223E-03  4.96106906E-02 -1.10932824E-01 -6.34773566E-03 -6.25053006E-02
  1.46347819E-03 -1.45240398E-01 -5.33988853E-04 -2.57994953E-02  6.57547194E-04
 -2.44754719E-02  1.86830586E-04  7.81199008E-03 -8.59430426E-05  6.97925188E-02
 -1.32615461E-03  4.10662172E-02  2.68920233E-03  3.94834456E-02  1.25435349E-03
 -1.34693926E-01  2.60030912E-01 -7.05034816E-02  3.93557742E-02 -1.01029264E-02
  1.91176931E-01  4.23749202E-04 -5.84571498E-03  4.09723162E-04 -1.10109758E-01
  2.38596650E-02 -9.41213298E-03  3.65595703E-03 -8.00084773E-02  1.66164959E-01
  1.69707517E-01 -5.42839115E-02  1.55587195E-02  1.09459060E-01  4.07591885E-02
 -7.54164243E-03  2.72755966E-03  1.22699713E-02  5.06720298E-02 -7.97531449E-03
  5.08895772E-03  8.89545391E-02 -1.75850916E-01  1.18028835E-01 -4.37202346E-02
 -1.49364490E-02 -1.18937409E-01  2.58432537E-02  8.94541076E-03  2.38487488E-04
 -3.14419064E-02  6.90296422E-02 -4.93643936E-04 -3.22508891E-03  1.21483039E-01
 -2.34904071E-01 -6.11002803E-02  3.81729344E-02  1.41299377E-02 -1.83629335E-01
 -6.19095963E-03 -8.99988532E-03 -1.34655181E-03  1.29242163E-01  2.27510505E-02
 -1.91974861E-02 -7.99448043E-03  7.58834444E-02  1.65828112E-02  7.46866117E-02
  1.17174590E-02  2.25840076E-02 -5.22288673E-02  4.37676888E-02 -4.70827810E-02
  2.79168036E-03 -6.18281114E-02  2.19440175E-02 -2.55858686E-02  1.46767901E-03
 -1.61089076E-02  4.36812536E-03  6.02539594E-03 -4.85923045E-04 -4.34548821E-02
 -1.80549030E-03 -6.54926968E-02 -4.39817781E-03 -6.87731916E-02 -1.84694037E-02
 -9.95916566E-02  1.95928193E-01  6.53778495E-02  5.80616167E-03  6.73008681E-03
  1.95300461E-01  2.22486592E-02  1.27515399E-03  1.94559998E-03  3.53985273E-02
 -2.45990171E-03 -3.99994805E-03 -2.83951919E-03  6.90654913E-02 -1.48425425E-01
  2.15451162E-01  1.00601105E-02  2.33711579E-02 -1.49246007E-01  5.00168841E-02
  1.08759868E-02  6.02173633E-03 -8.47452702E-02  3.18599801E-03  2.69531791E-02
  2.62290255E-03  6.48573398E-02 -1.33589814E-01 -2.07848316E-01  1.17926596E-02
  1.76475926E-02 -1.19311642E-01 -3.37127999E-02  5.74331352E-03  5.33929258E-03
  1.73243261E-01 -1.04831099E-02  1.92220628E-02  6.39530570E-03 -1.20556378E-01
  2.40960351E-01 -7.06458838E-02  5.27346718E-03  5.81240324E-03  2.33419717E-01
 -3.20814108E-02 -4.96082090E-03  1.42737145E-03 -1.15199743E-01 -3.31496886E-02
  1.08670550E-02  5.09953140E-03  1.07191702E-01  3.60320225E-02  8.19368084E-02
  2.96991156E-02 -2.16364523E-02  5.09935560E-02  6.33971482E-02  1.02272288E-01
  9.10742466E-03  6.07394836E-02  3.54031568E-02  5.82044503E-02  5.17839397E-03
  2.55604567E-02  4.85404603E-04 -9.13239182E-03  8.15138575E-04 -5.90916418E-02
 -2.12538793E-02  1.01435302E-01  3.79217362E-02  1.23645012E-01  3.93242420E-02
 -4.28742807E-02  8.10323945E-02  5.82254129E-02 -1.25978110E-01  6.63228945E-03
  1.09755163E-01 -4.69117761E-03 -5.79374426E-02 -5.27226201E-04  9.60170750E-02
 -1.76322715E-02 -4.29010338E-03 -2.91207576E-03  7.40177848E-02 -1.63925941E-01
 -3.44248322E-02 -1.91648227E-01 -9.98142442E-03 -1.81896191E-01  4.95318847E-03
 -1.82376705E-02 -2.09161051E-03 -1.87515371E-01 -8.92227319E-03  5.36867644E-02
  2.11755620E-04 -7.31355554E-02  1.46562447E-01 -6.69536493E-03 -1.63897193E-01
 -2.55990703E-02  1.63025593E-01  3.72159484E-02 -7.47618009E-02 -1.15584101E-02
  1.21674794E-02  5.90940465E-02 -1.62212158E-02 -4.51154531E-03  4.93944254E-02
 -9.85191702E-02  5.15695090E-02 -1.01387784E-01 -2.29688872E-02 -8.20339723E-02
  2.33605600E-02 -4.31895568E-02 -1.19040613E-02  8.35967164E-02  1.44817674E-02
 -1.69932085E-02 -4.35499601E-03  3.54931762E-02  2.70513775E-02  1.03776755E-01
  4.20054013E-02 -5.53827169E-02  1.29817604E-01 -3.75943528E-03  3.52273920E-01
 -9.29209360E-03  1.62654915E-01 -2.06308514E-03  2.03346219E-01 -5.71393198E-03
  5.44598994E-02 -7.73979796E-05 -2.24298327E-03 -5.28937926E-04  1.48764090E-01
  6.19640167E-02 -9.20925090E-02 -3.54091435E-02 -4.54219393E-02 -2.14020648E-02