 Entering Gaussian System, Link 0=/opt/cluster/programs/g09_d.01/g09//g09
 Input=/home/unibas/boittier/RDKit_G2/N.pdb/SCAN_1_2_6_8_S_17_20.0/5_SCAN_1_2_6_8_F/5_SCAN_N.pdb.com
 Output=/scratch/boittier/5_SCAN_N.pdb/5_SCAN_N.pdb.out
 Initial command:
 /opt/cluster/programs/g09_d.01/g09/l1.exe "/scratch/boittier/5_SCAN_N.pdb/Gau-144459.inp" -scrdir="/scratch/boittier/5_SCAN_N.pdb/"
 Entering Link 1 = /opt/cluster/programs/g09_d.01/g09/l1.exe PID=    144460.
  
 Copyright (c) 1988,1990,1992,1993,1995,1998,2003,2009,2013,
            Gaussian, Inc.  All Rights Reserved.
  
 This is part of the Gaussian(R) 09 program.  It is based on
 the Gaussian(R) 03 system (copyright 2003, Gaussian, Inc.),
 the Gaussian(R) 98 system (copyright 1998, Gaussian, Inc.),
 the Gaussian(R) 94 system (copyright 1995, Gaussian, Inc.),
 the Gaussian 92(TM) system (copyright 1992, Gaussian, Inc.),
 the Gaussian 90(TM) system (copyright 1990, Gaussian, Inc.),
 the Gaussian 88(TM) system (copyright 1988, Gaussian, Inc.),
 the Gaussian 86(TM) system (copyright 1986, Carnegie Mellon
 University), and the Gaussian 82(TM) system (copyright 1983,
 Carnegie Mellon University). Gaussian is a federally registered
 trademark of Gaussian, Inc.
  
 This software contains proprietary and confidential information,
 including trade secrets, belonging to Gaussian, Inc.
  
 This software is provided under written license and may be
 used, copied, transmitted, or stored only in accord with that
 written license.
  
 The following legend is applicable only to US Government
 contracts under FAR:
  
                    RESTRICTED RIGHTS LEGEND
  
 Use, reproduction and disclosure by the US Government is
 subject to restrictions as set forth in subparagraphs (a)
 and (c) of the Commercial Computer Software - Restricted
 Rights clause in FAR 52.227-19.
  
 Gaussian, Inc.
 340 Quinnipiac St., Bldg. 40, Wallingford CT 06492
  
  
 ---------------------------------------------------------------
 Warning -- This program may not be used in any manner that
 competes with the business of Gaussian, Inc. or will provide
 assistance to any competitor of Gaussian, Inc.  The licensee
 of this program is prohibited from giving any competitor of
 Gaussian, Inc. access to this program.  By using this program,
 the user acknowledges that Gaussian, Inc. is engaged in the
 business of creating and licensing software in the field of
 computational chemistry and represents and warrants to the
 licensee that it is not a competitor of Gaussian, Inc. and that
 it will not use this program in any manner prohibited above.
 ---------------------------------------------------------------
  

 Cite this work as:
 Gaussian 09, Revision D.01,
 M. J. Frisch, G. W. Trucks, H. B. Schlegel, G. E. Scuseria, 
 M. A. Robb, J. R. Cheeseman, G. Scalmani, V. Barone, B. Mennucci, 
 G. A. Petersson, H. Nakatsuji, M. Caricato, X. Li, H. P. Hratchian, 
 A. F. Izmaylov, J. Bloino, G. Zheng, J. L. Sonnenberg, M. Hada, 
 M. Ehara, K. Toyota, R. Fukuda, J. Hasegawa, M. Ishida, T. Nakajima, 
 Y. Honda, O. Kitao, H. Nakai, T. Vreven, J. A. Montgomery, Jr., 
 J. E. Peralta, F. Ogliaro, M. Bearpark, J. J. Heyd, E. Brothers, 
 K. N. Kudin, V. N. Staroverov, T. Keith, R. Kobayashi, J. Normand, 
 K. Raghavachari, A. Rendell, J. C. Burant, S. S. Iyengar, J. Tomasi, 
 M. Cossi, N. Rega, J. M. Millam, M. Klene, J. E. Knox, J. B. Cross, 
 V. Bakken, C. Adamo, J. Jaramillo, R. Gomperts, R. E. Stratmann, 
 O. Yazyev, A. J. Austin, R. Cammi, C. Pomelli, J. W. Ochterski, 
 R. L. Martin, K. Morokuma, V. G. Zakrzewski, G. A. Voth, 
 P. Salvador, J. J. Dannenberg, S. Dapprich, A. D. Daniels, 
 O. Farkas, J. B. Foresman, J. V. Ortiz, J. Cioslowski, 
 and D. J. Fox, Gaussian, Inc., Wallingford CT, 2013.
 
 ******************************************
 Gaussian 09:  ES64L-G09RevD.01 24-Apr-2013
                26-May-2021 
 ******************************************
 %chk=/home/unibas/boittier/RDKit_G2/N.pdb/SCAN_1_2_6_8_S_17_20.0/5_SCAN_1_2_6_8_
 F/N.pdb.chk
 %nproc=8
 Will use up to    8 processors via shared memory.
 %mem=16GB
 -----------------------------
 #p wB97XD/6-31+G Opt=ModRedun
 -----------------------------
 1/14=-1,18=120,19=15,26=3,38=1/1,3;
 2/9=110,12=2,17=6,18=5,40=1/2;
 3/5=1,6=6,7=10,11=2,16=1,25=1,30=1,71=1,74=-58/1,2,3;
 4//1;
 5/5=2,38=5/2;
 6/7=2,8=2,9=2,10=2,28=1/1;
 7//1,2,3,16;
 1/14=-1,18=20,19=15,26=3/3(2);
 2/9=110/2;
 99//99;
 2/9=110/2;
 3/5=1,6=6,7=10,11=2,16=1,25=1,30=1,71=1,74=-58/1,2,3;
 4/5=5,16=3,69=1/1;
 5/5=2,38=5/2;
 7//1,2,3,16;
 1/14=-1,18=20,19=15,26=3/3(-5);
 2/9=110/2;
 6/7=2,8=2,9=2,10=2,19=2,28=1/1;
 99/9=1/99;
 Leave Link    1 at Wed May 26 09:20:48 2021, MaxMem=  2147483648 cpu:         0.2
 (Enter /opt/cluster/programs/g09_d.01/g09/l101.exe)
 -----
 N.pdb
 -----
 Symbolic Z-matrix:
 Charge =  0 Multiplicity = 1
 C                     2.79715   0.63921   0.00033 
 C                     1.48101  -0.09325   0.00249 
 H                     2.91502   1.20458  -0.93191 
 H                     3.6131   -0.07908   0.08659 
 H                     2.84916   1.35474   0.82833 
 C                     0.24661   0.80009   0.00285 
 O                     1.40722  -1.32198   0.00014 
 C                    -1.07729   0.08803  -0.00011 
 H                     0.27645   1.45633  -0.87409 
 H                     0.27365   1.44897   0.8853 
 F                    -1.26819  -0.69827  -1.12374 
 F                    -2.11639   1.02734   0.00434 
 F                    -1.26764  -0.70843   1.11621 
 
 The following ModRedundant input section has been read:
 D       1       2       6       8 F                                           
 
 NAtoms=     13 NQM=       13 NQMF=       0 NMMI=      0 NMMIF=      0
                NMic=       0 NMicF=      0.
                    Isotopes and Nuclear Properties:
 (Nuclear quadrupole moments (NQMom) in fm**2, nuclear magnetic moments (NMagM)
  in nuclear magnetons)

  Atom         1           2           3           4           5           6           7           8           9          10
 IAtWgt=          12          12           1           1           1          12          16          12           1           1
 AtmWgt=  12.0000000  12.0000000   1.0078250   1.0078250   1.0078250  12.0000000  15.9949146  12.0000000   1.0078250   1.0078250
 NucSpn=           0           0           1           1           1           0           0           0           1           1
 AtZEff=   0.0000000   0.0000000   0.0000000   0.0000000   0.0000000   0.0000000   0.0000000   0.0000000   0.0000000   0.0000000
 NQMom=    0.0000000   0.0000000   0.0000000   0.0000000   0.0000000   0.0000000   0.0000000   0.0000000   0.0000000   0.0000000
 NMagM=    0.0000000   0.0000000   2.7928460   2.7928460   2.7928460   0.0000000   0.0000000   0.0000000   2.7928460   2.7928460
 AtZNuc=   6.0000000   6.0000000   1.0000000   1.0000000   1.0000000   6.0000000   8.0000000   6.0000000   1.0000000   1.0000000

  Atom        11          12          13
 IAtWgt=          19          19          19
 AtmWgt=  18.9984033  18.9984033  18.9984033
 NucSpn=           1           1           1
 AtZEff=   0.0000000   0.0000000   0.0000000
 NQMom=    0.0000000   0.0000000   0.0000000
 NMagM=    2.6288670   2.6288670   2.6288670
 AtZNuc=   9.0000000   9.0000000   9.0000000
 Leave Link  101 at Wed May 26 09:20:49 2021, MaxMem=  2147483648 cpu:         4.1
 (Enter /opt/cluster/programs/g09_d.01/g09/l103.exe)

 GradGradGradGradGradGradGradGradGradGradGradGradGradGradGradGradGradGrad
 Berny optimization.
 Initialization pass.
                           ----------------------------
                           !    Initial Parameters    !
                           ! (Angstroms and Degrees)  !
 --------------------------                            --------------------------
 ! Name  Definition              Value          Derivative Info.                !
 --------------------------------------------------------------------------------
 ! R1    R(1,2)                  1.5062         estimate D2E/DX2                !
 ! R2    R(1,3)                  1.0966         estimate D2E/DX2                !
 ! R3    R(1,4)                  1.0905         estimate D2E/DX2                !
 ! R4    R(1,5)                  1.0956         estimate D2E/DX2                !
 ! R5    R(2,6)                  1.5237         estimate D2E/DX2                !
 ! R6    R(2,7)                  1.2309         estimate D2E/DX2                !
 ! R7    R(6,8)                  1.5032         estimate D2E/DX2                !
 ! R8    R(6,9)                  1.0957         estimate D2E/DX2                !
 ! R9    R(6,10)                 1.0957         estimate D2E/DX2                !
 ! R10   R(8,11)                 1.3846         estimate D2E/DX2                !
 ! R11   R(8,12)                 1.4007         estimate D2E/DX2                !
 ! R12   R(8,13)                 1.3845         estimate D2E/DX2                !
 ! A1    A(2,1,3)              110.2327         estimate D2E/DX2                !
 ! A2    A(2,1,4)              109.4749         estimate D2E/DX2                !
 ! A3    A(2,1,5)              110.9771         estimate D2E/DX2                !
 ! A4    A(3,1,4)              109.051          estimate D2E/DX2                !
 ! A5    A(3,1,5)              107.4971         estimate D2E/DX2                !
 ! A6    A(4,1,5)              109.5666         estimate D2E/DX2                !
 ! A7    A(1,2,6)              115.01           estimate D2E/DX2                !
 ! A8    A(1,2,7)              122.5331         estimate D2E/DX2                !
 ! A9    A(6,2,7)              122.4566         estimate D2E/DX2                !
 ! A10   A(2,6,8)              115.8329         estimate D2E/DX2                !
 ! A11   A(2,6,9)              109.2007         estimate D2E/DX2                !
 ! A12   A(2,6,10)             109.1111         estimate D2E/DX2                !
 ! A13   A(8,6,9)              107.8248         estimate D2E/DX2                !
 ! A14   A(8,6,10)             107.6894         estimate D2E/DX2                !
 ! A15   A(9,6,10)             106.8116         estimate D2E/DX2                !
 ! A16   A(6,8,11)             113.0798         estimate D2E/DX2                !
 ! A17   A(6,8,12)             109.6133         estimate D2E/DX2                !
 ! A18   A(6,8,13)             113.0784         estimate D2E/DX2                !
 ! A19   A(11,8,12)            106.3264         estimate D2E/DX2                !
 ! A20   A(11,8,13)            107.98           estimate D2E/DX2                !
 ! A21   A(12,8,13)            106.3329         estimate D2E/DX2                !
 ! D1    D(3,1,2,6)            -64.8632         estimate D2E/DX2                !
 ! D2    D(3,1,2,7)            114.9309         estimate D2E/DX2                !
 ! D3    D(4,1,2,6)            175.1815         estimate D2E/DX2                !
 ! D4    D(4,1,2,7)             -5.0244         estimate D2E/DX2                !
 ! D5    D(5,1,2,6)             54.1157         estimate D2E/DX2                !
 ! D6    D(5,1,2,7)           -126.0902         estimate D2E/DX2                !
 ! D7    D(1,2,6,8)            179.7833         Frozen                          !
 ! D8    D(1,2,6,9)             57.8641         estimate D2E/DX2                !
 ! D9    D(1,2,6,10)           -58.5462         estimate D2E/DX2                !
 ! D10   D(7,2,6,8)             -0.011          estimate D2E/DX2                !
 ! D11   D(7,2,6,9)           -121.9303         estimate D2E/DX2                !
 ! D12   D(7,2,6,10)           121.6595         estimate D2E/DX2                !
 ! D13   D(2,6,8,11)           -61.7242         estimate D2E/DX2                !
 ! D14   D(2,6,8,12)           179.8361         estimate D2E/DX2                !
 ! D15   D(2,6,8,13)            61.389          estimate D2E/DX2                !
 ! D16   D(9,6,8,11)            60.9243         estimate D2E/DX2                !
 ! D17   D(9,6,8,12)           -57.5154         estimate D2E/DX2                !
 ! D18   D(9,6,8,13)          -175.9624         estimate D2E/DX2                !
 ! D19   D(10,6,8,11)          175.8498         estimate D2E/DX2                !
 ! D20   D(10,6,8,12)           57.4101         estimate D2E/DX2                !
 ! D21   D(10,6,8,13)          -61.037          estimate D2E/DX2                !
 --------------------------------------------------------------------------------
 Trust Radius=3.00D-01 FncErr=1.00D-07 GrdErr=1.00D-06
 Number of steps in this run=     64 maximum allowed number of steps=    100.
 GradGradGradGradGradGradGradGradGradGradGradGradGradGradGradGradGradGrad

 Leave Link  103 at Wed May 26 09:20:49 2021, MaxMem=  2147483648 cpu:         0.1
 (Enter /opt/cluster/programs/g09_d.01/g09/l202.exe)
                          Input orientation:                          
 ---------------------------------------------------------------------
 Center     Atomic      Atomic             Coordinates (Angstroms)
 Number     Number       Type             X           Y           Z
 ---------------------------------------------------------------------
      1          6           0        2.797154    0.639207    0.000331
      2          6           0        1.481008   -0.093249    0.002493
      3          1           0        2.915015    1.204576   -0.931913
      4          1           0        3.613098   -0.079079    0.086586
      5          1           0        2.849161    1.354742    0.828325
      6          6           0        0.246606    0.800091    0.002854
      7          8           0        1.407218   -1.321975    0.000138
      8          6           0       -1.077292    0.088029   -0.000114
      9          1           0        0.276452    1.456334   -0.874091
     10          1           0        0.273653    1.448972    0.885299
     11          9           0       -1.268192   -0.698267   -1.123742
     12          9           0       -2.116392    1.027338    0.004341
     13          9           0       -1.267636   -0.708428    1.116213
 ---------------------------------------------------------------------
                    Distance matrix (angstroms):
                    1          2          3          4          5
     1  C    0.000000
     2  C    1.506233   0.000000
     3  H    1.096637   2.147985   0.000000
     4  H    1.090477   2.133795   1.781132   0.000000
     5  H    1.095568   2.156506   1.767859   1.785950   0.000000
     6  C    2.555618   1.523747   2.856187   3.480405   2.786096
     7  O    2.403780   1.230942   3.086362   2.533411   3.151176
     8  C    3.913455   2.564716   4.248934   4.694167   4.208076
     9  H    2.790385   2.149549   2.651177   3.796525   3.086644
    10  H    2.794091   2.148371   3.215398   3.758294   2.577861
    11  F    4.424863   3.031922   4.599655   5.067078   4.997800
    12  F    4.928853   3.767891   5.120844   5.835921   5.044092
    13  F    4.425362   3.028838   5.034776   5.027701   4.613845
                    6          7          8          9         10
     6  C    0.000000
     7  O    2.418717   0.000000
     8  C    1.503245   2.856729   0.000000
     9  H    1.095709   3.124405   2.113934   0.000000
    10  H    1.095667   3.121959   2.112149   1.759408   0.000000
    11  F    2.410168   2.968154   1.384646   2.662810   3.320266
    12  F    2.373900   4.234987   1.400732   2.584837   2.581894
    13  F    2.410006   2.962585   1.384471   3.321402   2.661441
                   11         12         13
    11  F    0.000000
    12  F    2.229288   0.000000
    13  F    2.239978   2.229244   0.000000
 Stoichiometry    C4H5F3O
 Framework group  C1[X(C4H5F3O)]
 Deg. of freedom    33
 Full point group                 C1      NOp   1
 Largest Abelian subgroup         C1      NOp   1
 Largest concise Abelian subgroup C1      NOp   1
                         Standard orientation:                         
 ---------------------------------------------------------------------
 Center     Atomic      Atomic             Coordinates (Angstroms)
 Number     Number       Type             X           Y           Z
 ---------------------------------------------------------------------
      1          6           0       -2.797154    0.639207   -0.000331
      2          6           0       -1.481008   -0.093249   -0.002493
      3          1           0       -2.915015    1.204576    0.931913
      4          1           0       -3.613098   -0.079079   -0.086586
      5          1           0       -2.849161    1.354742   -0.828325
      6          6           0       -0.246606    0.800091   -0.002854
      7          8           0       -1.407218   -1.321975   -0.000138
      8          6           0        1.077292    0.088029    0.000114
      9          1           0       -0.276452    1.456334    0.874091
     10          1           0       -0.273653    1.448972   -0.885299
     11          9           0        1.268192   -0.698267    1.123742
     12          9           0        2.116392    1.027338   -0.004341
     13          9           0        1.267636   -0.708428   -1.116213
 ---------------------------------------------------------------------
 Rotational constants (GHZ):      3.6785596      1.2885400      1.1807851
 Leave Link  202 at Wed May 26 09:20:49 2021, MaxMem=  2147483648 cpu:         0.0
 (Enter /opt/cluster/programs/g09_d.01/g09/l301.exe)
 Standard basis: 6-31+G (6D, 7F)
 Ernie: Thresh=  0.10000D-02 Tol=  0.10000D-05 Strict=F.
 There are   114 symmetry adapted cartesian basis functions of A   symmetry.
 There are   114 symmetry adapted basis functions of A   symmetry.
   114 basis functions,   228 primitive gaussians,   114 cartesian basis functions
    32 alpha electrons       32 beta electrons
       nuclear repulsion energy       403.5416912561 Hartrees.
 IExCor= 4639 DFT=T Ex+Corr=wB97XD ExCW=0 ScaHFX=  1.000000
 ScaDFX=  1.000000  1.000000  1.000000  1.000000 ScalE2=  1.000000  1.000000
 IRadAn=      0 IRanWt=     -1 IRanGd=            0 ICorTp=0 IEmpDi=121
  HFx wShort=  0.000000 wLong=  0.200000 cFull=  0.222036 cShort=  0.000000 cLong=  0.777964
  DFx wShort=  0.000000 wLong=  0.200000 cFull=  0.000000 cShort=  0.000000 cLong=  1.000000
 NAtoms=   13 NActive=   13 NUniq=   13 SFac= 1.00D+00 NAtFMM=   60 NAOKFM=F Big=F
 Integral buffers will be    131072 words long.
 Raffenetti 2 integral format.
 Two-electron integral symmetry is turned on.
 R6Disp:  Grimme-D2 Dispersion energy=       -0.0055972288 Hartrees.
 Nuclear repulsion after empirical dispersion term =      403.5360940273 Hartrees.
 Leave Link  301 at Wed May 26 09:20:49 2021, MaxMem=  2147483648 cpu:         0.3
 (Enter /opt/cluster/programs/g09_d.01/g09/l302.exe)
 NPDir=0 NMtPBC=     1 NCelOv=     1 NCel=       1 NClECP=     1 NCelD=      1
         NCelK=      1 NCelE2=     1 NClLst=     1 CellRange=     0.0.
 One-electron integrals computed using PRISM.
 NBasis=   114 RedAO= T EigKep=  2.46D-05  NBF=   114
 NBsUse=   114 1.00D-06 EigRej= -1.00D+00 NBFU=   114
 Precomputing XC quadrature grid using
 IXCGrd= 4 IRadAn=           0 IRanWt=          -1 IRanGd=           0 AccXCQ= 0.00D+00.
 Generated NRdTot=       0 NPtTot=           0 NUsed=           0 NTot=          32
 NSgBfM=   114   114   114   114   114 MxSgAt=    13 MxSgA2=    13.
 Leave Link  302 at Wed May 26 09:20:49 2021, MaxMem=  2147483648 cpu:         0.9
 (Enter /opt/cluster/programs/g09_d.01/g09/l303.exe)
 DipDrv:  MaxL=1.
 Leave Link  303 at Wed May 26 09:20:49 2021, MaxMem=  2147483648 cpu:         0.3
 (Enter /opt/cluster/programs/g09_d.01/g09/l401.exe)
 ExpMin= 4.38D-02 ExpMax= 7.00D+03 ExpMxC= 1.05D+03 IAcc=2 IRadAn=         4 AccDes= 0.00D+00
 Harris functional with IExCor= 4639 and IRadAn=       4 diagonalized for initial guess.
 HarFok:  IExCor= 4639 AccDes= 0.00D+00 IRadAn=         4 IDoV= 1 UseB2=F ITyADJ=14
 ICtDFT=  3500011 ScaDFX=  1.000000  1.000000  1.000000  1.000000
 FoFCou: FMM=F IPFlag=           0 FMFlag=      100000 FMFlg1=           0
         NFxFlg=           0 DoJE=T BraDBF=F KetDBF=T FulRan=T
         wScrn=  0.000000 ICntrl=     500 IOpCl=  0 I1Cent=   200000004 NGrid=           0
         NMat0=    1 NMatS0=      1 NMatT0=    0 NMatD0=    1 NMtDS0=    0 NMtDT0=    0
 Petite list used in FoFCou.
 Harris En= -511.186690451165    
 JPrj=0 DoOrth=F DoCkMO=F.
 Leave Link  401 at Wed May 26 09:20:49 2021, MaxMem=  2147483648 cpu:         2.0
 (Enter /opt/cluster/programs/g09_d.01/g09/l502.exe)
 Closed shell SCF:
 Using DIIS extrapolation, IDIIS=  1040.
 Integral symmetry usage will be decided dynamically.
 Keep R1 ints in memory in canonical form, NReq=43969700.
 IVT=       59316 IEndB=       59316 NGot=  2147483648 MDV=  2104449753
 LenX=  2104449753 LenY=  2104436316
 Requested convergence on RMS density matrix=1.00D-08 within 128 cycles.
 Requested convergence on MAX density matrix=1.00D-06.
 Requested convergence on             energy=1.00D-06.
 No special actions if energy rises.
 FoFCou: FMM=F IPFlag=           0 FMFlag=           0 FMFlg1=           0
         NFxFlg=           0 DoJE=F BraDBF=F KetDBF=F FulRan=T
         wScrn=  0.000000 ICntrl=     600 IOpCl=  0 I1Cent=           0 NGrid=           0
         NMat0=    1 NMatS0=   6555 NMatT0=    0 NMatD0=    1 NMtDS0=    0 NMtDT0=    0
 Symmetry not used in FoFCou.

 Cycle   1  Pass 1  IDiag  1:
 E= -529.592215955781    
 DIIS: error= 7.98D-02 at cycle   1 NSaved=   1.
 NSaved= 1 IEnMin= 1 EnMin= -529.592215955781     IErMin= 1 ErrMin= 7.98D-02
 ErrMax= 7.98D-02  0.00D+00 EMaxC= 1.00D-01 BMatC= 5.19D-01 BMatP= 5.19D-01
 IDIUse=3 WtCom= 2.02D-01 WtEn= 7.98D-01
 Coeff-Com:  0.100D+01
 Coeff-En:   0.100D+01
 Coeff:      0.100D+01
 Gap=     0.400 Goal=   None    Shift=    0.000
 GapD=    0.400 DampG=1.000 DampE=0.500 DampFc=0.5000 IDamp=-1.
 Damping current iteration by 5.00D-01
 RMSDP=2.27D-02 MaxDP=1.28D+00              OVMax= 1.29D-01

 Cycle   2  Pass 1  IDiag  1:
 E= -529.767182943270     Delta-E=       -0.174966987489 Rises=F Damp=T
 DIIS: error= 1.16D-02 at cycle   2 NSaved=   2.
 NSaved= 2 IEnMin= 2 EnMin= -529.767182943270     IErMin= 2 ErrMin= 1.16D-02
 ErrMax= 1.16D-02  0.00D+00 EMaxC= 1.00D-01 BMatC= 3.39D-02 BMatP= 5.19D-01
 IDIUse=3 WtCom= 8.84D-01 WtEn= 1.16D-01
 Coeff-Com: -0.129D+00 0.113D+01
 Coeff-En:   0.000D+00 0.100D+01
 Coeff:     -0.114D+00 0.111D+01
 Gap=     0.509 Goal=   None    Shift=    0.000
 RMSDP=1.07D-02 MaxDP=5.49D-01 DE=-1.75D-01 OVMax= 5.68D-02

 Cycle   3  Pass 1  IDiag  1:
 E= -529.916529731289     Delta-E=       -0.149346788019 Rises=F Damp=F
 DIIS: error= 7.51D-03 at cycle   3 NSaved=   3.
 NSaved= 3 IEnMin= 3 EnMin= -529.916529731289     IErMin= 3 ErrMin= 7.51D-03
 ErrMax= 7.51D-03  0.00D+00 EMaxC= 1.00D-01 BMatC= 9.59D-03 BMatP= 3.39D-02
 IDIUse=3 WtCom= 9.25D-01 WtEn= 7.51D-02
 Coeff-Com: -0.817D-01 0.395D+00 0.687D+00
 Coeff-En:   0.000D+00 0.000D+00 0.100D+01
 Coeff:     -0.756D-01 0.365D+00 0.711D+00
 Gap=     0.391 Goal=   None    Shift=    0.000
 RMSDP=4.24D-03 MaxDP=1.86D-01 DE=-1.49D-01 OVMax= 2.56D-02

 Cycle   4  Pass 1  IDiag  1:
 E= -529.922823515918     Delta-E=       -0.006293784629 Rises=F Damp=F
 DIIS: error= 4.90D-03 at cycle   4 NSaved=   4.
 NSaved= 4 IEnMin= 4 EnMin= -529.922823515918     IErMin= 4 ErrMin= 4.90D-03
 ErrMax= 4.90D-03  0.00D+00 EMaxC= 1.00D-01 BMatC= 2.45D-03 BMatP= 9.59D-03
 IDIUse=3 WtCom= 9.51D-01 WtEn= 4.90D-02
 Coeff-Com: -0.528D-02 0.177D-01 0.336D+00 0.652D+00
 Coeff-En:   0.000D+00 0.000D+00 0.150D+00 0.850D+00
 Coeff:     -0.502D-02 0.169D-01 0.327D+00 0.661D+00
 Gap=     0.382 Goal=   None    Shift=    0.000
 RMSDP=1.09D-03 MaxDP=3.47D-02 DE=-6.29D-03 OVMax= 1.78D-02

 Cycle   5  Pass 1  IDiag  1:
 E= -529.924529687216     Delta-E=       -0.001706171299 Rises=F Damp=F
 DIIS: error= 1.85D-03 at cycle   5 NSaved=   5.
 NSaved= 5 IEnMin= 5 EnMin= -529.924529687216     IErMin= 5 ErrMin= 1.85D-03
 ErrMax= 1.85D-03  0.00D+00 EMaxC= 1.00D-01 BMatC= 3.01D-04 BMatP= 2.45D-03
 IDIUse=3 WtCom= 9.81D-01 WtEn= 1.85D-02
 Coeff-Com:  0.590D-02-0.279D-01 0.134D+00 0.373D+00 0.515D+00
 Coeff-En:   0.000D+00 0.000D+00 0.000D+00 0.000D+00 0.100D+01
 Coeff:      0.579D-02-0.274D-01 0.132D+00 0.366D+00 0.524D+00
 Gap=     0.385 Goal=   None    Shift=    0.000
 RMSDP=7.54D-04 MaxDP=3.41D-02 DE=-1.71D-03 OVMax= 4.83D-03

 Cycle   6  Pass 1  IDiag  1:
 E= -529.924748509702     Delta-E=       -0.000218822486 Rises=F Damp=F
 DIIS: error= 3.21D-04 at cycle   6 NSaved=   6.
 NSaved= 6 IEnMin= 6 EnMin= -529.924748509702     IErMin= 6 ErrMin= 3.21D-04
 ErrMax= 3.21D-04  0.00D+00 EMaxC= 1.00D-01 BMatC= 7.47D-06 BMatP= 3.01D-04
 IDIUse=3 WtCom= 9.97D-01 WtEn= 3.21D-03
 Coeff-Com:  0.218D-02-0.679D-02-0.107D-01-0.125D-01 0.113D+00 0.915D+00
 Coeff-En:   0.000D+00 0.000D+00 0.000D+00 0.000D+00 0.000D+00 0.100D+01
 Coeff:      0.217D-02-0.677D-02-0.107D-01-0.125D-01 0.112D+00 0.915D+00
 Gap=     0.385 Goal=   None    Shift=    0.000
 RMSDP=1.47D-04 MaxDP=6.86D-03 DE=-2.19D-04 OVMax= 1.42D-03

 Cycle   7  Pass 1  IDiag  1:
 E= -529.924756861921     Delta-E=       -0.000008352219 Rises=F Damp=F
 DIIS: error= 6.22D-05 at cycle   7 NSaved=   7.
 NSaved= 7 IEnMin= 7 EnMin= -529.924756861921     IErMin= 7 ErrMin= 6.22D-05
 ErrMax= 6.22D-05  0.00D+00 EMaxC= 1.00D-01 BMatC= 6.52D-07 BMatP= 7.47D-06
 IDIUse=1 WtCom= 1.00D+00 WtEn= 0.00D+00
 Coeff-Com:  0.306D-03-0.426D-04-0.154D-01-0.347D-01-0.100D-01 0.317D+00
 Coeff-Com:  0.743D+00
 Coeff:      0.306D-03-0.426D-04-0.154D-01-0.347D-01-0.100D-01 0.317D+00
 Coeff:      0.743D+00
 Gap=     0.385 Goal=   None    Shift=    0.000
 RMSDP=5.46D-05 MaxDP=2.74D-03 DE=-8.35D-06 OVMax= 2.55D-04

 Cycle   8  Pass 1  IDiag  1:
 E= -529.924757641646     Delta-E=       -0.000000779725 Rises=F Damp=F
 DIIS: error= 1.41D-05 at cycle   8 NSaved=   8.
 NSaved= 8 IEnMin= 8 EnMin= -529.924757641646     IErMin= 8 ErrMin= 1.41D-05
 ErrMax= 1.41D-05  0.00D+00 EMaxC= 1.00D-01 BMatC= 2.10D-08 BMatP= 6.52D-07
 IDIUse=1 WtCom= 1.00D+00 WtEn= 0.00D+00
 Coeff-Com: -0.113D-03 0.431D-03-0.109D-02-0.221D-02-0.106D-01-0.135D-01
 Coeff-Com:  0.738D-01 0.953D+00
 Coeff:     -0.113D-03 0.431D-03-0.109D-02-0.221D-02-0.106D-01-0.135D-01
 Coeff:      0.738D-01 0.953D+00
 Gap=     0.385 Goal=   None    Shift=    0.000
 RMSDP=1.70D-05 MaxDP=7.90D-04 DE=-7.80D-07 OVMax= 7.48D-05

 Cycle   9  Pass 1  IDiag  1:
 E= -529.924757672383     Delta-E=       -0.000000030737 Rises=F Damp=F
 DIIS: error= 2.82D-06 at cycle   9 NSaved=   9.
 NSaved= 9 IEnMin= 9 EnMin= -529.924757672383     IErMin= 9 ErrMin= 2.82D-06
 ErrMax= 2.82D-06  0.00D+00 EMaxC= 1.00D-01 BMatC= 8.31D-10 BMatP= 2.10D-08
 IDIUse=1 WtCom= 1.00D+00 WtEn= 0.00D+00
 Coeff-Com: -0.228D-04 0.156D-04 0.842D-03 0.212D-02 0.661D-05-0.180D-01
 Coeff-Com: -0.362D-01-0.348D-02 0.105D+01
 Coeff:     -0.228D-04 0.156D-04 0.842D-03 0.212D-02 0.661D-05-0.180D-01
 Coeff:     -0.362D-01-0.348D-02 0.105D+01
 Gap=     0.385 Goal=   None    Shift=    0.000
 RMSDP=3.92D-06 MaxDP=1.68D-04 DE=-3.07D-08 OVMax= 2.42D-05

 Cycle  10  Pass 1  IDiag  1:
 E= -529.924757674033     Delta-E=       -0.000000001650 Rises=F Damp=F
 DIIS: error= 1.28D-06 at cycle  10 NSaved=  10.
 NSaved=10 IEnMin=10 EnMin= -529.924757674033     IErMin=10 ErrMin= 1.28D-06
 ErrMax= 1.28D-06  0.00D+00 EMaxC= 1.00D-01 BMatC= 2.97D-10 BMatP= 8.31D-10
 IDIUse=1 WtCom= 1.00D+00 WtEn= 0.00D+00
 Coeff-Com: -0.215D-05-0.205D-04 0.409D-03 0.103D-02 0.671D-03-0.621D-02
 Coeff-Com: -0.202D-01-0.773D-01 0.507D+00 0.595D+00
 Coeff:     -0.215D-05-0.205D-04 0.409D-03 0.103D-02 0.671D-03-0.621D-02
 Coeff:     -0.202D-01-0.773D-01 0.507D+00 0.595D+00
 Gap=     0.385 Goal=   None    Shift=    0.000
 RMSDP=5.49D-07 MaxDP=2.26D-05 DE=-1.65D-09 OVMax= 4.29D-06

 Cycle  11  Pass 1  IDiag  1:
 E= -529.924757674280     Delta-E=       -0.000000000247 Rises=F Damp=F
 DIIS: error= 3.46D-07 at cycle  11 NSaved=  11.
 NSaved=11 IEnMin=11 EnMin= -529.924757674280     IErMin=11 ErrMin= 3.46D-07
 ErrMax= 3.46D-07  0.00D+00 EMaxC= 1.00D-01 BMatC= 1.91D-11 BMatP= 2.97D-10
 IDIUse=1 WtCom= 1.00D+00 WtEn= 0.00D+00
 Coeff-Com:  0.113D-05-0.665D-05 0.449D-04 0.125D-03 0.154D-03-0.126D-03
 Coeff-Com: -0.306D-02-0.245D-01 0.561D-01 0.187D+00 0.784D+00
 Coeff:      0.113D-05-0.665D-05 0.449D-04 0.125D-03 0.154D-03-0.126D-03
 Coeff:     -0.306D-02-0.245D-01 0.561D-01 0.187D+00 0.784D+00
 Gap=     0.385 Goal=   None    Shift=    0.000
 RMSDP=2.19D-07 MaxDP=7.76D-06 DE=-2.47D-10 OVMax= 1.44D-06

 Cycle  12  Pass 1  IDiag  1:
 E= -529.924757674297     Delta-E=       -0.000000000017 Rises=F Damp=F
 DIIS: error= 1.61D-07 at cycle  12 NSaved=  12.
 NSaved=12 IEnMin=12 EnMin= -529.924757674297     IErMin=12 ErrMin= 1.61D-07
 ErrMax= 1.61D-07  0.00D+00 EMaxC= 1.00D-01 BMatC= 2.31D-12 BMatP= 1.91D-11
 IDIUse=1 WtCom= 1.00D+00 WtEn= 0.00D+00
 Coeff-Com:  0.894D-06 0.891D-07-0.470D-04-0.108D-03-0.551D-04 0.977D-03
 Coeff-Com:  0.188D-02 0.246D-02-0.574D-01-0.265D-01 0.257D+00 0.822D+00
 Coeff:      0.894D-06 0.891D-07-0.470D-04-0.108D-03-0.551D-04 0.977D-03
 Coeff:      0.188D-02 0.246D-02-0.574D-01-0.265D-01 0.257D+00 0.822D+00
 Gap=     0.385 Goal=   None    Shift=    0.000
 RMSDP=9.16D-08 MaxDP=3.03D-06 DE=-1.66D-11 OVMax= 9.02D-07

 Cycle  13  Pass 1  IDiag  1:
 E= -529.924757674297     Delta-E=        0.000000000000 Rises=F Damp=F
 DIIS: error= 3.81D-08 at cycle  13 NSaved=  13.
 NSaved=13 IEnMin=12 EnMin= -529.924757674297     IErMin=13 ErrMin= 3.81D-08
 ErrMax= 3.81D-08  0.00D+00 EMaxC= 1.00D-01 BMatC= 6.37D-14 BMatP= 2.31D-12
 IDIUse=1 WtCom= 1.00D+00 WtEn= 0.00D+00
 Coeff-Com:  0.291D-07 0.233D-07-0.639D-06-0.109D-05-0.813D-05-0.487D-05
 Coeff-Com:  0.478D-04 0.965D-03-0.300D-03-0.706D-02-0.440D-01-0.204D-01
 Coeff-Com:  0.107D+01
 Coeff:      0.291D-07 0.233D-07-0.639D-06-0.109D-05-0.813D-05-0.487D-05
 Coeff:      0.478D-04 0.965D-03-0.300D-03-0.706D-02-0.440D-01-0.204D-01
 Coeff:      0.107D+01
 Gap=     0.385 Goal=   None    Shift=    0.000
 RMSDP=1.58D-08 MaxDP=2.25D-07 DE= 0.00D+00 OVMax= 4.11D-07

 Cycle  14  Pass 1  IDiag  1:
 E= -529.924757674298     Delta-E=       -0.000000000001 Rises=F Damp=F
 DIIS: error= 1.93D-08 at cycle  14 NSaved=  14.
 NSaved=14 IEnMin=14 EnMin= -529.924757674298     IErMin=14 ErrMin= 1.93D-08
 ErrMax= 1.93D-08  0.00D+00 EMaxC= 1.00D-01 BMatC= 1.15D-14 BMatP= 6.37D-14
 IDIUse=1 WtCom= 1.00D+00 WtEn= 0.00D+00
 Coeff-Com: -0.701D-07 0.238D-07 0.389D-05 0.891D-05 0.257D-05-0.860D-04
 Coeff-Com: -0.150D-03 0.307D-05 0.513D-02 0.105D-03-0.361D-01-0.839D-01
 Coeff-Com:  0.274D+00 0.841D+00
 Coeff:     -0.701D-07 0.238D-07 0.389D-05 0.891D-05 0.257D-05-0.860D-04
 Coeff:     -0.150D-03 0.307D-05 0.513D-02 0.105D-03-0.361D-01-0.839D-01
 Coeff:      0.274D+00 0.841D+00
 Gap=     0.385 Goal=   None    Shift=    0.000
 RMSDP=5.50D-09 MaxDP=1.04D-07 DE=-1.14D-12 OVMax= 1.89D-07

 SCF Done:  E(RwB97XD) =  -529.924757674     A.U. after   14 cycles
            NFock= 14  Conv=0.55D-08     -V/T= 2.0052
 KE= 5.271857326402D+02 PE=-2.057728727574D+03 EE= 5.970821432326D+02
 Leave Link  502 at Wed May 26 09:20:53 2021, MaxMem=  2147483648 cpu:        29.0
 (Enter /opt/cluster/programs/g09_d.01/g09/l601.exe)
 Copying SCF densities to generalized density rwf, IOpCl= 0 IROHF=0.

 **********************************************************************

            Population analysis using the SCF density.

 **********************************************************************

 Orbital symmetries:
       Occupied  (A) (A) (A) (A) (A) (A) (A) (A) (A) (A) (A) (A)
                 (A) (A) (A) (A) (A) (A) (A) (A) (A) (A) (A) (A)
                 (A) (A) (A) (A) (A) (A) (A) (A)
       Virtual   (A) (A) (A) (A) (A) (A) (A) (A) (A) (A) (A) (A)
                 (A) (A) (A) (A) (A) (A) (A) (A) (A) (A) (A) (A)
                 (A) (A) (A) (A) (A) (A) (A) (A) (A) (A) (A) (A)
                 (A) (A) (A) (A) (A) (A) (A) (A) (A) (A) (A) (A)
                 (A) (A) (A) (A) (A) (A) (A) (A) (A) (A) (A) (A)
                 (A) (A) (A) (A) (A) (A) (A) (A) (A) (A) (A) (A)
                 (A) (A) (A) (A) (A) (A) (A) (A) (A) (A)
 The electronic state is 1-A.
 Alpha  occ. eigenvalues --  -24.87800 -24.87796 -24.87763 -19.30313 -10.58428
 Alpha  occ. eigenvalues --  -10.43903 -10.36534 -10.32761  -1.42710  -1.34342
 Alpha  occ. eigenvalues --   -1.33982  -1.19588  -0.94952  -0.87949  -0.79107
 Alpha  occ. eigenvalues --   -0.70416  -0.69192  -0.68419  -0.63198  -0.59683
 Alpha  occ. eigenvalues --   -0.59094  -0.56084  -0.55944  -0.54969  -0.53913
 Alpha  occ. eigenvalues --   -0.52809  -0.51733  -0.51222  -0.50536  -0.49045
 Alpha  occ. eigenvalues --   -0.46589  -0.36879
 Alpha virt. eigenvalues --    0.01618   0.05211   0.07864   0.09188   0.09618
 Alpha virt. eigenvalues --    0.10260   0.11960   0.12016   0.12902   0.13055
 Alpha virt. eigenvalues --    0.14235   0.14826   0.16123   0.17210   0.17987
 Alpha virt. eigenvalues --    0.18836   0.19556   0.21893   0.22869   0.24351
 Alpha virt. eigenvalues --    0.24656   0.27019   0.29421   0.30137   0.30705
 Alpha virt. eigenvalues --    0.32845   0.34615   0.35504   0.35531   0.36830
 Alpha virt. eigenvalues --    0.37735   0.39113   0.40542   0.40803   0.41468
 Alpha virt. eigenvalues --    0.44097   0.44444   0.45028   0.45174   0.47457
 Alpha virt. eigenvalues --    0.48681   0.52114   0.52230   0.53512   0.57400
 Alpha virt. eigenvalues --    0.68130   0.71398   0.73917   0.75882   0.77350
 Alpha virt. eigenvalues --    0.83396   0.84555   0.87890   0.88307   0.91583
 Alpha virt. eigenvalues --    0.95184   1.08046   1.10100   1.13562   1.15879
 Alpha virt. eigenvalues --    1.17824   1.21645   1.22765   1.35718   1.38247
 Alpha virt. eigenvalues --    1.44913   1.47439   1.54917   1.55101   1.59608
 Alpha virt. eigenvalues --    1.67170   1.67195   1.69149   1.74407   1.80492
 Alpha virt. eigenvalues --    1.82421   1.83893   1.85982   1.98282   2.29374
 Alpha virt. eigenvalues --    2.33704   2.72097
          Condensed to atoms (all electrons):
               1          2          3          4          5          6
     1  C    8.888481  -1.162478   0.324514   0.364311   0.346312  -1.848650
     2  C   -1.162478   7.293488  -0.018025  -0.045348  -0.058942  -1.220876
     3  H    0.324514  -0.018025   0.475660  -0.018298  -0.026347   0.022496
     4  H    0.364311  -0.045348  -0.018298   0.436113  -0.019847   0.035275
     5  H    0.346312  -0.058942  -0.026347  -0.019847   0.485840   0.040916
     6  C   -1.848650  -1.220876   0.022496   0.035275   0.040916   9.575061
     7  O   -0.097280   0.353082   0.002361  -0.003886   0.004886  -0.156296
     8  C   -0.043681   0.162177  -0.000916  -0.005177  -0.002403  -0.026597
     9  H    0.018106   0.003995  -0.000173  -0.000013  -0.000271   0.302806
    10  H    0.016003   0.002775  -0.000017  -0.000052  -0.000212   0.300430
    11  F    0.024983  -0.010548  -0.000072   0.000005   0.000014  -0.110362
    12  F    0.009657   0.024888   0.000006   0.000009   0.000005  -0.112248
    13  F    0.025682  -0.010271   0.000019   0.000010  -0.000100  -0.107196
               7          8          9         10         11         12
     1  C   -0.097280  -0.043681   0.018106   0.016003   0.024983   0.009657
     2  C    0.353082   0.162177   0.003995   0.002775  -0.010548   0.024888
     3  H    0.002361  -0.000916  -0.000173  -0.000017  -0.000072   0.000006
     4  H   -0.003886  -0.005177  -0.000013  -0.000052   0.000005   0.000009
     5  H    0.004886  -0.002403  -0.000271  -0.000212   0.000014   0.000005
     6  C   -0.156296  -0.026597   0.302806   0.300430  -0.110362  -0.112248
     7  O    8.262169   0.017892   0.002020   0.002539  -0.000950  -0.001096
     8  C    0.017892   5.078324  -0.025969  -0.021341   0.111646   0.102871
     9  H    0.002020  -0.025969   0.436012  -0.019830  -0.005711  -0.001426
    10  H    0.002539  -0.021341  -0.019830   0.436495   0.007510  -0.001390
    11  F   -0.000950   0.111646  -0.005711   0.007510   9.273579  -0.052241
    12  F   -0.001096   0.102871  -0.001426  -0.001390  -0.052241   9.302347
    13  F   -0.001566   0.107739   0.007495  -0.005765  -0.058149  -0.052073
              13
     1  C    0.025682
     2  C   -0.010271
     3  H    0.000019
     4  H    0.000010
     5  H   -0.000100
     6  C   -0.107196
     7  O   -0.001566
     8  C    0.107739
     9  H    0.007495
    10  H   -0.005765
    11  F   -0.058149
    12  F   -0.052073
    13  F    9.273738
 Mulliken charges:
               1
     1  C   -0.865959
     2  C    0.686081
     3  H    0.238793
     4  H    0.256899
     5  H    0.230149
     6  C   -0.694759
     7  O   -0.383875
     8  C    0.545435
     9  H    0.282959
    10  H    0.282854
    11  F   -0.179704
    12  F   -0.219309
    13  F   -0.179563
 Sum of Mulliken charges =   0.00000
 Mulliken charges with hydrogens summed into heavy atoms:
               1
     1  C   -0.140118
     2  C    0.686081
     6  C   -0.128947
     7  O   -0.383875
     8  C    0.545435
    11  F   -0.179704
    12  F   -0.219309
    13  F   -0.179563
 Electronic spatial extent (au):  <R**2>=           1012.1119
 Charge=              0.0000 electrons
 Dipole moment (field-independent basis, Debye):
    X=             -3.2973    Y=              4.3576    Z=              0.0125  Tot=              5.4646
 Quadrupole moment (field-independent basis, Debye-Ang):
   XX=            -45.3968   YY=            -48.8307   ZZ=            -45.5354
   XY=             -5.4840   XZ=             -0.0634   YZ=              0.0241
 Traceless Quadrupole moment (field-independent basis, Debye-Ang):
   XX=              1.1908   YY=             -2.2431   ZZ=              1.0523
   XY=             -5.4840   XZ=             -0.0634   YZ=              0.0241
 Octapole moment (field-independent basis, Debye-Ang**2):
  XXX=              1.2315  YYY=              2.4809  ZZZ=              0.1981  XYY=              9.1076
  XXY=              2.0650  XXZ=              0.1438  XZZ=              3.7611  YZZ=              2.5575
  YYZ=             -0.0983  XYZ=             -0.1460
 Hexadecapole moment (field-independent basis, Debye-Ang**3):
 XXXX=           -782.7735 YYYY=           -231.9163 ZZZZ=           -126.9326 XXXY=            -12.1226
 XXXZ=             -0.0080 YYYX=             -6.3259 YYYZ=             -0.3431 ZZZX=             -0.7802
 ZZZY=              0.2186 XXYY=           -185.3750 XXZZ=           -157.5192 YYZZ=            -54.7134
 XXYZ=              0.6929 YYXZ=              0.3182 ZZXY=              1.5819
 N-N= 4.035360940273D+02 E-N=-2.057728727339D+03  KE= 5.271857326402D+02
 No NMR shielding tensors so no spin-rotation constants.
 Leave Link  601 at Wed May 26 09:20:54 2021, MaxMem=  2147483648 cpu:         0.6
 (Enter /opt/cluster/programs/g09_d.01/g09/l701.exe)
 Compute integral first derivatives.
 ... and contract with generalized density number  0.
 R6Disp: Adding Grimme-D2 dispersion energy 1st derivatives to the gradient.
 Leave Link  701 at Wed May 26 09:20:54 2021, MaxMem=  2147483648 cpu:         0.6
 (Enter /opt/cluster/programs/g09_d.01/g09/l702.exe)
 L702 exits ... SP integral derivatives will be done elsewhere.
 Leave Link  702 at Wed May 26 09:20:54 2021, MaxMem=  2147483648 cpu:         0.2
 (Enter /opt/cluster/programs/g09_d.01/g09/l703.exe)
 Compute integral first derivatives, UseDBF=F ICtDFT=           0.
 Integral derivatives from FoFJK, PRISM(SPDF).
 Calling FoFJK, ICntrl=      2127 FMM=F ISym2X=0 I1Cent= 0 IOpClX= 0 NMat=1 NMatS=1 NMatT=0.
 FoFJK:  IHMeth= 1 ICntrl=    2127 DoSepK=T KAlg= 0 I1Cent=   0 FoldK=F
 IRaf=         1 NMat=   1 IRICut=       1 DoRegI=T DoRafI=F ISym2E= 0.
 FoFCou: FMM=F IPFlag=           0 FMFlag=      100000 FMFlg1=         800
         NFxFlg=           0 DoJE=F BraDBF=F KetDBF=F FulRan=T
         wScrn=  0.000000 ICntrl=    2527 IOpCl=  0 I1Cent=           0 NGrid=           0
         NMat0=    1 NMatS0=      1 NMatT0=    0 NMatD0=    1 NMtDS0=    0 NMtDT0=    0
 Symmetry not used in FoFCou.
 Leave Link  703 at Wed May 26 09:20:55 2021, MaxMem=  2147483648 cpu:         8.3
 (Enter /opt/cluster/programs/g09_d.01/g09/l716.exe)
 Dipole        =-1.29726465D+00 1.71442520D+00 4.90864129D-03
 ***** Axes restored to original set *****
 -------------------------------------------------------------------
 Center     Atomic                   Forces (Hartrees/Bohr)
 Number     Number              X              Y              Z
 -------------------------------------------------------------------
      1        6          -0.000005578   -0.000006871   -0.000216855
      2        6           0.000005501    0.000005682    0.000202311
      3        1           0.000001543   -0.000006187    0.000001046
      4        1          -0.000000001    0.000000513    0.000008603
      5        1           0.000002225    0.000004987   -0.000000146
      6        6           0.000004256   -0.000008476    0.000214754
      7        8          -0.000003160   -0.000003443    0.000011503
      8        6           0.000000215    0.000011191   -0.000208408
      9        1           0.000000632   -0.000003310   -0.000008169
     10        1           0.000000773    0.000009757   -0.000008770
     11        9          -0.000000261   -0.000007621    0.000008735
     12        9          -0.000000589   -0.000000373   -0.000007963
     13        9          -0.000005557    0.000004153    0.000003358
 -------------------------------------------------------------------
 Cartesian Forces:  Max     0.000216855 RMS     0.000067686
 Leave Link  716 at Wed May 26 09:20:55 2021, MaxMem=  2147483648 cpu:         0.2
 (Enter /opt/cluster/programs/g09_d.01/g09/l103.exe)

 GradGradGradGradGradGradGradGradGradGradGradGradGradGradGradGradGradGrad
 Berny optimization.
 FormGI is forming the generalized inverse of G from B-inverse, IUseBI=4.
 Internal  Forces:  Max     0.000207542 RMS     0.000045310
 Search for a local minimum.
 Step number   1 out of a maximum of   64
 All quantities printed in internal units (Hartrees-Bohrs-Radians)
 RMS Force = .24606D-05 SwitMx=.10000D-02 MixMth= 2
 Mixed Optimization -- En-DIIS/RFO-DIIS
 Second derivative matrix not updated -- first step.
 ITU=  0
     Eigenvalues ---    0.00529   0.00684   0.00723   0.02893   0.05547
     Eigenvalues ---    0.07286   0.07396   0.08072   0.08840   0.09800
     Eigenvalues ---    0.12090   0.16000   0.16000   0.16000   0.22023
     Eigenvalues ---    0.25000   0.25000   0.25000   0.25000   0.25000
     Eigenvalues ---    0.30009   0.31732   0.32039   0.34057   0.34161
     Eigenvalues ---    0.34166   0.34177   0.34758   0.45499   0.48263
     Eigenvalues ---    0.48294   0.906951000.000001000.000001000.00000
     Eigenvalues --- 1000.000001000.000001000.000001000.000001000.00000
     Eigenvalues --- 1000.000001000.000001000.000001000.000001000.00000
     Eigenvalues --- 1000.000001000.000001000.000001000.000001000.00000
     Eigenvalues --- 1000.000001000.000001000.000001000.00000
 RFO step:  Lambda= 0.00000000D+00 EMin= 5.28754159D-03
 Linear search not attempted -- first point.
 Iteration  1 RMS(Cart)=  0.00007998 RMS(Int)=  0.00000000
 Iteration  2 RMS(Cart)=  0.00000000 RMS(Int)=  0.00000000
 Iteration  1 RMS(Cart)=  0.00000000 RMS(Int)=  0.00000000
 ITry= 1 IFail=0 DXMaxC= 2.30D-04 DCOld= 1.00D+10 DXMaxT= 3.00D-01 DXLimC= 3.00D+00 Rises=F
 Variable       Old X    -DE/DX   Delta X   Delta X   Delta X     New X
                                 (Linear)    (Quad)   (Total)
    R1        2.84637   0.00000   0.00000  -0.00001  -0.00001   2.84636
    R2        2.07234   0.00000   0.00000  -0.00001  -0.00001   2.07233
    R3        2.06070   0.00000   0.00000   0.00000   0.00000   2.06070
    R4        2.07032   0.00000   0.00000   0.00001   0.00001   2.07033
    R5        2.87946   0.00000   0.00000   0.00000   0.00000   2.87946
    R6        2.32614   0.00000   0.00000   0.00000   0.00000   2.32615
    R7        2.84072   0.00000   0.00000   0.00001   0.00001   2.84074
    R8        2.07059   0.00000   0.00000   0.00001   0.00001   2.07060
    R9        2.07051   0.00000   0.00000   0.00000   0.00000   2.07051
   R10        2.61660   0.00000   0.00000   0.00000   0.00000   2.61660
   R11        2.64700   0.00000   0.00000   0.00000   0.00000   2.64700
   R12        2.61627   0.00000   0.00000   0.00000   0.00000   2.61627
    A1        1.92392   0.00000   0.00000   0.00003   0.00003   1.92395
    A2        1.91070   0.00000   0.00000   0.00001   0.00001   1.91071
    A3        1.93692   0.00000   0.00000  -0.00001  -0.00001   1.93691
    A4        1.90330   0.00000   0.00000   0.00002   0.00002   1.90332
    A5        1.87618   0.00000   0.00000  -0.00001  -0.00001   1.87617
    A6        1.91230   0.00000   0.00000  -0.00004  -0.00004   1.91226
    A7        2.00730   0.00000   0.00000   0.00000   0.00000   2.00730
    A8        2.13861   0.00000   0.00000   0.00001   0.00001   2.13861
    A9        2.13727   0.00000   0.00000  -0.00001  -0.00001   2.13726
   A10        2.02166   0.00000   0.00000   0.00002   0.00002   2.02169
   A11        1.90591   0.00000   0.00000  -0.00003  -0.00003   1.90588
   A12        1.90435   0.00000   0.00000   0.00003   0.00003   1.90438
   A13        1.88190  -0.00009   0.00000  -0.00004  -0.00004   1.88186
   A14        1.87953   0.00009   0.00000   0.00003   0.00003   1.87957
   A15        1.86421   0.00000   0.00000  -0.00003  -0.00003   1.86419
   A16        1.97361   0.00000   0.00000   0.00000   0.00000   1.97361
   A17        1.91311   0.00000   0.00000   0.00002   0.00002   1.91314
   A18        1.97359   0.00001   0.00000   0.00003   0.00003   1.97362
   A19        1.85575   0.00000   0.00000  -0.00001  -0.00001   1.85574
   A20        1.88461  -0.00001   0.00000  -0.00004  -0.00004   1.88457
   A21        1.85586   0.00000   0.00000   0.00000   0.00000   1.85586
    D1       -1.13208   0.00005   0.00000   0.00008   0.00008  -1.13200
    D2        2.00592  -0.00004   0.00000   0.00009   0.00009   2.00601
    D3        3.05749   0.00004   0.00000   0.00003   0.00003   3.05753
    D4       -0.08769  -0.00005   0.00000   0.00004   0.00004  -0.08765
    D5        0.94450   0.00005   0.00000   0.00008   0.00008   0.94457
    D6       -2.20069  -0.00004   0.00000   0.00008   0.00008  -2.20061
    D7        3.13781  -0.00021   0.00000   0.00000   0.00000   3.13781
    D8        1.00992  -0.00009   0.00000   0.00005   0.00005   1.00997
    D9       -1.02182  -0.00009   0.00000   0.00009   0.00009  -1.02174
   D10       -0.00019  -0.00012   0.00000  -0.00001  -0.00001  -0.00020
   D11       -2.12808  -0.00001   0.00000   0.00005   0.00005  -2.12804
   D12        2.12336  -0.00001   0.00000   0.00008   0.00008   2.12344
   D13       -1.07729   0.00005   0.00000   0.00015   0.00015  -1.07714
   D14        3.13873   0.00005   0.00000   0.00015   0.00015   3.13888
   D15        1.07144   0.00004   0.00000   0.00012   0.00012   1.07156
   D16        1.06333  -0.00002   0.00000   0.00010   0.00010   1.06343
   D17       -1.00383  -0.00002   0.00000   0.00010   0.00010  -1.00374
   D18       -3.07112  -0.00002   0.00000   0.00006   0.00006  -3.07106
   D19        3.06916  -0.00002   0.00000   0.00007   0.00007   3.06922
   D20        1.00199  -0.00002   0.00000   0.00006   0.00006   1.00206
   D21       -1.06530  -0.00002   0.00000   0.00003   0.00003  -1.06526
         Item               Value     Threshold  Converged?
 Maximum Force            0.000007     0.000450     YES
 RMS     Force            0.000002     0.000300     YES
 Maximum Displacement     0.000230     0.001800     YES
 RMS     Displacement     0.000080     0.001200     YES
 Predicted change in Energy=-1.632188D-09
 Optimization completed.
    -- Stationary point found.
                           ----------------------------
                           !   Optimized Parameters   !
                           ! (Angstroms and Degrees)  !
 --------------------------                            --------------------------
 ! Name  Definition              Value          Derivative Info.                !
 --------------------------------------------------------------------------------
 ! R1    R(1,2)                  1.5062         -DE/DX =    0.0                 !
 ! R2    R(1,3)                  1.0966         -DE/DX =    0.0                 !
 ! R3    R(1,4)                  1.0905         -DE/DX =    0.0                 !
 ! R4    R(1,5)                  1.0956         -DE/DX =    0.0                 !
 ! R5    R(2,6)                  1.5237         -DE/DX =    0.0                 !
 ! R6    R(2,7)                  1.2309         -DE/DX =    0.0                 !
 ! R7    R(6,8)                  1.5032         -DE/DX =    0.0                 !
 ! R8    R(6,9)                  1.0957         -DE/DX =    0.0                 !
 ! R9    R(6,10)                 1.0957         -DE/DX =    0.0                 !
 ! R10   R(8,11)                 1.3846         -DE/DX =    0.0                 !
 ! R11   R(8,12)                 1.4007         -DE/DX =    0.0                 !
 ! R12   R(8,13)                 1.3845         -DE/DX =    0.0                 !
 ! A1    A(2,1,3)              110.2327         -DE/DX =    0.0                 !
 ! A2    A(2,1,4)              109.4749         -DE/DX =    0.0                 !
 ! A3    A(2,1,5)              110.9771         -DE/DX =    0.0                 !
 ! A4    A(3,1,4)              109.051          -DE/DX =    0.0                 !
 ! A5    A(3,1,5)              107.4971         -DE/DX =    0.0                 !
 ! A6    A(4,1,5)              109.5666         -DE/DX =    0.0                 !
 ! A7    A(1,2,6)              115.01           -DE/DX =    0.0                 !
 ! A8    A(1,2,7)              122.5331         -DE/DX =    0.0                 !
 ! A9    A(6,2,7)              122.4566         -DE/DX =    0.0                 !
 ! A10   A(2,6,8)              115.8329         -DE/DX =    0.0                 !
 ! A11   A(2,6,9)              109.2007         -DE/DX =    0.0                 !
 ! A12   A(2,6,10)             109.1111         -DE/DX =    0.0                 !
 ! A13   A(8,6,9)              107.8248         -DE/DX =   -0.0001              !
 ! A14   A(8,6,10)             107.6894         -DE/DX =    0.0001              !
 ! A15   A(9,6,10)             106.8116         -DE/DX =    0.0                 !
 ! A16   A(6,8,11)             113.0798         -DE/DX =    0.0                 !
 ! A17   A(6,8,12)             109.6133         -DE/DX =    0.0                 !
 ! A18   A(6,8,13)             113.0784         -DE/DX =    0.0                 !
 ! A19   A(11,8,12)            106.3264         -DE/DX =    0.0                 !
 ! A20   A(11,8,13)            107.98           -DE/DX =    0.0                 !
 ! A21   A(12,8,13)            106.3329         -DE/DX =    0.0                 !
 ! D1    D(3,1,2,6)            -64.8632         -DE/DX =    0.0                 !
 ! D2    D(3,1,2,7)            114.9309         -DE/DX =    0.0                 !
 ! D3    D(4,1,2,6)            175.1815         -DE/DX =    0.0                 !
 ! D4    D(4,1,2,7)             -5.0244         -DE/DX =    0.0                 !
 ! D5    D(5,1,2,6)             54.1157         -DE/DX =    0.0                 !
 ! D6    D(5,1,2,7)           -126.0902         -DE/DX =    0.0                 !
 ! D7    D(1,2,6,8)            179.7833         -DE/DX =   -0.0002              !
 ! D8    D(1,2,6,9)             57.8641         -DE/DX =   -0.0001              !
 ! D9    D(1,2,6,10)           -58.5462         -DE/DX =   -0.0001              !
 ! D10   D(7,2,6,8)             -0.011          -DE/DX =   -0.0001              !
 ! D11   D(7,2,6,9)           -121.9303         -DE/DX =    0.0                 !
 ! D12   D(7,2,6,10)           121.6595         -DE/DX =    0.0                 !
 ! D13   D(2,6,8,11)           -61.7242         -DE/DX =    0.0                 !
 ! D14   D(2,6,8,12)           179.8361         -DE/DX =    0.0                 !
 ! D15   D(2,6,8,13)            61.389          -DE/DX =    0.0                 !
 ! D16   D(9,6,8,11)            60.9243         -DE/DX =    0.0                 !
 ! D17   D(9,6,8,12)           -57.5154         -DE/DX =    0.0                 !
 ! D18   D(9,6,8,13)          -175.9624         -DE/DX =    0.0                 !
 ! D19   D(10,6,8,11)          175.8498         -DE/DX =    0.0                 !
 ! D20   D(10,6,8,12)           57.4101         -DE/DX =    0.0                 !
 ! D21   D(10,6,8,13)          -61.037          -DE/DX =    0.0                 !
 --------------------------------------------------------------------------------
 Lowest energy point so far.  Saving SCF results.
 GradGradGradGradGradGradGradGradGradGradGradGradGradGradGradGradGradGrad

 Largest change from initial coordinates is atom    3       0.000 Angstoms.
 Leave Link  103 at Wed May 26 09:20:55 2021, MaxMem=  2147483648 cpu:         0.1
 (Enter /opt/cluster/programs/g09_d.01/g09/l202.exe)
                          Input orientation:                          
 ---------------------------------------------------------------------
 Center     Atomic      Atomic             Coordinates (Angstroms)
 Number     Number       Type             X           Y           Z
 ---------------------------------------------------------------------
      1          6           0        2.797154    0.639207    0.000331
      2          6           0        1.481008   -0.093249    0.002493
      3          1           0        2.915015    1.204576   -0.931913
      4          1           0        3.613098   -0.079079    0.086586
      5          1           0        2.849161    1.354742    0.828325
      6          6           0        0.246606    0.800091    0.002854
      7          8           0        1.407218   -1.321975    0.000138
      8          6           0       -1.077292    0.088029   -0.000114
      9          1           0        0.276452    1.456334   -0.874091
     10          1           0        0.273653    1.448972    0.885299
     11          9           0       -1.268192   -0.698267   -1.123742
     12          9           0       -2.116392    1.027338    0.004341
     13          9           0       -1.267636   -0.708428    1.116213
 ---------------------------------------------------------------------
                    Distance matrix (angstroms):
                    1          2          3          4          5
     1  C    0.000000
     2  C    1.506233   0.000000
     3  H    1.096637   2.147985   0.000000
     4  H    1.090477   2.133795   1.781132   0.000000
     5  H    1.095568   2.156506   1.767859   1.785950   0.000000
     6  C    2.555618   1.523747   2.856187   3.480405   2.786096
     7  O    2.403780   1.230942   3.086362   2.533411   3.151176
     8  C    3.913455   2.564716   4.248934   4.694167   4.208076
     9  H    2.790385   2.149549   2.651177   3.796525   3.086644
    10  H    2.794091   2.148371   3.215398   3.758294   2.577861
    11  F    4.424863   3.031922   4.599655   5.067078   4.997800
    12  F    4.928853   3.767891   5.120844   5.835921   5.044092
    13  F    4.425362   3.028838   5.034776   5.027701   4.613845
                    6          7          8          9         10
     6  C    0.000000
     7  O    2.418717   0.000000
     8  C    1.503245   2.856729   0.000000
     9  H    1.095709   3.124405   2.113934   0.000000
    10  H    1.095667   3.121959   2.112149   1.759408   0.000000
    11  F    2.410168   2.968154   1.384646   2.662810   3.320266
    12  F    2.373900   4.234987   1.400732   2.584837   2.581894
    13  F    2.410006   2.962585   1.384471   3.321402   2.661441
                   11         12         13
    11  F    0.000000
    12  F    2.229288   0.000000
    13  F    2.239978   2.229244   0.000000
 Stoichiometry    C4H5F3O
 Framework group  C1[X(C4H5F3O)]
 Deg. of freedom    33
 Full point group                 C1      NOp   1
 RotChk:  IX=0 Diff= 8.72D-16
 Largest Abelian subgroup         C1      NOp   1
 Largest concise Abelian subgroup C1      NOp   1
                         Standard orientation:                         
 ---------------------------------------------------------------------
 Center     Atomic      Atomic             Coordinates (Angstroms)
 Number     Number       Type             X           Y           Z
 ---------------------------------------------------------------------
      1          6           0       -2.797154    0.639207   -0.000331
      2          6           0       -1.481008   -0.093249   -0.002493
      3          1           0       -2.915015    1.204576    0.931913
      4          1           0       -3.613098   -0.079079   -0.086586
      5          1           0       -2.849161    1.354742   -0.828325
      6          6           0       -0.246606    0.800091   -0.002854
      7          8           0       -1.407218   -1.321975   -0.000138
      8          6           0        1.077292    0.088029    0.000114
      9          1           0       -0.276452    1.456334    0.874091
     10          1           0       -0.273653    1.448972   -0.885299
     11          9           0        1.268192   -0.698267    1.123742
     12          9           0        2.116392    1.027338   -0.004341
     13          9           0        1.267636   -0.708428   -1.116213
 ---------------------------------------------------------------------
 Rotational constants (GHZ):      3.6785596      1.2885400      1.1807851
 Leave Link  202 at Wed May 26 09:20:55 2021, MaxMem=  2147483648 cpu:         0.0
 (Enter /opt/cluster/programs/g09_d.01/g09/l9999.exe)
 1\1\GINC-NODE08\FOpt\RwB97XD\6-31+G\C4H5F3O1\BOITTIER\26-May-2021\0\\#
 p wB97XD/6-31+G Opt=ModRedun\\N.pdb\\0,1\C,2.797154,0.639207,0.000331\
 C,1.481008,-0.093249,0.002493\H,2.915015,1.204576,-0.931913\H,3.613098
 ,-0.079079,0.086586\H,2.849161,1.354742,0.828325\C,0.246606,0.800091,0
 .002854\O,1.407218,-1.321975,0.000138\C,-1.077292,0.088029,-0.000114\H
 ,0.276452,1.456334,-0.874091\H,0.273653,1.448972,0.885299\F,-1.268192,
 -0.698267,-1.123742\F,-2.116392,1.027338,0.004341\F,-1.267636,-0.70842
 8,1.116213\\Version=ES64L-G09RevD.01\State=1-A\HF=-529.9247577\RMSD=5.
 500e-09\RMSF=6.769e-05\Dipole=1.2972645,1.7144253,-0.0049086\Quadrupol
 e=0.8853561,-1.6676955,0.7823394,4.0772285,-0.0471707,-0.0179402\PG=C0
 1 [X(C4H5F3O1)]\\@


 YOU SHOULDN'T LET PEOPLE DRIVE YOU CRAZY
 WHEN YOU KNOW IT'S WITHIN WALKING DISTANCE.
 Job cpu time:       0 days  0 hours  0 minutes 47.5 seconds.
 File lengths (MBytes):  RWF=      7 Int=      0 D2E=      0 Chk=      3 Scr=      1
 Normal termination of Gaussian 09 at Wed May 26 09:20:55 2021.
