N.pdb                                                                   
FOpt      RwB97XD                                                     6-31+G              
Number of atoms                            I               13
Info1-9                                    I   N=           9
          24          24           0           0           0         100
           2          18        -802
Charge                                     I                0
Multiplicity                               I                1
Number of electrons                        I               64
Number of alpha electrons                  I               32
Number of beta electrons                   I               32
Number of basis functions                  I              114
Number of independent functions            I              114
Number of point charges in /Mol/           I                0
Number of translation vectors              I                0
Atomic numbers                             I   N=          13
           6           6           1           1           1           6
           8           6           1           1           9           9
           9
Nuclear charges                            R   N=          13
  6.00000000E+00  6.00000000E+00  1.00000000E+00  1.00000000E+00  1.00000000E+00
  6.00000000E+00  8.00000000E+00  6.00000000E+00  1.00000000E+00  1.00000000E+00
  9.00000000E+00  9.00000000E+00  9.00000000E+00
Current cartesian coordinates              R   N=          39
 -5.28585516E+00  1.20792563E+00 -6.25440296E-04 -2.79869953E+00 -1.76215358E-01
 -4.71102820E-03 -5.50858029E+00  2.27631818E+00  1.76106041E+00 -6.82776573E+00
 -1.49438351E-01 -1.63623768E-01 -5.38413429E+00  2.56009081E+00 -1.56530734E+00
 -4.66017987E-01  1.51195282E+00 -5.39321933E-03 -2.65925640E+00 -2.49817098E+00
 -2.60723152E-04  2.03578680E+00  1.66350910E-01  2.15487833E-04 -5.22418880E-01
  2.75207236E+00  1.65179266E+00 -5.17129535E-01  2.73816020E+00 -1.67297260E+00
  2.39653567E+00 -1.31953315E+00  2.12356468E+00  3.99940104E+00  1.94138787E+00
 -8.20324209E-03  2.39548498E+00 -1.33873466E+00 -2.10933682E+00
Force Field                                I                0
Int Atom Types                             I   N=          13
           0           0           0           0           0           0
           0           0           0           0           0           0
           0
MM charges                                 R   N=          13
  0.00000000E+00  0.00000000E+00  0.00000000E+00  0.00000000E+00  0.00000000E+00
  0.00000000E+00  0.00000000E+00  0.00000000E+00  0.00000000E+00  0.00000000E+00
  0.00000000E+00  0.00000000E+00  0.00000000E+00
Integer atomic weights                     I   N=          13
          12          12           1           1           1          12
          16          12           1           1          19          19
          19
Real atomic weights                        R   N=          13
  1.20000000E+01  1.20000000E+01  1.00782504E+00  1.00782504E+00  1.00782504E+00
  1.20000000E+01  1.59949146E+01  1.20000000E+01  1.00782504E+00  1.00782504E+00
  1.89984032E+01  1.89984032E+01  1.89984032E+01
Atom fragment info                         I   N=          13
           0           0           0           0           0           0
           0           0           0           0           0           0
           0
Atom residue num                           I   N=          13
           0           0           0           0           0           0
           0           0           0           0           0           0
           0
Nuclear spins                              I   N=          13
           0           0           1           1           1           0
           0           0           1           1           1           1
           1
Nuclear ZEff                               R   N=          13
 -3.60000000E+00 -3.60000000E+00 -1.00000000E+00 -1.00000000E+00 -1.00000000E+00
 -3.60000000E+00 -5.60000000E+00 -3.60000000E+00 -1.00000000E+00 -1.00000000E+00
 -6.75000000E+00 -6.75000000E+00 -6.75000000E+00
Nuclear ZNuc                               R   N=          13
  6.00000000E+00  6.00000000E+00  1.00000000E+00  1.00000000E+00  1.00000000E+00
  6.00000000E+00  8.00000000E+00  6.00000000E+00  1.00000000E+00  1.00000000E+00
  9.00000000E+00  9.00000000E+00  9.00000000E+00
Nuclear QMom                               R   N=          13
  0.00000000E+00  0.00000000E+00  0.00000000E+00  0.00000000E+00  0.00000000E+00
  0.00000000E+00  0.00000000E+00  0.00000000E+00  0.00000000E+00  0.00000000E+00
  0.00000000E+00  0.00000000E+00  0.00000000E+00
Nuclear GFac                               R   N=          13
  0.00000000E+00  0.00000000E+00  2.79284600E+00  2.79284600E+00  2.79284600E+00
  0.00000000E+00  0.00000000E+00  0.00000000E+00  2.79284600E+00  2.79284600E+00
  2.62886700E+00  2.62886700E+00  2.62886700E+00
MicOpt                                     I   N=          13
          -1          -1          -1          -1          -1          -1
          -1          -1          -1          -1          -1          -1
          -1
Number of contracted shells                I               42
Number of primitive shells                 I              108
Pure/Cartesian d shells                    I                1
Pure/Cartesian f shells                    I                0
Highest angular momentum                   I                1
Largest degree of contraction              I                6
Shell types                                I   N=          42
           0          -1          -1          -1           0          -1
          -1          -1           0           0           0           0
           0           0           0          -1          -1          -1
           0          -1          -1          -1           0          -1
          -1          -1           0           0           0           0
           0          -1          -1          -1           0          -1
          -1          -1           0          -1          -1          -1
Number of primitives per shell             I   N=          42
           6           3           1           1           6           3
           1           1           3           1           3           1
           3           1           6           3           1           1
           6           3           1           1           6           3
           1           1           3           1           3           1
           6           3           1           1           6           3
           1           1           6           3           1           1
Shell to atom map                          I   N=          42
           1           1           1           1           2           2
           2           2           3           3           4           4
           5           5           6           6           6           6
           7           7           7           7           8           8
           8           8           9           9          10          10
          11          11          11          11          12          12
          12          12          13          13          13          13
Primitive exponents                        R   N=         108
  3.04752488E+03  4.57369518E+02  1.03948685E+02  2.92101553E+01  9.28666296E+00
  3.16392696E+00  7.86827235E+00  1.88128854E+00  5.44249258E-01  1.68714478E-01
  4.38000000E-02  3.04752488E+03  4.57369518E+02  1.03948685E+02  2.92101553E+01
  9.28666296E+00  3.16392696E+00  7.86827235E+00  1.88128854E+00  5.44249258E-01
  1.68714478E-01  4.38000000E-02  1.87311370E+01  2.82539436E+00  6.40121692E-01
  1.61277759E-01  1.87311370E+01  2.82539436E+00  6.40121692E-01  1.61277759E-01
  1.87311370E+01  2.82539436E+00  6.40121692E-01  1.61277759E-01  3.04752488E+03
  4.57369518E+02  1.03948685E+02  2.92101553E+01  9.28666296E+00  3.16392696E+00
  7.86827235E+00  1.88128854E+00  5.44249258E-01  1.68714478E-01  4.38000000E-02
  5.48467166E+03  8.25234946E+02  1.88046958E+02  5.29645000E+01  1.68975704E+01
  5.79963534E+00  1.55396162E+01  3.59993359E+00  1.01376175E+00  2.70005823E-01
  8.45000000E-02  3.04752488E+03  4.57369518E+02  1.03948685E+02  2.92101553E+01
  9.28666296E+00  3.16392696E+00  7.86827235E+00  1.88128854E+00  5.44249258E-01
  1.68714478E-01  4.38000000E-02  1.87311370E+01  2.82539436E+00  6.40121692E-01
  1.61277759E-01  1.87311370E+01  2.82539436E+00  6.40121692E-01  1.61277759E-01
  7.00171309E+03  1.05136609E+03  2.39285690E+02  6.73974453E+01  2.15199573E+01
  7.40310130E+00  2.08479528E+01  4.80830834E+00  1.34406986E+00  3.58151393E-01
  1.07600000E-01  7.00171309E+03  1.05136609E+03  2.39285690E+02  6.73974453E+01
  2.15199573E+01  7.40310130E+00  2.08479528E+01  4.80830834E+00  1.34406986E+00
  3.58151393E-01  1.07600000E-01  7.00171309E+03  1.05136609E+03  2.39285690E+02
  6.73974453E+01  2.15199573E+01  7.40310130E+00  2.08479528E+01  4.80830834E+00
  1.34406986E+00  3.58151393E-01  1.07600000E-01
Contraction coefficients                   R   N=         108
  1.83473713E-03  1.40373228E-02  6.88426223E-02  2.32184443E-01  4.67941348E-01
  3.62311985E-01 -1.19332420E-01 -1.60854152E-01  1.14345644E+00  1.00000000E+00
  1.00000000E+00  1.83473713E-03  1.40373228E-02  6.88426223E-02  2.32184443E-01
  4.67941348E-01  3.62311985E-01 -1.19332420E-01 -1.60854152E-01  1.14345644E+00
  1.00000000E+00  1.00000000E+00  3.34946043E-02  2.34726953E-01  8.13757326E-01
  1.00000000E+00  3.34946043E-02  2.34726953E-01  8.13757326E-01  1.00000000E+00
  3.34946043E-02  2.34726953E-01  8.13757326E-01  1.00000000E+00  1.83473713E-03
  1.40373228E-02  6.88426223E-02  2.32184443E-01  4.67941348E-01  3.62311985E-01
 -1.19332420E-01 -1.60854152E-01  1.14345644E+00  1.00000000E+00  1.00000000E+00
  1.83107443E-03  1.39501722E-02  6.84450781E-02  2.32714336E-01  4.70192898E-01
  3.58520853E-01 -1.10777550E-01 -1.48026263E-01  1.13076702E+00  1.00000000E+00
  1.00000000E+00  1.83473713E-03  1.40373228E-02  6.88426223E-02  2.32184443E-01
  4.67941348E-01  3.62311985E-01 -1.19332420E-01 -1.60854152E-01  1.14345644E+00
  1.00000000E+00  1.00000000E+00  3.34946043E-02  2.34726953E-01  8.13757326E-01
  1.00000000E+00  3.34946043E-02  2.34726953E-01  8.13757326E-01  1.00000000E+00
  1.81961690E-03  1.39160796E-02  6.84053245E-02  2.33185760E-01  4.71267439E-01
  3.56618546E-01 -1.08506975E-01 -1.46451658E-01  1.12868858E+00  1.00000000E+00
  1.00000000E+00  1.81961690E-03  1.39160796E-02  6.84053245E-02  2.33185760E-01
  4.71267439E-01  3.56618546E-01 -1.08506975E-01 -1.46451658E-01  1.12868858E+00
  1.00000000E+00  1.00000000E+00  1.81961690E-03  1.39160796E-02  6.84053245E-02
  2.33185760E-01  4.71267439E-01  3.56618546E-01 -1.08506975E-01 -1.46451658E-01
  1.12868858E+00  1.00000000E+00  1.00000000E+00
P(S=P) Contraction coefficients            R   N=         108
  0.00000000E+00  0.00000000E+00  0.00000000E+00  0.00000000E+00  0.00000000E+00
  0.00000000E+00  6.89990666E-02  3.16423961E-01  7.44308291E-01  1.00000000E+00
  1.00000000E+00  0.00000000E+00  0.00000000E+00  0.00000000E+00  0.00000000E+00
  0.00000000E+00  0.00000000E+00  6.89990666E-02  3.16423961E-01  7.44308291E-01
  1.00000000E+00  1.00000000E+00  0.00000000E+00  0.00000000E+00  0.00000000E+00
  0.00000000E+00  0.00000000E+00  0.00000000E+00  0.00000000E+00  0.00000000E+00
  0.00000000E+00  0.00000000E+00  0.00000000E+00  0.00000000E+00  0.00000000E+00
  0.00000000E+00  0.00000000E+00  0.00000000E+00  0.00000000E+00  0.00000000E+00
  6.89990666E-02  3.16423961E-01  7.44308291E-01  1.00000000E+00  1.00000000E+00
  0.00000000E+00  0.00000000E+00  0.00000000E+00  0.00000000E+00  0.00000000E+00
  0.00000000E+00  7.08742682E-02  3.39752839E-01  7.27158577E-01  1.00000000E+00
  1.00000000E+00  0.00000000E+00  0.00000000E+00  0.00000000E+00  0.00000000E+00
  0.00000000E+00  0.00000000E+00  6.89990666E-02  3.16423961E-01  7.44308291E-01
  1.00000000E+00  1.00000000E+00  0.00000000E+00  0.00000000E+00  0.00000000E+00
  0.00000000E+00  0.00000000E+00  0.00000000E+00  0.00000000E+00  0.00000000E+00
  0.00000000E+00  0.00000000E+00  0.00000000E+00  0.00000000E+00  0.00000000E+00
  0.00000000E+00  7.16287242E-02  3.45912103E-01  7.22469956E-01  1.00000000E+00
  1.00000000E+00  0.00000000E+00  0.00000000E+00  0.00000000E+00  0.00000000E+00
  0.00000000E+00  0.00000000E+00  7.16287242E-02  3.45912103E-01  7.22469956E-01
  1.00000000E+00  1.00000000E+00  0.00000000E+00  0.00000000E+00  0.00000000E+00
  0.00000000E+00  0.00000000E+00  0.00000000E+00  7.16287242E-02  3.45912103E-01
  7.22469956E-01  1.00000000E+00  1.00000000E+00
Coordinates of each shell                  R   N=         126
 -5.28585516E+00  1.20792563E+00 -6.25440296E-04 -5.28585516E+00  1.20792563E+00
 -6.25440296E-04 -5.28585516E+00  1.20792563E+00 -6.25440296E-04 -5.28585516E+00
  1.20792563E+00 -6.25440296E-04 -2.79869953E+00 -1.76215358E-01 -4.71102820E-03
 -2.79869953E+00 -1.76215358E-01 -4.71102820E-03 -2.79869953E+00 -1.76215358E-01
 -4.71102820E-03 -2.79869953E+00 -1.76215358E-01 -4.71102820E-03 -5.50858029E+00
  2.27631818E+00  1.76106041E+00 -5.50858029E+00  2.27631818E+00  1.76106041E+00
 -6.82776573E+00 -1.49438351E-01 -1.63623768E-01 -6.82776573E+00 -1.49438351E-01
 -1.63623768E-01 -5.38413429E+00  2.56009081E+00 -1.56530734E+00 -5.38413429E+00
  2.56009081E+00 -1.56530734E+00 -4.66017987E-01  1.51195282E+00 -5.39321933E-03
 -4.66017987E-01  1.51195282E+00 -5.39321933E-03 -4.66017987E-01  1.51195282E+00
 -5.39321933E-03 -4.66017987E-01  1.51195282E+00 -5.39321933E-03 -2.65925640E+00
 -2.49817098E+00 -2.60723152E-04 -2.65925640E+00 -2.49817098E+00 -2.60723152E-04
 -2.65925640E+00 -2.49817098E+00 -2.60723152E-04 -2.65925640E+00 -2.49817098E+00
 -2.60723152E-04  2.03578680E+00  1.66350910E-01  2.15487833E-04  2.03578680E+00
  1.66350910E-01  2.15487833E-04  2.03578680E+00  1.66350910E-01  2.15487833E-04
  2.03578680E+00  1.66350910E-01  2.15487833E-04 -5.22418880E-01  2.75207236E+00
  1.65179266E+00 -5.22418880E-01  2.75207236E+00  1.65179266E+00 -5.17129535E-01
  2.73816020E+00 -1.67297260E+00 -5.17129535E-01  2.73816020E+00 -1.67297260E+00
  2.39653567E+00 -1.31953315E+00  2.12356468E+00  2.39653567E+00 -1.31953315E+00
  2.12356468E+00  2.39653567E+00 -1.31953315E+00  2.12356468E+00  2.39653567E+00
 -1.31953315E+00  2.12356468E+00  3.99940104E+00  1.94138787E+00 -8.20324209E-03
  3.99940104E+00  1.94138787E+00 -8.20324209E-03  3.99940104E+00  1.94138787E+00
 -8.20324209E-03  3.99940104E+00  1.94138787E+00 -8.20324209E-03  2.39548498E+00
 -1.33873466E+00 -2.10933682E+00  2.39548498E+00 -1.33873466E+00 -2.10933682E+00
  2.39548498E+00 -1.33873466E+00 -2.10933682E+00  2.39548498E+00 -1.33873466E+00
 -2.10933682E+00
Constraint Structure                       R   N=          39
 -5.28585516E+00  1.20792563E+00 -6.25440296E-04 -2.79869953E+00 -1.76215358E-01
 -4.71102820E-03 -5.50858029E+00  2.27631818E+00  1.76106041E+00 -6.82776573E+00
 -1.49438351E-01 -1.63623768E-01 -5.38413429E+00  2.56009081E+00 -1.56530734E+00
 -4.66017987E-01  1.51195282E+00 -5.39321933E-03 -2.65925640E+00 -2.49817098E+00
 -2.60723152E-04  2.03578680E+00  1.66350910E-01  2.15487833E-04 -5.22418880E-01
  2.75207236E+00  1.65179266E+00 -5.17129535E-01  2.73816020E+00 -1.67297260E+00
  2.39653567E+00 -1.31953315E+00  2.12356468E+00  3.99940104E+00  1.94138787E+00
 -8.20324209E-03  2.39548498E+00 -1.33873466E+00 -2.10933682E+00
Num ILSW                                   I              100
ILSW                                       I   N=         100
           0           1           0           0           2           0
           0           0           0           0        4639          -1
           0           0           0           0           2           0
           0           0           0           0           1           0
           1           0           0           0           0           0
           0           0      100000           0          -1           0
           0           0           0           0           0           0
           0           0           0           1           0           0
           0           0           1           0           0           0
           0           0         121          41           0           0
           0           0          58           0           0           0
           0           0           0          13           0           0
           0           0           0           0           0           0
           0           0           0           0           0           0
           0           0           0           0           0           0
           0           0           0           0           0           0
           0           0           0           0
Num RLSW                                   I               41
RLSW                                       R   N=          41
  1.00000000E+00  1.00000000E+00  1.00000000E+00  1.00000000E+00  1.00000000E+00
  0.00000000E+00  2.00000000E-01  2.22036000E-01  0.00000000E+00  7.77964000E-01
  0.00000000E+00  2.00000000E-01  0.00000000E+00  0.00000000E+00  1.00000000E+00
  0.00000000E+00  0.00000000E+00  1.00000000E+00  0.00000000E+00  0.00000000E+00
  0.00000000E+00  0.00000000E+00  1.00000000E+00  0.00000000E+00  0.00000000E+00
  0.00000000E+00  0.00000000E+00  1.00000000E+00  0.00000000E+00  0.00000000E+00
  0.00000000E+00  0.00000000E+00  1.00000000E+00  0.00000000E+00  0.00000000E+00
  0.00000000E+00  0.00000000E+00  0.00000000E+00  1.00000000E+00  1.00000000E+00
  0.00000000E+00
MxBond                                     I                4
NBond                                      I   N=          13
           4           3           1           1           1           4
           1           4           1           1           1           1
           1
IBond                                      I   N=          52
           2           3           4           5           1           6
           7           0           1           0           0           0
           1           0           0           0           1           0
           0           0           2           8           9          10
           2           0           0           0           6          11
          12          13           6           0           0           0
           6           0           0           0           8           0
           0           0           8           0           0           0
           8           0           0           0
RBond                                      R   N=          52
  1.00000000E+00  1.00000000E+00  1.00000000E+00  1.00000000E+00  1.00000000E+00
  1.00000000E+00  2.00000000E+00  0.00000000E+00  1.00000000E+00  0.00000000E+00
  0.00000000E+00  0.00000000E+00  1.00000000E+00  0.00000000E+00  0.00000000E+00
  0.00000000E+00  1.00000000E+00  0.00000000E+00  0.00000000E+00  0.00000000E+00
  1.00000000E+00  1.00000000E+00  1.00000000E+00  1.00000000E+00  2.00000000E+00
  0.00000000E+00  0.00000000E+00  0.00000000E+00  1.00000000E+00  1.00000000E+00
  1.00000000E+00  1.00000000E+00  1.00000000E+00  0.00000000E+00  0.00000000E+00
  0.00000000E+00  1.00000000E+00  0.00000000E+00  0.00000000E+00  0.00000000E+00
  1.00000000E+00  0.00000000E+00  0.00000000E+00  0.00000000E+00  1.00000000E+00
  0.00000000E+00  0.00000000E+00  0.00000000E+00  1.00000000E+00  0.00000000E+00
  0.00000000E+00  0.00000000E+00
Virial Ratio                               R      2.005195559865340E+00
SCF Energy                                 R     -5.299247576742978E+02
Total Energy                               R     -5.299247576742978E+02
RMS Force                                  R      6.768587260752488E-05
RMS Density                                R      5.499532736808087E-09
External E-field                           R   N=          35
  0.00000000E+00  0.00000000E+00  0.00000000E+00  0.00000000E+00  0.00000000E+00
  0.00000000E+00  0.00000000E+00  0.00000000E+00  0.00000000E+00  0.00000000E+00
  0.00000000E+00  0.00000000E+00  0.00000000E+00  0.00000000E+00  0.00000000E+00
  0.00000000E+00  0.00000000E+00  0.00000000E+00  0.00000000E+00  0.00000000E+00
  0.00000000E+00  0.00000000E+00  0.00000000E+00  0.00000000E+00  0.00000000E+00
  0.00000000E+00  0.00000000E+00  0.00000000E+00  0.00000000E+00  0.00000000E+00
  0.00000000E+00  0.00000000E+00  0.00000000E+00  0.00000000E+00  0.00000000E+00
IOpCl                                      I                0
IROHF                                      I                0
Alpha Orbital Energies                     R   N=         114
 -2.48780019E+01 -2.48779587E+01 -2.48776309E+01 -1.93031291E+01 -1.05842842E+01
 -1.04390339E+01 -1.03653392E+01 -1.03276145E+01 -1.42709810E+00 -1.34342347E+00
 -1.33981899E+00 -1.19588463E+00 -9.49519074E-01 -8.79492201E-01 -7.91065947E-01
 -7.04157125E-01 -6.91924322E-01 -6.84191733E-01 -6.31976493E-01 -5.96828821E-01
 -5.90939699E-01 -5.60838897E-01 -5.59444983E-01 -5.49689702E-01 -5.39130562E-01
 -5.28093307E-01 -5.17328090E-01 -5.12216159E-01 -5.05356047E-01 -4.90445784E-01
 -4.65890751E-01 -3.68791049E-01  1.61759314E-02  5.21101754E-02  7.86367274E-02
  9.18800509E-02  9.61789241E-02  1.02603848E-01  1.19601914E-01  1.20160713E-01
  1.29018297E-01  1.30547883E-01  1.42345130E-01  1.48261812E-01  1.61228165E-01
  1.72095219E-01  1.79869171E-01  1.88364126E-01  1.95556292E-01  2.18932964E-01
  2.28688498E-01  2.43507852E-01  2.46555172E-01  2.70189213E-01  2.94209201E-01
  3.01374874E-01  3.07048051E-01  3.28445869E-01  3.46152886E-01  3.55036998E-01
  3.55312030E-01  3.68295887E-01  3.77347261E-01  3.91128898E-01  4.05421602E-01
  4.08026114E-01  4.14676559E-01  4.40966339E-01  4.44443546E-01  4.50276286E-01
  4.51736348E-01  4.74572734E-01  4.86814888E-01  5.21139602E-01  5.22302174E-01
  5.35121442E-01  5.73997763E-01  6.81296398E-01  7.13979343E-01  7.39170722E-01
  7.58823920E-01  7.73502364E-01  8.33958985E-01  8.45545334E-01  8.78899687E-01
  8.83073587E-01  9.15830538E-01  9.51836871E-01  1.08045666E+00  1.10100204E+00
  1.13561873E+00  1.15879279E+00  1.17823655E+00  1.21644909E+00  1.22765260E+00
  1.35717772E+00  1.38246839E+00  1.44913035E+00  1.47439259E+00  1.54917110E+00
  1.55100949E+00  1.59607790E+00  1.67170189E+00  1.67194950E+00  1.69148742E+00
  1.74406646E+00  1.80491501E+00  1.82421472E+00  1.83893186E+00  1.85981569E+00
  1.98282397E+00  2.29374067E+00  2.33704082E+00  2.72096858E+00
Alpha MO coefficients                      R   N=       12996
  2.71828124E-05  2.26587322E-04 -3.95792682E-05  2.80096101E-05  9.88020375E-06
 -1.34531200E-03 -4.57842644E-04  1.10282617E-04  3.47390557E-05  9.19366792E-03
  1.85497564E-03 -9.36859135E-04  4.34977200E-07 -2.33450036E-05 -8.28883976E-05
  2.31146776E-04 -9.71765107E-05  5.48660158E-06  2.96343974E-03 -1.11674171E-04
  4.24311050E-04 -2.42051515E-04  2.93884739E-03  6.74476691E-03 -1.29816642E-03
 -8.70612464E-05  7.36232393E-05  4.65169353E-05  3.62554785E-05  1.02371193E-04
  7.12374561E-05  8.74656308E-05  1.14033214E-04  6.03643141E-04 -2.52770738E-04
  1.36103700E-04 -4.95320079E-05 -4.20009764E-03 -7.19409829E-04  1.53025857E-03
  9.62826870E-04  8.10747924E-03  6.00489970E-03 -2.30683645E-04 -9.57133087E-05
  5.67703395E-06  1.40723119E-04  1.21250044E-04  5.58516574E-05 -2.66838894E-05
 -1.07011645E-04 -2.85404008E-04 -4.80427116E-04  1.17810916E-04 -2.22403429E-03
 -4.72181726E-04 -4.48884429E-04  1.78531294E-04 -2.36304390E-04 -1.11996395E-03
  3.16657575E-04 -5.72964466E-04 -3.64060763E-04  9.30783827E-03  3.07253673E-04
 -1.23136680E-03 -7.45356805E-04 -2.39011201E-02  6.33526952E-03 -1.43694716E-03
  5.87037954E-04  2.79649471E-05  1.53703171E-04  2.49020323E-04  6.27386181E-04
  3.31363692E-01  9.69639952E-03 -9.01697601E-05  2.84998614E-04 -4.34757718E-04
 -7.08839246E-03  2.72452795E-04 -7.41480495E-04  1.71814977E-03  2.97499476E-03
 -5.56907442E-04  6.41741464E-04  3.44050144E-04  2.56514132E-02  1.10092487E-03
 -5.55630877E-05 -5.85572580E-05 -1.23383920E-05 -2.03631268E-03  7.36709333E-04
  1.00668594E-03  2.01605663E-04 -9.89110850E-04  1.26805484E-04  9.61569027E-04
  3.06585006E-04  9.37913899E-01  2.64934072E-02 -2.08977780E-04  8.15390167E-04
  1.12896217E-03 -1.62248061E-02  4.68383337E-04 -1.64109572E-03 -2.58242897E-03
  9.35123021E-03 -7.87748992E-04  1.44753363E-03  1.58771983E-03  1.11519381E-05
  8.75616555E-05 -2.08601429E-05  8.80476960E-06 -2.58105372E-05 -5.47411409E-04
 -2.03100358E-04  8.68288790E-05 -3.09407782E-05  4.93373122E-03  1.02642298E-03
 -5.04956734E-04 -4.38215442E-06 -1.10018152E-05 -3.91809293E-05  1.11109124E-04
 -4.56751634E-05 -8.04413119E-06  1.39663677E-03 -5.06222669E-05  1.75780028E-04
  4.90932736E-04  1.23850881E-03  3.42728380E-03 -6.12252724E-04  1.64856040E-04
  2.82823864E-05 -2.60990277E-05  1.69281614E-05  3.92579480E-05  4.48953534E-05
 -4.90360223E-05  5.44276787E-05  2.89288490E-04 -1.22562292E-04  6.66372454E-05
  9.97219883E-05 -1.99209919E-03 -3.41071609E-04  7.01795140E-04 -2.00582370E-03
  3.79936606E-03  3.04326703E-03 -1.15807618E-04  2.40569615E-04  2.67191642E-06
  6.66715793E-05  5.68802530E-05  2.67332017E-05  5.62687709E-05 -5.52579082E-05
 -1.30187983E-04 -2.30715870E-04 -2.43427192E-04 -1.07168663E-03 -2.34463575E-04
 -2.34945450E-04 -3.60668027E-04 -1.12734511E-04 -5.32484267E-04  1.51953799E-04
 -2.68328463E-04  7.68239142E-04  4.43026858E-03  1.56629138E-04 -5.77553654E-04
  1.56232188E-03 -1.17141148E-02  3.08843446E-03 -7.20132845E-04 -1.22499047E-03
  2.94208275E-04  6.86388331E-04 -1.62258329E-04 -2.88725818E-04  9.37997860E-01
  2.62226136E-02 -1.96710689E-04  8.03640816E-04 -1.10808252E-03 -1.51229330E-02
  3.82145701E-04 -1.47712991E-03  1.94520474E-03  9.62486581E-03 -5.63086426E-04
  1.31924960E-03 -2.32135939E-03  1.38072568E-02  5.69074231E-04 -2.81220303E-05
 -2.94568570E-05  2.58538447E-05 -9.97123647E-04  3.54003092E-04  4.81700127E-04
 -4.30558324E-04 -4.50457007E-04  5.39198956E-05  4.49167471E-04 -6.52973322E-04
 -3.31724294E-01 -8.93665502E-03  5.39758480E-05 -2.86562151E-04 -3.56366870E-04
  3.98751205E-03 -3.23324457E-05  3.49158537E-04 -1.14227308E-04 -3.71102542E-03
 -8.41691364E-05 -3.46264759E-04 -1.72199602E-03 -3.80190608E-06  1.40461879E-05
  1.33370846E-04  3.07467064E-05  5.55893607E-06  1.13955754E-03  1.22454451E-04
 -4.66253450E-04 -4.64667705E-05 -7.25317229E-03 -1.55118387E-03  1.04627712E-03
 -1.35101540E-05  2.77859737E-06  9.88461648E-06 -1.65481803E-04  1.83379533E-05
 -7.19518401E-07 -5.31230047E-04  1.00705365E-03 -1.83045292E-03  1.34239626E-05
 -3.17687983E-03 -5.51189107E-03  1.16003499E-04  5.13794586E-06 -3.10839699E-06
  1.21780097E-04 -6.69031644E-05 -1.93081849E-04  3.68612358E-06  5.95839497E-05
  6.98899953E-05  2.65126148E-04 -7.48490693E-05  8.16977162E-05  1.10521139E-07
 -2.50421533E-03 -3.04823448E-03  1.12323109E-04 -3.55420839E-06  1.99820472E-02
  4.39448557E-04 -3.36395122E-03  1.30953902E-05  1.27828204E-05  1.71532786E-04
  1.66562414E-06  2.63599088E-05  2.11105251E-07 -1.19116330E-03 -1.47935707E-04
 -4.47450515E-04 -1.80831410E-06  6.96993431E-05  4.57896285E-04 -1.14744416E-04
  3.43911506E-06 -2.18325511E-04 -1.10213939E-03  5.30355346E-04  4.13807617E-04
 -3.62893587E-06  9.26390000E-03  1.51505082E-03  1.60208728E-03 -4.26237980E-06
 -1.13485410E-02  1.78281862E-03 -2.50633946E-03  6.99395708E-06  2.56457821E-04
 -5.42303460E-04  2.56623791E-04 -5.46197055E-04 -2.15203614E-02 -3.16210148E-04
  2.47255764E-05  2.09124839E-05  1.22778435E-05 -8.75417303E-04 -2.84543865E-04
 -7.63860343E-04  5.68735997E-04 -2.08445684E-03 -3.28967469E-04 -1.06337087E-03
  7.57306819E-04  9.94614906E-01  2.79162463E-02 -1.08438574E-03 -9.47879850E-04
  4.66321222E-06 -1.65816287E-02  2.25505534E-03  2.02602190E-03 -1.01375463E-05
  8.66873906E-03 -1.65402308E-03 -1.39699105E-03  8.58934595E-06 -1.95371352E-02
 -2.60943978E-04  2.37343167E-05  2.22840257E-05 -1.03422091E-05 -9.05505404E-04
 -2.81801736E-04 -7.70262841E-04 -5.63476367E-04 -2.05435513E-03 -3.36340427E-04
 -1.06669987E-03 -7.38950365E-04 -2.06007367E-06 -1.70167476E-04 -3.29124797E-05
  1.45242351E-04  4.04474554E-06  2.09771377E-03  1.67332528E-03  1.06536730E-03
 -5.78118225E-05  1.02033021E-02  2.38615058E-03 -1.34617891E-03 -4.71985094E-06
  2.48814983E-04  5.27288843E-04 -7.22667553E-05  1.11692194E-04 -1.93055984E-06
  6.05798340E-03  1.26927583E-03 -9.86211806E-03  4.21341506E-05 -2.63321913E-02
 -1.44049969E-03 -9.78011880E-04  5.27081125E-06 -4.73008360E-05 -1.91116194E-04
  1.30705932E-04  1.44625102E-04 -9.17146835E-05 -3.01168589E-04  5.89393992E-05
  2.63461604E-04  1.53274759E-04  1.92165759E-04  3.06072013E-06 -1.62299458E-03
 -3.68988013E-03  1.72056885E-03 -3.62892682E-05  1.87444587E-02  7.44930208E-04
 -4.59752919E-03 -4.79108310E-05  9.95242688E-01  2.98472090E-02 -6.77841096E-05
  2.28376452E-03 -1.26705360E-06 -2.36562122E-02 -2.26970854E-05 -5.84070233E-03
 -1.91936793E-07  7.88943577E-03  5.05350541E-04  8.05990059E-04  7.64819771E-06
 -7.95735919E-05 -5.76169875E-04  1.21895430E-05 -2.69385911E-05 -1.08430613E-06
  5.28478980E-03 -6.69811774E-04  1.62038698E-03  2.09797274E-05 -5.44701586E-03
  7.07858601E-04 -4.95168562E-04  4.73123077E-05  6.53078794E-05 -3.39565376E-04
  6.14824877E-05 -3.67742701E-04  3.29122730E-06  1.22056226E-04 -6.42847132E-05
  1.81257887E-05 -3.31974375E-05 -2.52154103E-04  2.32294687E-04 -2.02331792E-04
  2.37086943E-04 -1.06199464E-03  3.61840317E-04 -2.76347071E-04  6.53220546E-05
  9.72468927E-06  1.76945939E-04 -2.40465940E-05 -3.25278228E-05  7.35889695E-07
 -8.30459830E-04  4.00901558E-04  3.16461313E-04 -4.95579441E-06 -1.06635125E-03
  3.64578188E-04  1.06532704E-04 -5.88815156E-06  3.30931241E-06  1.23086211E-04
 -6.40610117E-05  1.64757827E-05  3.17603402E-05 -2.51103316E-04  2.32068626E-04
 -1.91689982E-04 -2.28358799E-04 -1.01387426E-03  3.67940705E-04 -2.86832305E-04