B.pdb                                                                   
FOpt      RwB97XD                                                     6-31+G              
Number of atoms                            I               10
Info1-9                                    I   N=           9
          21          21           0           0           0         110
           2          18        -802
Charge                                     I                0
Multiplicity                               I                1
Number of electrons                        I               38
Number of alpha electrons                  I               19
Number of beta electrons                   I               19
Number of basis functions                  I               75
Number of independent functions            I               75
Number of point charges in /Mol/           I                0
Number of translation vectors              I                0
Atomic numbers                             I   N=          10
           6           6           6           6           1           1
           9           1           1           1
Nuclear charges                            R   N=          10
  6.00000000E+00  6.00000000E+00  6.00000000E+00  6.00000000E+00  1.00000000E+00
  1.00000000E+00  9.00000000E+00  1.00000000E+00  1.00000000E+00  1.00000000E+00
Current cartesian coordinates              R   N=          30
 -3.10796864E+00 -1.40001355E+00  3.47374983E-01 -9.83356923E-01 -1.60754861E-01
 -1.74584404E-01  1.57939381E+00 -1.16924000E+00 -4.73183769E-01  3.66124891E+00
 -3.13106570E-02  4.02739113E-01 -4.87081957E+00 -4.08809885E-01  6.50258253E-01
 -3.10445560E+00 -3.44391650E+00  4.52283547E-01 -1.07810935E+00  2.50662803E+00
 -2.12079361E-01  1.69097606E+00 -3.04269967E+00 -1.30927026E+00  3.59125773E+00
  1.81988941E+00  1.28116656E+00  5.50012264E+00 -9.16201201E-01  2.20200613E-01
Force Field                                I                0
Int Atom Types                             I   N=          10
           0           0           0           0           0           0
           0           0           0           0
MM charges                                 R   N=          10
  0.00000000E+00  0.00000000E+00  0.00000000E+00  0.00000000E+00  0.00000000E+00
  0.00000000E+00  0.00000000E+00  0.00000000E+00  0.00000000E+00  0.00000000E+00
Integer atomic weights                     I   N=          10
          12          12          12          12           1           1
          19           1           1           1
Real atomic weights                        R   N=          10
  1.20000000E+01  1.20000000E+01  1.20000000E+01  1.20000000E+01  1.00782504E+00
  1.00782504E+00  1.89984032E+01  1.00782504E+00  1.00782504E+00  1.00782504E+00
Atom fragment info                         I   N=          10
           0           0           0           0           0           0
           0           0           0           0
Atom residue num                           I   N=          10
           0           0           0           0           0           0
           0           0           0           0
Nuclear spins                              I   N=          10
           0           0           0           0           1           1
           1           1           1           1
Nuclear ZEff                               R   N=          10
 -3.60000000E+00 -3.60000000E+00 -3.60000000E+00 -3.60000000E+00 -1.00000000E+00
 -1.00000000E+00 -6.75000000E+00 -1.00000000E+00 -1.00000000E+00 -1.00000000E+00
Nuclear ZNuc                               R   N=          10
  6.00000000E+00  6.00000000E+00  6.00000000E+00  6.00000000E+00  1.00000000E+00
  1.00000000E+00  9.00000000E+00  1.00000000E+00  1.00000000E+00  1.00000000E+00
Nuclear QMom                               R   N=          10
  0.00000000E+00  0.00000000E+00  0.00000000E+00  0.00000000E+00  0.00000000E+00
  0.00000000E+00  0.00000000E+00  0.00000000E+00  0.00000000E+00  0.00000000E+00
Nuclear GFac                               R   N=          10
  0.00000000E+00  0.00000000E+00  0.00000000E+00  0.00000000E+00  2.79284600E+00
  2.79284600E+00  2.62886700E+00  2.79284600E+00  2.79284600E+00  2.79284600E+00
MicOpt                                     I   N=          10
          -1          -1          -1          -1          -1          -1
          -1          -1          -1          -1
Number of contracted shells                I               30
Number of primitive shells                 I               75
Pure/Cartesian d shells                    I                1
Pure/Cartesian f shells                    I                0
Highest angular momentum                   I                1
Largest degree of contraction              I                6
Shell types                                I   N=          30
           0          -1          -1          -1           0          -1
          -1          -1           0          -1          -1          -1
           0          -1          -1          -1           0           0
           0           0           0          -1          -1          -1
           0           0           0           0           0           0
Number of primitives per shell             I   N=          30
           6           3           1           1           6           3
           1           1           6           3           1           1
           6           3           1           1           3           1
           3           1           6           3           1           1
           3           1           3           1           3           1
Shell to atom map                          I   N=          30
           1           1           1           1           2           2
           2           2           3           3           3           3
           4           4           4           4           5           5
           6           6           7           7           7           7
           8           8           9           9          10          10
Primitive exponents                        R   N=          75
  3.04752488E+03  4.57369518E+02  1.03948685E+02  2.92101553E+01  9.28666296E+00
  3.16392696E+00  7.86827235E+00  1.88128854E+00  5.44249258E-01  1.68714478E-01
  4.38000000E-02  3.04752488E+03  4.57369518E+02  1.03948685E+02  2.92101553E+01
  9.28666296E+00  3.16392696E+00  7.86827235E+00  1.88128854E+00  5.44249258E-01
  1.68714478E-01  4.38000000E-02  3.04752488E+03  4.57369518E+02  1.03948685E+02
  2.92101553E+01  9.28666296E+00  3.16392696E+00  7.86827235E+00  1.88128854E+00
  5.44249258E-01  1.68714478E-01  4.38000000E-02  3.04752488E+03  4.57369518E+02
  1.03948685E+02  2.92101553E+01  9.28666296E+00  3.16392696E+00  7.86827235E+00
  1.88128854E+00  5.44249258E-01  1.68714478E-01  4.38000000E-02  1.87311370E+01
  2.82539436E+00  6.40121692E-01  1.61277759E-01  1.87311370E+01  2.82539436E+00
  6.40121692E-01  1.61277759E-01  7.00171309E+03  1.05136609E+03  2.39285690E+02
  6.73974453E+01  2.15199573E+01  7.40310130E+00  2.08479528E+01  4.80830834E+00
  1.34406986E+00  3.58151393E-01  1.07600000E-01  1.87311370E+01  2.82539436E+00
  6.40121692E-01  1.61277759E-01  1.87311370E+01  2.82539436E+00  6.40121692E-01
  1.61277759E-01  1.87311370E+01  2.82539436E+00  6.40121692E-01  1.61277759E-01
Contraction coefficients                   R   N=          75
  1.83473713E-03  1.40373228E-02  6.88426223E-02  2.32184443E-01  4.67941348E-01
  3.62311985E-01 -1.19332420E-01 -1.60854152E-01  1.14345644E+00  1.00000000E+00
  1.00000000E+00  1.83473713E-03  1.40373228E-02  6.88426223E-02  2.32184443E-01
  4.67941348E-01  3.62311985E-01 -1.19332420E-01 -1.60854152E-01  1.14345644E+00
  1.00000000E+00  1.00000000E+00  1.83473713E-03  1.40373228E-02  6.88426223E-02
  2.32184443E-01  4.67941348E-01  3.62311985E-01 -1.19332420E-01 -1.60854152E-01
  1.14345644E+00  1.00000000E+00  1.00000000E+00  1.83473713E-03  1.40373228E-02
  6.88426223E-02  2.32184443E-01  4.67941348E-01  3.62311985E-01 -1.19332420E-01
 -1.60854152E-01  1.14345644E+00  1.00000000E+00  1.00000000E+00  3.34946043E-02
  2.34726953E-01  8.13757326E-01  1.00000000E+00  3.34946043E-02  2.34726953E-01
  8.13757326E-01  1.00000000E+00  1.81961690E-03  1.39160796E-02  6.84053245E-02
  2.33185760E-01  4.71267439E-01  3.56618546E-01 -1.08506975E-01 -1.46451658E-01
  1.12868858E+00  1.00000000E+00  1.00000000E+00  3.34946043E-02  2.34726953E-01
  8.13757326E-01  1.00000000E+00  3.34946043E-02  2.34726953E-01  8.13757326E-01
  1.00000000E+00  3.34946043E-02  2.34726953E-01  8.13757326E-01  1.00000000E+00
P(S=P) Contraction coefficients            R   N=          75
  0.00000000E+00  0.00000000E+00  0.00000000E+00  0.00000000E+00  0.00000000E+00
  0.00000000E+00  6.89990666E-02  3.16423961E-01  7.44308291E-01  1.00000000E+00
  1.00000000E+00  0.00000000E+00  0.00000000E+00  0.00000000E+00  0.00000000E+00
  0.00000000E+00  0.00000000E+00  6.89990666E-02  3.16423961E-01  7.44308291E-01
  1.00000000E+00  1.00000000E+00  0.00000000E+00  0.00000000E+00  0.00000000E+00
  0.00000000E+00  0.00000000E+00  0.00000000E+00  6.89990666E-02  3.16423961E-01
  7.44308291E-01  1.00000000E+00  1.00000000E+00  0.00000000E+00  0.00000000E+00
  0.00000000E+00  0.00000000E+00  0.00000000E+00  0.00000000E+00  6.89990666E-02
  3.16423961E-01  7.44308291E-01  1.00000000E+00  1.00000000E+00  0.00000000E+00
  0.00000000E+00  0.00000000E+00  0.00000000E+00  0.00000000E+00  0.00000000E+00
  0.00000000E+00  0.00000000E+00  0.00000000E+00  0.00000000E+00  0.00000000E+00
  0.00000000E+00  0.00000000E+00  0.00000000E+00  7.16287242E-02  3.45912103E-01
  7.22469956E-01  1.00000000E+00  1.00000000E+00  0.00000000E+00  0.00000000E+00
  0.00000000E+00  0.00000000E+00  0.00000000E+00  0.00000000E+00  0.00000000E+00
  0.00000000E+00  0.00000000E+00  0.00000000E+00  0.00000000E+00  0.00000000E+00
Coordinates of each shell                  R   N=          90
 -3.10796864E+00 -1.40001355E+00  3.47374983E-01 -3.10796864E+00 -1.40001355E+00
  3.47374983E-01 -3.10796864E+00 -1.40001355E+00  3.47374983E-01 -3.10796864E+00
 -1.40001355E+00  3.47374983E-01 -9.83356923E-01 -1.60754861E-01 -1.74584404E-01
 -9.83356923E-01 -1.60754861E-01 -1.74584404E-01 -9.83356923E-01 -1.60754861E-01
 -1.74584404E-01 -9.83356923E-01 -1.60754861E-01 -1.74584404E-01  1.57939381E+00
 -1.16924000E+00 -4.73183769E-01  1.57939381E+00 -1.16924000E+00 -4.73183769E-01
  1.57939381E+00 -1.16924000E+00 -4.73183769E-01  1.57939381E+00 -1.16924000E+00
 -4.73183769E-01  3.66124891E+00 -3.13106570E-02  4.02739113E-01  3.66124891E+00
 -3.13106570E-02  4.02739113E-01  3.66124891E+00 -3.13106570E-02  4.02739113E-01
  3.66124891E+00 -3.13106570E-02  4.02739113E-01 -4.87081957E+00 -4.08809885E-01
  6.50258253E-01 -4.87081957E+00 -4.08809885E-01  6.50258253E-01 -3.10445560E+00
 -3.44391650E+00  4.52283547E-01 -3.10445560E+00 -3.44391650E+00  4.52283547E-01
 -1.07810935E+00  2.50662803E+00 -2.12079361E-01 -1.07810935E+00  2.50662803E+00
 -2.12079361E-01 -1.07810935E+00  2.50662803E+00 -2.12079361E-01 -1.07810935E+00
  2.50662803E+00 -2.12079361E-01  1.69097606E+00 -3.04269967E+00 -1.30927026E+00
  1.69097606E+00 -3.04269967E+00 -1.30927026E+00  3.59125773E+00  1.81988941E+00
  1.28116656E+00  3.59125773E+00  1.81988941E+00  1.28116656E+00  5.50012264E+00
 -9.16201201E-01  2.20200613E-01  5.50012264E+00 -9.16201201E-01  2.20200613E-01
Constraint Structure                       R   N=          30
 -3.12737185E+00 -1.39257735E+00  3.45160467E-01 -9.82825622E-01 -1.72050437E-01
 -1.88836454E-01  1.57606579E+00 -1.17858844E+00 -4.67361299E-01  3.67363342E+00
 -3.55346229E-02  3.96007328E-01 -4.87822203E+00 -3.80647947E-01  6.57055986E-01
 -3.15551927E+00 -3.43795834E+00  4.42666556E-01 -1.06808824E+00  2.51922571E+00
 -2.04044969E-01  1.68215695E+00 -3.07934679E+00 -1.24575272E+00  3.62028452E+00
  1.83785483E+00  1.22939167E+00  5.50708353E+00 -9.40428049E-01  2.43222971E-01
Num ILSW                                   I              100
ILSW                                       I   N=         100
           0           1           0           0           2           0
           0           0           0           0        4639          -1
           0           0           0           0           2           0
           0           0           0           0           1           0
           1           0           0           0           0           0
           0           0      100000           0          -1           0
           0           0           0           0           0           0
           0           0           0           1           0           0
           0           0           1           0           0           0
           0           0         121          41           0           0
           0           0          58           0           0           0
           0           0           0          10           0           0
           0           0           0           0           0           0
           0           0           0           0           0           0
           0           0           0           0           0           0
           0           0           0           0           0           0
           0           0           0           0
Num RLSW                                   I               41
RLSW                                       R   N=          41
  1.00000000E+00  1.00000000E+00  1.00000000E+00  1.00000000E+00  1.00000000E+00
  0.00000000E+00  2.00000000E-01  2.22036000E-01  0.00000000E+00  7.77964000E-01
  0.00000000E+00  2.00000000E-01  0.00000000E+00  0.00000000E+00  1.00000000E+00
  0.00000000E+00  0.00000000E+00  1.00000000E+00  0.00000000E+00  0.00000000E+00
  0.00000000E+00  0.00000000E+00  1.00000000E+00  0.00000000E+00  0.00000000E+00
  0.00000000E+00  0.00000000E+00  1.00000000E+00  0.00000000E+00  0.00000000E+00
  0.00000000E+00  0.00000000E+00  1.00000000E+00  0.00000000E+00  0.00000000E+00
  0.00000000E+00  0.00000000E+00  0.00000000E+00  1.00000000E+00  1.00000000E+00
  0.00000000E+00
MxBond                                     I                3
NBond                                      I   N=          10
           3           3           3           3           1           1
           1           1           1           1
IBond                                      I   N=          30
           2           5           6           1           3           7
           2           4           8           3           9          10
           1           0           0           1           0           0
           2           0           0           3           0           0
           4           0           0           4           0           0
RBond                                      R   N=          30
  2.00000000E+00  1.00000000E+00  1.00000000E+00  2.00000000E+00  1.00000000E+00
  1.00000000E+00  1.00000000E+00  2.00000000E+00  1.00000000E+00  2.00000000E+00
  1.00000000E+00  1.00000000E+00  1.00000000E+00  0.00000000E+00  0.00000000E+00
  1.00000000E+00  0.00000000E+00  0.00000000E+00  1.00000000E+00  0.00000000E+00
  0.00000000E+00  1.00000000E+00  0.00000000E+00  0.00000000E+00  1.00000000E+00
  0.00000000E+00  0.00000000E+00  1.00000000E+00  0.00000000E+00  0.00000000E+00
Virial Ratio                               R      2.005630740844482E+00
SCF Energy                                 R     -2.550976793628256E+02
Total Energy                               R     -2.550976793628256E+02
RMS Force                                  R      2.165235660340771E-03
RMS Density                                R      6.764862327095492E-09
External E-field                           R   N=          35
  0.00000000E+00  0.00000000E+00  0.00000000E+00  0.00000000E+00  0.00000000E+00
  0.00000000E+00  0.00000000E+00  0.00000000E+00  0.00000000E+00  0.00000000E+00
  0.00000000E+00  0.00000000E+00  0.00000000E+00  0.00000000E+00  0.00000000E+00
  0.00000000E+00  0.00000000E+00  0.00000000E+00  0.00000000E+00  0.00000000E+00
  0.00000000E+00  0.00000000E+00  0.00000000E+00  0.00000000E+00  0.00000000E+00
  0.00000000E+00  0.00000000E+00  0.00000000E+00  0.00000000E+00  0.00000000E+00
  0.00000000E+00  0.00000000E+00  0.00000000E+00  0.00000000E+00  0.00000000E+00
IOpCl                                      I                0
IROHF                                      I                0
Alpha Orbital Energies                     R   N=          75
 -2.48308671E+01 -1.04027988E+01 -1.03294347E+01 -1.03155736E+01 -1.03101558E+01
 -1.31075277E+00 -9.27712294E-01 -8.64297210E-01 -7.31779597E-01 -6.64100299E-01
 -6.02233383E-01 -5.85244614E-01 -5.50741831E-01 -5.27671032E-01 -5.05370040E-01
 -4.83417729E-01 -4.55343568E-01 -4.04423766E-01 -3.31097501E-01  2.07999782E-02
  6.79976770E-02  8.15204848E-02  9.54495374E-02  1.02465733E-01  1.15296985E-01
  1.20820078E-01  1.30246805E-01  1.39994259E-01  1.47598430E-01  1.59632034E-01
  1.67981122E-01  1.84101779E-01  1.94410247E-01  2.02060346E-01  2.13618410E-01
  2.32395439E-01  2.46248960E-01  2.52549969E-01  2.84940176E-01  2.94821135E-01
  3.07964710E-01  3.22925906E-01  3.89945542E-01  4.11962447E-01  4.23728952E-01
  4.34963789E-01  4.56339799E-01  4.87620689E-01  5.01357090E-01  5.21203099E-01
  6.79360420E-01  7.43749512E-01  7.71571245E-01  7.87072562E-01  8.12816888E-01
  8.30118795E-01  8.51425511E-01  8.89907802E-01  9.29953606E-01  9.86719709E-01
  1.02687177E+00  1.04172585E+00  1.09455599E+00  1.13473098E+00  1.15665487E+00
  1.17070927E+00  1.23811300E+00  1.30656349E+00  1.31848310E+00  1.39284237E+00
  1.41427491E+00  1.66715413E+00  1.81631094E+00  1.85368177E+00  2.37943985E+00
Alpha MO coefficients                      R   N=        5625
  7.58382556E-06 -8.80448989E-05 -7.48397122E-05  3.70248044E-05  1.55642183E-05
  1.38314185E-03  1.90429775E-03 -2.84700494E-03 -4.27544985E-04  4.40552802E-03
  1.46462369E-03  7.12565460E-04  1.99099766E-04 -1.19582645E-05  4.85806776E-04
 -2.41659429E-05  4.76507965E-04 -6.08783267E-05 -6.98774266E-04 -7.72204357E-04
  5.09915860E-03  4.04576229E-04 -1.39977138E-02 -2.48175417E-03 -1.70108590E-03
 -2.98226801E-04  6.72769576E-06 -9.25487734E-05  1.19330560E-04  4.35531712E-06
  3.25775582E-05  1.07647289E-03 -2.46343931E-03 -2.02034005E-03 -5.27438415E-04
  2.44508196E-03 -9.17664091E-04  7.83355746E-04 -9.89259464E-04  8.79233073E-06
  1.21245940E-04 -1.08297774E-04 -4.76856286E-06 -2.79762981E-05  2.01923440E-03
 -2.52840031E-04 -4.70218067E-04 -4.08924855E-04  4.45258160E-03 -1.51927549E-03
 -7.30235096E-05  3.80938068E-04  3.29504552E-04  1.09154743E-03 -2.93037331E-04
 -1.82649160E-03  9.95030280E-01  2.76624736E-02  6.16029473E-05 -1.31281235E-03
  4.06800313E-05 -1.56860590E-02 -1.13404563E-04  2.34527853E-03 -1.00505209E-04
  7.98269120E-03  2.86885888E-04 -9.27914464E-04  3.41874575E-05 -2.42644951E-04
 -9.68445519E-04  7.99622869E-05 -4.05365092E-04 -6.48134322E-05 -4.12233780E-04
  4.66719496E-03 -1.18221101E-03 -7.76726577E-04 -3.48711260E-04  1.98684144E-04
  8.75184701E-03  4.11820227E-03  4.75355708E-04 -8.44920337E-04 -2.56276264E-02
 -6.22378315E-03 -2.93838157E-03  1.05218565E-03  9.95507262E-01  3.63829384E-02
 -1.38606428E-04  1.14177866E-03  1.21163330E-04 -3.65659593E-02 -4.92868947E-04
  8.00744131E-04 -4.53687814E-04  5.03446820E-02  1.28210896E-03 -7.19664806E-03
  8.35460639E-04  1.91082068E-03 -7.47155091E-04  5.53045617E-04 -2.13719706E-04
 -3.06378537E-05  6.57249805E-03 -4.47088371E-03  1.02452904E-03  3.33410485E-04
 -1.24495840E-02  8.87027203E-03 -1.15391081E-03  9.26553187E-04 -8.44522415E-05
 -3.56602282E-04  8.07662729E-05  7.14310771E-05 -4.17208568E-05  1.16391959E-03
  9.38827959E-05 -6.34119664E-04 -1.03715815E-04 -1.12817314E-02  2.31995192E-03
  1.98915298E-03  4.84702266E-04 -5.87054233E-05  4.75918920E-04 -3.14636525E-04
 -9.94058562E-04  4.15028323E-05  7.20735916E-04 -1.02310749E-05 -7.95801653E-05
  9.64342324E-07 -8.80146734E-04  3.96857088E-05  8.35854702E-04 -1.51223334E-06
  7.29222091E-03  9.33343201E-05 -4.94825811E-03  1.72672477E-04 -2.01535543E-04
 -7.01589626E-05 -3.14830747E-05 -1.43232627E-04 -9.31401250E-05  2.08095625E-04
 -4.62061285E-04 -4.07044521E-04 -1.07061835E-04 -4.97292569E-06 -2.93897490E-05
  2.65782522E-03  5.19267420E-04  1.50068332E-03 -2.24505415E-04 -1.35137360E-02
 -2.89653338E-03 -2.04458049E-03 -3.02856065E-04 -1.89777897E-03 -8.78441352E-04
 -7.33420306E-04  2.40912776E-04  1.68325815E-04  6.82319712E-03  7.20564844E-03
 -1.39817730E-03 -8.21623917E-04 -1.68792302E-02 -1.10767361E-02 -7.24432116E-04
  2.07736540E-03  9.94950245E-01  3.63862953E-02 -1.26208445E-04  3.70329719E-04
  3.01771528E-04 -3.64544742E-02  1.43457764E-03 -4.58963586E-03 -2.44235345E-03
  7.60641223E-02  1.42991351E-03  1.28993785E-02  6.79171845E-03  3.02381923E-02
 -2.38364710E-04  7.63242643E-04  4.12796998E-04  3.31087033E-04  8.91698930E-03
 -5.07977488E-03 -7.44893215E-04 -1.11053254E-03 -4.38126602E-02  9.60832146E-03
  3.67456913E-03  2.97417635E-03 -1.31874754E-04  9.90382426E-05 -6.12996033E-05
  5.95126423E-04  2.23863565E-06 -1.15021954E-04 -5.01274904E-05  1.28771955E-04
  1.98863483E-05 -1.66818821E-04 -1.04253515E-04 -3.09655658E-04 -1.35233036E-05
  4.83515975E-04 -5.57191062E-04  9.43447474E-05  7.37257832E-06 -6.67529339E-04
  2.73574980E-03 -4.05279875E-04 -5.30937902E-04 -1.24331474E-04  1.23964587E-03
 -8.47847211E-04 -2.86457740E-04  6.88397441E-05  1.60710416E-05  1.78971709E-05
  1.56567651E-03  4.43471648E-05  5.95723457E-04 -1.22826148E-04 -2.78140395E-02
 -3.96197190E-03 -3.70649207E-03  1.72454979E-03  8.26568060E-05 -3.25767779E-04
 -1.81270532E-04  3.03425835E-05 -1.61475898E-05  2.60679874E-04  1.44076764E-03
 -6.56867646E-04 -3.83784339E-04 -1.78360171E-02 -2.23636888E-02 -1.68659970E-03
  2.42799431E-03 -3.04872952E-02 -2.33115839E-03 -9.46655674E-04 -5.97170267E-04
 -4.46720126E-04  9.17299620E-03  5.36894663E-03  2.43035020E-03  2.03920742E-03
  1.54893889E-02 -1.58963789E-02  4.48876221E-03 -4.39164111E-04  9.94869335E-01
  3.54398813E-02 -4.09167978E-04 -2.49494833E-04 -2.45511263E-04 -3.11566361E-02
  3.23587707E-03  1.99690438E-03  1.56574856E-03  3.07032267E-02 -7.95605332E-03
 -4.30930889E-03 -3.41356356E-03 -7.94144255E-05 -2.23398679E-04 -4.42127298E-05
  3.94199419E-04  7.87173940E-06  1.12126488E-04  2.83862580E-05  2.70920722E-05
 -1.90304230E-05 -4.63536492E-04 -3.56636169E-04 -7.09729052E-05  6.90427741E-05
  1.90797068E-03  4.64357698E-04 -2.52897318E-04  2.39259191E-05 -1.04266275E-04
  1.16489885E-04 -6.12248512E-04  3.56511695E-03 -6.92263775E-04  4.24366151E-03
  9.95294100E-01  3.56515651E-02  5.83940980E-04  2.59394361E-04 -1.90550182E-04
 -3.26037470E-02 -4.15686886E-03 -2.06662488E-03  1.10499792E-03  2.07164806E-02
  5.88820699E-03  4.45943763E-03 -1.48644266E-03 -4.94953315E-03 -1.55988437E-03
  1.11889646E-03  6.35667081E-04 -2.71084592E-04  9.56414566E-03 -6.33000685E-03
 -4.05268663E-03  1.43363047E-03  1.91332324E-02  1.23054435E-02 -6.43174956E-03
 -2.58729767E-03  3.65545326E-04 -3.33844488E-04  1.41280377E-04 -9.07473811E-06
 -4.46274353E-05  1.12974683E-03 -4.44363737E-04  1.31393800E-03  1.77209116E-04
 -1.64841408E-02  1.88307724E-02  8.40048312E-04  1.23555471E-03  8.06105140E-04
 -2.16089705E-04 -3.41638655E-05  6.12215065E-06  3.24151278E-05  4.18246124E-04
  2.81385787E-04 -2.04902867E-04 -7.07841282E-05 -2.27049696E-02  3.08407563E-03
  3.18802755E-03  2.30551082E-03 -7.09493876E-04  4.08717880E-03 -6.09897021E-04
  4.03410188E-03 -2.71039491E-08 -1.18227950E-04  2.09692797E-05  1.49797487E-04
 -8.17816286E-06  3.76085475E-05  1.62800404E-04 -5.60260413E-04 -2.31819019E-05
  1.46995747E-03  3.33761305E-04  2.37371182E-04 -2.96304624E-05 -7.46064347E-05
  9.24486039E-04 -1.49328725E-05  2.62267379E-04 -5.30668870E-05 -1.08218002E-04
 -9.84782601E-03  1.93195950E-02  1.12187168E-02  1.16568353E-02 -2.85546687E-03
 -7.87163633E-03 -2.18014240E-02  3.16925819E-02  4.30572511E-03 -4.96578681E-02
 -1.52567353E-02 -2.49128025E-03  1.59484792E-03 -5.92750134E-02  1.15208824E-01
 -4.01524028E-03  9.65232496E-02  3.12018428E-05  4.29269110E-02  1.46523216E-02
 -6.39689799E-02 -3.23975989E-03  1.34115441E-01  1.66721418E-02 -6.18615304E-03
 -9.83961220E-04 -8.75199098E-03  1.72549621E-02 -1.08688004E-02  9.57184706E-03
  1.40774566E-03 -1.18887053E-02  2.86720440E-02  1.71131747E-02  2.85835695E-03
 -3.44242522E-02  2.22941384E-02 -5.47954005E-03  6.94564977E-03 -2.70982202E-03
  2.63718406E-03 -2.38338629E-03  4.99585149E-05 -5.49210430E-04 -1.52152852E-02
 -1.63136564E-03  8.40005738E-03  5.36183240E-03 -4.01299251E-02  9.01368502E-03
  4.26535792E-03 -3.10612554E-05  7.64997391E-04 -1.39707720E-02  3.66213770E-03
  1.85780313E-02 -2.25657409E-01  4.78177367E-01  4.30451158E-03 -9.81085065E-02
  2.29455137E-03  5.46269542E-01  3.24419967E-03 -7.90541718E-02  2.38603601E-03
 -5.39163490E-03 -2.18953827E-03  1.00547000E-02  3.23137387E-06  3.15483769E-03
  7.09669436E-03  6.92553012E-04  9.90145062E-05  1.07748983E-03  6.33965682E-03
 -8.91939059E-02  1.71403966E-01  7.47129895E-02  2.64947217E-02 -1.63764840E-02
  1.45688522E-01  1.26966697E-02  6.36366568E-03 -5.75622897E-03  5.84008998E-02
  1.19165375E-02  9.12254293E-03  6.31858544E-04 -1.25015435E-01  2.53201934E-01
  1.78286813E-02 -8.60518420E-02  1.09656725E-02  1.65978587E-01  3.47240753E-02
  9.21619652E-03  3.69256382E-04 -3.10234631E-02  1.94420887E-02  5.82098503E-03
 -6.03357461E-03 -1.39127746E-01  2.72254250E-01 -1.44126212E-02  3.92887723E-02
  2.96854531E-02  1.71721225E-01 -1.56994101E-02 -2.22925071E-02 -5.17466365E-03
 -1.08676447E-01 -6.48462999E-03 -2.48396953E-02 -1.40640894E-02 -9.14921970E-02
  1.76780415E-01 -7.06156511E-02 -3.25820841E-02 -2.51177694E-02  1.42608366E-01
 -9.62522418E-03 -2.62449993E-03 -4.46001551E-03  8.23643937E-02 -1.90798926E-02
 -4.69095562E-03 -3.14777506E-03  3.71873143E-02  1.25167898E-03  4.61443399E-02
  7.67695345E-03  4.88930759E-02 -1.09392596E-01  9.29529132E-03 -6.10857911E-02
  2.51885500E-03 -1.42291416E-01  1.93734357E-03 -2.55939652E-02  1.01545972E-03
 -2.16896393E-02 -7.06235898E-04  7.51693486E-03  3.30408121E-05  6.93401540E-02
  2.60330537E-04  4.29232322E-02  3.16612803E-03  4.09722716E-02  2.56174964E-03
 -1.35926059E-01  2.62154395E-01  6.78468534E-02  4.29291220E-02 -1.89773176E-02
  1.95273123E-01  7.73366738E-04 -4.48345907E-03  4.34193049E-04 -7.23243470E-02
 -1.44991164E-02 -7.68875942E-03  3.60596228E-03 -8.22651639E-02  1.70988533E-01
 -1.63443821E-01 -6.27091992E-02  2.95641817E-02  1.11454907E-01 -3.73324611E-02
 -9.55142961E-03  4.26031111E-03 -4.60635109E-02 -4.70210398E-02 -1.86377020E-03
  9.78355528E-03  8.73048323E-02 -1.72545555E-01 -1.15348283E-01 -3.98558294E-02
 -2.86146804E-02 -1.17023249E-01 -2.50258641E-02  6.77219131E-03  1.37944146E-03
  3.67564806E-02 -6.28041528E-02  8.18072022E-03 -2.25497533E-03  1.20472429E-01
 -2.33014980E-01  5.64205821E-02  3.43715372E-02  2.78010159E-02 -1.83468120E-01
  6.62503948E-03 -7.12512682E-03 -2.59084469E-03  8.14498114E-02 -1.12946570E-02
 -1.30816895E-02 -1.06352109E-02  7.64112057E-02  1.61787293E-02  7.52690633E-02
  1.21776289E-02  2.39412919E-02 -5.53074045E-02 -3.89429963E-02 -5.06679881E-02
  5.49308367E-03 -6.60102932E-02 -1.93567749E-02 -2.75601028E-02  2.96022647E-03
 -1.44129600E-02 -4.22302866E-03  5.29874275E-03 -5.20578694E-04 -4.36874443E-02
 -4.17801168E-03 -6.49558769E-02 -5.07434024E-03 -6.88149286E-02 -1.82512695E-02
 -9.80647450E-02  1.92712780E-01 -6.25238498E-02  3.25146357E-03  1.29785677E-02
  1.88961696E-01 -2.15235234E-02 -1.01556919E-03  3.93965594E-03 -3.07658068E-02
 -1.01146801E-02 -1.06918728E-02 -5.48101940E-04  6.87090814E-02 -1.47738177E-01
 -2.12209540E-01 -1.51184910E-03  4.68501664E-02 -1.46351715E-01 -5.07207209E-02
  6.93397328E-03  1.27176418E-02 -2.55988314E-03 -1.94762208E-02  1.21853798E-02
  7.28278608E-03  6.70738686E-02 -1.37892778E-01  2.03510203E-01  1.42556118E-02
  3.60757200E-02 -1.24467598E-01  3.53666171E-02  6.07362085E-03  1.11008637E-02
  1.30683870E-01  1.09088613E-02  1.21534133E-02  1.07223062E-02 -1.20147970E-01
  2.40028784E-01  7.17723852E-02  7.80330372E-03  1.31756941E-02  2.32059243E-01
  3.14736202E-02 -2.14665066E-03  3.70896804E-03 -8.80987061E-02  2.49157196E-02
  9.37926933E-03  7.38289866E-03  1.05088024E-01  3.64777536E-02  8.02316943E-02
  2.87940549E-02 -2.20770517E-02  5.19221913E-02 -6.86661986E-02  9.86949682E-02
  1.75518426E-02  6.26503756E-02 -3.85547480E-02  5.59279211E-02  9.98899013E-03
  2.40050640E-02 -3.26758338E-05 -8.41636108E-03  1.01056219E-03 -6.22621025E-02
 -2.18894617E-02  1.02746837E-01  3.72036096E-02  1.23808324E-01  4.03182552E-02
 -4.57599395E-02  8.73398652E-02 -5.76056781E-02 -1.27511653E-01  1.29978489E-02
  1.12077293E-01  1.88306748E-03 -5.61034916E-02  1.98601296E-05  6.43898226E-02
  1.21386522E-02 -6.80627432E-03 -2.95662561E-03  7.48437632E-02 -1.65476605E-01
  3.85489260E-02 -1.83318798E-01 -2.02965845E-02 -1.80941354E-01 -6.90971023E-03
 -2.38459725E-02 -3.99518964E-03 -1.61904771E-01 -7.66106759E-03  4.57180514E-02
  1.69689766E-03 -7.37196306E-02  1.47104147E-01  2.15441494E-02 -1.53949311E-01
 -5.65896209E-02  1.68435747E-01 -2.60788767E-02 -6.79681090E-02 -2.41627466E-02
 -1.54026017E-02 -6.17435264E-02 -1.96144842E-02 -1.09880754E-02  4.90380583E-02
 -9.78053140E-02 -4.93019506E-02 -1.00512165E-01 -5.22511888E-02 -8.83753396E-02
 -1.86216739E-02 -3.88153977E-02 -2.31766372E-02  1.16705346E-01 -2.27922571E-02
 -1.75547227E-02 -1.22285398E-02  4.10686182E-02  2.80989112E-02  1.05968479E-01
  4.38101623E-02 -5.41163848E-02  1.26772371E-01 -1.43429738E-02  3.45502742E-01
 -1.87206147E-02  1.59614086E-01 -8.15615881E-03  1.98809708E-01 -1.14717877E-02
  5.77392403E-02  7.33550920E-04 -2.85705143E-03 -1.04921756E-03  1.48337606E-01
  6.32958292E-02 -9.61789284E-02 -4.10977799E-02 -4.52594054E-02 -2.23134003E-02