 Entering Gaussian System, Link 0=/opt/cluster/programs/g09_d.01/g09//g09
 Input=/home/unibas/boittier/RDKit_G2/B.pdb/SCAN_1_2_3_4_S_17_20.0/15_SCAN_1_2_3_4_F/15_SCAN_B.pdb.com
 Output=/scratch/boittier/15_SCAN_B.pdb/15_SCAN_B.pdb.out
 Initial command:
 /opt/cluster/programs/g09_d.01/g09/l1.exe "/scratch/boittier/15_SCAN_B.pdb/Gau-191158.inp" -scrdir="/scratch/boittier/15_SCAN_B.pdb/"
 Entering Link 1 = /opt/cluster/programs/g09_d.01/g09/l1.exe PID=    191159.
  
 Copyright (c) 1988,1990,1992,1993,1995,1998,2003,2009,2013,
            Gaussian, Inc.  All Rights Reserved.
  
 This is part of the Gaussian(R) 09 program.  It is based on
 the Gaussian(R) 03 system (copyright 2003, Gaussian, Inc.),
 the Gaussian(R) 98 system (copyright 1998, Gaussian, Inc.),
 the Gaussian(R) 94 system (copyright 1995, Gaussian, Inc.),
 the Gaussian 92(TM) system (copyright 1992, Gaussian, Inc.),
 the Gaussian 90(TM) system (copyright 1990, Gaussian, Inc.),
 the Gaussian 88(TM) system (copyright 1988, Gaussian, Inc.),
 the Gaussian 86(TM) system (copyright 1986, Carnegie Mellon
 University), and the Gaussian 82(TM) system (copyright 1983,
 Carnegie Mellon University). Gaussian is a federally registered
 trademark of Gaussian, Inc.
  
 This software contains proprietary and confidential information,
 including trade secrets, belonging to Gaussian, Inc.
  
 This software is provided under written license and may be
 used, copied, transmitted, or stored only in accord with that
 written license.
  
 The following legend is applicable only to US Government
 contracts under FAR:
  
                    RESTRICTED RIGHTS LEGEND
  
 Use, reproduction and disclosure by the US Government is
 subject to restrictions as set forth in subparagraphs (a)
 and (c) of the Commercial Computer Software - Restricted
 Rights clause in FAR 52.227-19.
  
 Gaussian, Inc.
 340 Quinnipiac St., Bldg. 40, Wallingford CT 06492
  
  
 ---------------------------------------------------------------
 Warning -- This program may not be used in any manner that
 competes with the business of Gaussian, Inc. or will provide
 assistance to any competitor of Gaussian, Inc.  The licensee
 of this program is prohibited from giving any competitor of
 Gaussian, Inc. access to this program.  By using this program,
 the user acknowledges that Gaussian, Inc. is engaged in the
 business of creating and licensing software in the field of
 computational chemistry and represents and warrants to the
 licensee that it is not a competitor of Gaussian, Inc. and that
 it will not use this program in any manner prohibited above.
 ---------------------------------------------------------------
  

 Cite this work as:
 Gaussian 09, Revision D.01,
 M. J. Frisch, G. W. Trucks, H. B. Schlegel, G. E. Scuseria, 
 M. A. Robb, J. R. Cheeseman, G. Scalmani, V. Barone, B. Mennucci, 
 G. A. Petersson, H. Nakatsuji, M. Caricato, X. Li, H. P. Hratchian, 
 A. F. Izmaylov, J. Bloino, G. Zheng, J. L. Sonnenberg, M. Hada, 
 M. Ehara, K. Toyota, R. Fukuda, J. Hasegawa, M. Ishida, T. Nakajima, 
 Y. Honda, O. Kitao, H. Nakai, T. Vreven, J. A. Montgomery, Jr., 
 J. E. Peralta, F. Ogliaro, M. Bearpark, J. J. Heyd, E. Brothers, 
 K. N. Kudin, V. N. Staroverov, T. Keith, R. Kobayashi, J. Normand, 
 K. Raghavachari, A. Rendell, J. C. Burant, S. S. Iyengar, J. Tomasi, 
 M. Cossi, N. Rega, J. M. Millam, M. Klene, J. E. Knox, J. B. Cross, 
 V. Bakken, C. Adamo, J. Jaramillo, R. Gomperts, R. E. Stratmann, 
 O. Yazyev, A. J. Austin, R. Cammi, C. Pomelli, J. W. Ochterski, 
 R. L. Martin, K. Morokuma, V. G. Zakrzewski, G. A. Voth, 
 P. Salvador, J. J. Dannenberg, S. Dapprich, A. D. Daniels, 
 O. Farkas, J. B. Foresman, J. V. Ortiz, J. Cioslowski, 
 and D. J. Fox, Gaussian, Inc., Wallingford CT, 2013.
 
 ******************************************
 Gaussian 09:  ES64L-G09RevD.01 24-Apr-2013
                12-May-2021 
 ******************************************
 %chk=/home/unibas/boittier/RDKit_G2/B.pdb/SCAN_1_2_3_4_S_17_20.0/15_SCAN_1_2_3_4
 _F/B.pdb.chk
 %nproc=8
 Will use up to    8 processors via shared memory.
 %mem=16GB
 -----------------------------
 #p wB97XD/6-31+G Opt=ModRedun
 -----------------------------
 1/14=-1,18=120,19=15,26=3,38=1/1,3;
 2/9=110,12=2,17=6,18=5,40=1/2;
 3/5=1,6=6,7=10,11=2,16=1,25=1,30=1,71=1,74=-58/1,2,3;
 4//1;
 5/5=2,38=5/2;
 6/7=2,8=2,9=2,10=2,28=1/1;
 7//1,2,3,16;
 1/14=-1,18=20,19=15,26=3/3(2);
 2/9=110/2;
 99//99;
 2/9=110/2;
 3/5=1,6=6,7=10,11=2,16=1,25=1,30=1,71=1,74=-58/1,2,3;
 4/5=5,16=3,69=1/1;
 5/5=2,38=5/2;
 7//1,2,3,16;
 1/14=-1,18=20,19=15,26=3/3(-5);
 2/9=110/2;
 6/7=2,8=2,9=2,10=2,19=2,28=1/1;
 99/9=1/99;
 Leave Link    1 at Wed May 12 11:56:05 2021, MaxMem=  2147483648 cpu:         0.2
 (Enter /opt/cluster/programs/g09_d.01/g09/l101.exe)
 -----
 B.pdb
 -----
 Symbolic Z-matrix:
 Charge =  0 Multiplicity = 1
 C                    -1.55438  -0.85045  -0.23452 
 C                    -0.51275  -0.0959    0.11558 
 C                     0.88295  -0.48435   0.38179 
 C                     1.93397  -0.01399  -0.30808 
 H                    -2.51887  -0.41071  -0.45744 
 H                    -1.45584  -1.92844  -0.28664 
 F                    -0.70166   1.3206    0.1182 
 H                     1.02662  -1.26143   1.13079 
 H                     1.82288   0.74497  -1.07714 
 H                     2.94137  -0.36166  -0.10194 
 
 The following ModRedundant input section has been read:
 D       1       2       3       4 F                                           
 
 NAtoms=     10 NQM=       10 NQMF=       0 NMMI=      0 NMMIF=      0
                NMic=       0 NMicF=      0.
                    Isotopes and Nuclear Properties:
 (Nuclear quadrupole moments (NQMom) in fm**2, nuclear magnetic moments (NMagM)
  in nuclear magnetons)

  Atom         1           2           3           4           5           6           7           8           9          10
 IAtWgt=          12          12          12          12           1           1          19           1           1           1
 AtmWgt=  12.0000000  12.0000000  12.0000000  12.0000000   1.0078250   1.0078250  18.9984033   1.0078250   1.0078250   1.0078250
 NucSpn=           0           0           0           0           1           1           1           1           1           1
 AtZEff=   0.0000000   0.0000000   0.0000000   0.0000000   0.0000000   0.0000000   0.0000000   0.0000000   0.0000000   0.0000000
 NQMom=    0.0000000   0.0000000   0.0000000   0.0000000   0.0000000   0.0000000   0.0000000   0.0000000   0.0000000   0.0000000
 NMagM=    0.0000000   0.0000000   0.0000000   0.0000000   2.7928460   2.7928460   2.6288670   2.7928460   2.7928460   2.7928460
 AtZNuc=   6.0000000   6.0000000   6.0000000   6.0000000   1.0000000   1.0000000   9.0000000   1.0000000   1.0000000   1.0000000
 Leave Link  101 at Wed May 12 11:56:05 2021, MaxMem=  2147483648 cpu:         4.3
 (Enter /opt/cluster/programs/g09_d.01/g09/l103.exe)

 GradGradGradGradGradGradGradGradGradGradGradGradGradGradGradGradGradGrad
 Berny optimization.
 Initialization pass.
                           ----------------------------
                           !    Initial Parameters    !
                           ! (Angstroms and Degrees)  !
 --------------------------                            --------------------------
 ! Name  Definition              Value          Derivative Info.                !
 --------------------------------------------------------------------------------
 ! R1    R(1,2)                  1.333          estimate D2E/DX2                !
 ! R2    R(1,5)                  1.0832         estimate D2E/DX2                !
 ! R3    R(1,6)                  1.0837         estimate D2E/DX2                !
 ! R4    R(2,3)                  1.473          estimate D2E/DX2                !
 ! R5    R(2,7)                  1.429          estimate D2E/DX2                !
 ! R6    R(3,4)                  1.3423         estimate D2E/DX2                !
 ! R7    R(3,8)                  1.0888         estimate D2E/DX2                !
 ! R8    R(4,9)                  1.0862         estimate D2E/DX2                !
 ! R9    R(4,10)                 1.0855         estimate D2E/DX2                !
 ! A1    A(2,1,5)              121.3339         estimate D2E/DX2                !
 ! A2    A(2,1,6)              120.3069         estimate D2E/DX2                !
 ! A3    A(5,1,6)              118.3518         estimate D2E/DX2                !
 ! A4    A(1,2,3)              129.6866         estimate D2E/DX2                !
 ! A5    A(1,2,7)              117.2753         estimate D2E/DX2                !
 ! A6    A(3,2,7)              112.7264         estimate D2E/DX2                !
 ! A7    A(2,3,4)              123.8215         estimate D2E/DX2                !
 ! A8    A(2,3,8)              115.9488         estimate D2E/DX2                !
 ! A9    A(4,3,8)              120.0209         estimate D2E/DX2                !
 ! A10   A(3,4,9)              121.9141         estimate D2E/DX2                !
 ! A11   A(3,4,10)             121.1207         estimate D2E/DX2                !
 ! A12   A(9,4,10)             116.9487         estimate D2E/DX2                !
 ! D1    D(5,1,2,3)           -176.1856         estimate D2E/DX2                !
 ! D2    D(5,1,2,7)             -3.1262         estimate D2E/DX2                !
 ! D3    D(6,1,2,3)              4.8142         estimate D2E/DX2                !
 ! D4    D(6,1,2,7)            177.8736         estimate D2E/DX2                !
 ! D5    D(1,2,3,4)            120.0111         Frozen                          !
 ! D6    D(1,2,3,8)            -54.7229         estimate D2E/DX2                !
 ! D7    D(7,2,3,4)            -53.3019         estimate D2E/DX2                !
 ! D8    D(7,2,3,8)            131.9641         estimate D2E/DX2                !
 ! D9    D(2,3,4,9)              4.1032         estimate D2E/DX2                !
 ! D10   D(2,3,4,10)          -177.4198         estimate D2E/DX2                !
 ! D11   D(8,3,4,9)            178.6339         estimate D2E/DX2                !
 ! D12   D(8,3,4,10)            -2.8891         estimate D2E/DX2                !
 --------------------------------------------------------------------------------
 Trust Radius=3.00D-01 FncErr=1.00D-07 GrdErr=1.00D-06
 Number of steps in this run=     43 maximum allowed number of steps=    100.
 GradGradGradGradGradGradGradGradGradGradGradGradGradGradGradGradGradGrad

 Leave Link  103 at Wed May 12 11:56:06 2021, MaxMem=  2147483648 cpu:         0.1
 (Enter /opt/cluster/programs/g09_d.01/g09/l202.exe)
                          Input orientation:                          
 ---------------------------------------------------------------------
 Center     Atomic      Atomic             Coordinates (Angstroms)
 Number     Number       Type             X           Y           Z
 ---------------------------------------------------------------------
      1          6           0       -1.554379   -0.850454   -0.234520
      2          6           0       -0.512747   -0.095896    0.115582
      3          6           0        0.882949   -0.484354    0.381789
      4          6           0        1.933973   -0.013987   -0.308080
      5          1           0       -2.518867   -0.410705   -0.457443
      6          1           0       -1.455839   -1.928437   -0.286643
      7          9           0       -0.701660    1.320602    0.118196
      8          1           0        1.026621   -1.261426    1.130787
      9          1           0        1.822877    0.744965   -1.077142
     10          1           0        2.941369   -0.361661   -0.101940
 ---------------------------------------------------------------------
                    Distance matrix (angstroms):
                    1          2          3          4          5
     1  C    0.000000
     2  C    1.333014   0.000000
     3  C    2.540558   1.473001   0.000000
     4  C    3.587992   2.484479   1.342317   0.000000
     5  H    1.083195   2.109972   3.504581   4.472972   0.000000
     6  H    1.083732   2.099860   2.828799   3.893123   1.860836
     7  F    2.359030   1.429042   2.416264   2.984862   2.575078
     8  H    2.948648   2.181457   1.088798   2.109438   3.977020
     9  H    3.828999   2.754047   2.126774   1.086189   4.535454
    10  H    4.524185   3.471147   2.118051   1.085457   5.472017
                    6          7          8          9         10
     6  H    0.000000
     7  F    3.359901   0.000000
     8  H    2.935408   3.267899   0.000000
     9  H    4.303713   2.851925   3.087811   0.000000
    10  H    4.671653   4.018722   2.448561   1.851125   0.000000
 Stoichiometry    C4H5F
 Framework group  C1[X(C4H5F)]
 Deg. of freedom    24
 Full point group                 C1      NOp   1
 Largest Abelian subgroup         C1      NOp   1
 Largest concise Abelian subgroup C1      NOp   1
                         Standard orientation:                         
 ---------------------------------------------------------------------
 Center     Atomic      Atomic             Coordinates (Angstroms)
 Number     Number       Type             X           Y           Z
 ---------------------------------------------------------------------
      1          6           0       -1.554379   -0.850454   -0.234520
      2          6           0       -0.512747   -0.095896    0.115582
      3          6           0        0.882949   -0.484354    0.381789
      4          6           0        1.933973   -0.013987   -0.308080
      5          1           0       -2.518867   -0.410705   -0.457443
      6          1           0       -1.455839   -1.928437   -0.286643
      7          9           0       -0.701660    1.320602    0.118196
      8          1           0        1.026621   -1.261426    1.130787
      9          1           0        1.822877    0.744965   -1.077142
     10          1           0        2.941369   -0.361662   -0.101940
 ---------------------------------------------------------------------
 Rotational constants (GHZ):      8.8353933      4.0697700      3.0075054
 Leave Link  202 at Wed May 12 11:56:06 2021, MaxMem=  2147483648 cpu:         0.0
 (Enter /opt/cluster/programs/g09_d.01/g09/l301.exe)
 Standard basis: 6-31+G (6D, 7F)
 Ernie: Thresh=  0.10000D-02 Tol=  0.10000D-05 Strict=F.
 There are    75 symmetry adapted cartesian basis functions of A   symmetry.
 There are    75 symmetry adapted basis functions of A   symmetry.
    75 basis functions,   150 primitive gaussians,    75 cartesian basis functions
    19 alpha electrons       19 beta electrons
       nuclear repulsion energy       156.5255225103 Hartrees.
 IExCor= 4639 DFT=T Ex+Corr=wB97XD ExCW=0 ScaHFX=  1.000000
 ScaDFX=  1.000000  1.000000  1.000000  1.000000 ScalE2=  1.000000  1.000000
 IRadAn=      0 IRanWt=     -1 IRanGd=            0 ICorTp=0 IEmpDi=121
  HFx wShort=  0.000000 wLong=  0.200000 cFull=  0.222036 cShort=  0.000000 cLong=  0.777964
  DFx wShort=  0.000000 wLong=  0.200000 cFull=  0.000000 cShort=  0.000000 cLong=  1.000000
 NAtoms=   10 NActive=   10 NUniq=   10 SFac= 1.00D+00 NAtFMM=   60 NAOKFM=F Big=F
 Integral buffers will be    131072 words long.
 Raffenetti 2 integral format.
 Two-electron integral symmetry is turned on.
 R6Disp:  Grimme-D2 Dispersion energy=       -0.0029840087 Hartrees.
 Nuclear repulsion after empirical dispersion term =      156.5225385016 Hartrees.
 Leave Link  301 at Wed May 12 11:56:06 2021, MaxMem=  2147483648 cpu:         0.3
 (Enter /opt/cluster/programs/g09_d.01/g09/l302.exe)
 NPDir=0 NMtPBC=     1 NCelOv=     1 NCel=       1 NClECP=     1 NCelD=      1
         NCelK=      1 NCelE2=     1 NClLst=     1 CellRange=     0.0.
 One-electron integrals computed using PRISM.
 NBasis=    75 RedAO= T EigKep=  7.68D-05  NBF=    75
 NBsUse=    75 1.00D-06 EigRej= -1.00D+00 NBFU=    75
 Precomputing XC quadrature grid using
 IXCGrd= 4 IRadAn=           0 IRanWt=          -1 IRanGd=           0 AccXCQ= 0.00D+00.
 Generated NRdTot=       0 NPtTot=           0 NUsed=           0 NTot=          32
 NSgBfM=    75    75    75    75    75 MxSgAt=    10 MxSgA2=    10.
 Leave Link  302 at Wed May 12 11:56:06 2021, MaxMem=  2147483648 cpu:         0.9
 (Enter /opt/cluster/programs/g09_d.01/g09/l303.exe)
 DipDrv:  MaxL=1.
 Leave Link  303 at Wed May 12 11:56:06 2021, MaxMem=  2147483648 cpu:         0.2
 (Enter /opt/cluster/programs/g09_d.01/g09/l401.exe)
 ExpMin= 4.38D-02 ExpMax= 7.00D+03 ExpMxC= 1.05D+03 IAcc=2 IRadAn=         4 AccDes= 0.00D+00
 Harris functional with IExCor= 4639 and IRadAn=       4 diagonalized for initial guess.
 HarFok:  IExCor= 4639 AccDes= 0.00D+00 IRadAn=         4 IDoV= 1 UseB2=F ITyADJ=14
 ICtDFT=  3500011 ScaDFX=  1.000000  1.000000  1.000000  1.000000
 FoFCou: FMM=F IPFlag=           0 FMFlag=      100000 FMFlg1=           0
         NFxFlg=           0 DoJE=T BraDBF=F KetDBF=T FulRan=T
         wScrn=  0.000000 ICntrl=     500 IOpCl=  0 I1Cent=   200000004 NGrid=           0
         NMat0=    1 NMatS0=      1 NMatT0=    0 NMatD0=    1 NMtDS0=    0 NMtDT0=    0
 Petite list used in FoFCou.
 Harris En= -244.783970009917    
 JPrj=0 DoOrth=F DoCkMO=F.
 Leave Link  401 at Wed May 12 11:56:06 2021, MaxMem=  2147483648 cpu:         1.3
 (Enter /opt/cluster/programs/g09_d.01/g09/l502.exe)
 Closed shell SCF:
 Using DIIS extrapolation, IDIIS=  1040.
 Integral symmetry usage will be decided dynamically.
 Keep R1 ints in memory in canonical form, NReq=9056162.
 IVT=       36600 IEndB=       36600 NGot=  2147483648 MDV=  2139321699
 LenX=  2139321699 LenY=  2139315633
 Requested convergence on RMS density matrix=1.00D-08 within 128 cycles.
 Requested convergence on MAX density matrix=1.00D-06.
 Requested convergence on             energy=1.00D-06.
 No special actions if energy rises.
 FoFCou: FMM=F IPFlag=           0 FMFlag=           0 FMFlg1=           0
         NFxFlg=           0 DoJE=F BraDBF=F KetDBF=F FulRan=T
         wScrn=  0.000000 ICntrl=     600 IOpCl=  0 I1Cent=           0 NGrid=           0
         NMat0=    1 NMatS0=   2850 NMatT0=    0 NMatD0=    1 NMtDS0=    0 NMtDT0=    0
 Symmetry not used in FoFCou.

 Cycle   1  Pass 1  IDiag  1:
 E= -254.922170037803    
 DIIS: error= 4.54D-02 at cycle   1 NSaved=   1.
 NSaved= 1 IEnMin= 1 EnMin= -254.922170037803     IErMin= 1 ErrMin= 4.54D-02
 ErrMax= 4.54D-02  0.00D+00 EMaxC= 1.00D-01 BMatC= 2.65D-01 BMatP= 2.65D-01
 IDIUse=3 WtCom= 5.46D-01 WtEn= 4.54D-01
 Coeff-Com:  0.100D+01
 Coeff-En:   0.100D+01
 Coeff:      0.100D+01
 Gap=     0.440 Goal=   None    Shift=    0.000
 GapD=    0.440 DampG=2.000 DampE=0.500 DampFc=1.0000 IDamp=-1.
 RMSDP=2.43D-02 MaxDP=5.59D-01              OVMax= 1.91D-01

 Cycle   2  Pass 1  IDiag  1:
 E= -254.871849018297     Delta-E=        0.050321019506 Rises=F Damp=F
 DIIS: error= 5.23D-02 at cycle   2 NSaved=   2.
 NSaved= 2 IEnMin= 1 EnMin= -254.922170037803     IErMin= 1 ErrMin= 4.54D-02
 ErrMax= 5.23D-02  0.00D+00 EMaxC= 1.00D-01 BMatC= 3.19D-01 BMatP= 2.65D-01
 IDIUse=2 WtCom= 0.00D+00 WtEn= 1.00D+00
 Coeff-En:   0.561D+00 0.439D+00
 Coeff:      0.561D+00 0.439D+00
 Gap=     0.409 Goal=   None    Shift=    0.000
 RMSDP=7.21D-03 MaxDP=9.71D-02 DE= 5.03D-02 OVMax= 1.07D-01

 Cycle   3  Pass 1  IDiag  1:
 E= -255.092603589513     Delta-E=       -0.220754571215 Rises=F Damp=F
 DIIS: error= 3.26D-03 at cycle   3 NSaved=   3.
 NSaved= 3 IEnMin= 3 EnMin= -255.092603589513     IErMin= 3 ErrMin= 3.26D-03
 ErrMax= 3.26D-03  0.00D+00 EMaxC= 1.00D-01 BMatC= 1.11D-03 BMatP= 2.65D-01
 IDIUse=3 WtCom= 9.67D-01 WtEn= 3.26D-02
 Coeff-Com: -0.621D-02-0.618D-01 0.107D+01
 Coeff-En:   0.000D+00 0.000D+00 0.100D+01
 Coeff:     -0.600D-02-0.598D-01 0.107D+01
 Gap=     0.361 Goal=   None    Shift=    0.000
 RMSDP=2.57D-03 MaxDP=5.85D-02 DE=-2.21D-01 OVMax= 8.87D-03

 Cycle   4  Pass 1  IDiag  1:
 E= -255.093505506389     Delta-E=       -0.000901916876 Rises=F Damp=F
 DIIS: error= 1.04D-03 at cycle   4 NSaved=   4.
 NSaved= 4 IEnMin= 4 EnMin= -255.093505506389     IErMin= 4 ErrMin= 1.04D-03
 ErrMax= 1.04D-03  0.00D+00 EMaxC= 1.00D-01 BMatC= 1.18D-04 BMatP= 1.11D-03
 IDIUse=3 WtCom= 9.90D-01 WtEn= 1.04D-02
 Coeff-Com: -0.793D-02-0.327D-01 0.441D+00 0.599D+00
 Coeff-En:   0.000D+00 0.000D+00 0.000D+00 0.100D+01
 Coeff:     -0.785D-02-0.323D-01 0.437D+00 0.604D+00
 Gap=     0.362 Goal=   None    Shift=    0.000
 RMSDP=4.80D-04 MaxDP=1.02D-02 DE=-9.02D-04 OVMax= 3.15D-03

 Cycle   5  Pass 1  IDiag  1:
 E= -255.093635303697     Delta-E=       -0.000129797308 Rises=F Damp=F
 DIIS: error= 2.94D-04 at cycle   5 NSaved=   5.
 NSaved= 5 IEnMin= 5 EnMin= -255.093635303697     IErMin= 5 ErrMin= 2.94D-04
 ErrMax= 2.94D-04  0.00D+00 EMaxC= 1.00D-01 BMatC= 6.66D-06 BMatP= 1.18D-04
 IDIUse=3 WtCom= 9.97D-01 WtEn= 2.94D-03
 Coeff-Com: -0.101D-02-0.701D-03-0.581D-01 0.434D-01 0.102D+01
 Coeff-En:   0.000D+00 0.000D+00 0.000D+00 0.000D+00 0.100D+01
 Coeff:     -0.101D-02-0.699D-03-0.580D-01 0.433D-01 0.102D+01
 Gap=     0.362 Goal=   None    Shift=    0.000
 RMSDP=3.03D-04 MaxDP=6.16D-03 DE=-1.30D-04 OVMax= 2.45D-03

 Cycle   6  Pass 1  IDiag  1:
 E= -255.093647036890     Delta-E=       -0.000011733193 Rises=F Damp=F
 DIIS: error= 2.02D-04 at cycle   6 NSaved=   6.
 NSaved= 6 IEnMin= 6 EnMin= -255.093647036890     IErMin= 6 ErrMin= 2.02D-04
 ErrMax= 2.02D-04  0.00D+00 EMaxC= 1.00D-01 BMatC= 2.56D-06 BMatP= 6.66D-06
 IDIUse=3 WtCom= 9.98D-01 WtEn= 2.02D-03
 Coeff-Com:  0.567D-03 0.371D-02-0.871D-01-0.674D-01 0.531D+00 0.619D+00
 Coeff-En:   0.000D+00 0.000D+00 0.000D+00 0.000D+00 0.000D+00 0.100D+01
 Coeff:      0.566D-03 0.370D-02-0.869D-01-0.672D-01 0.530D+00 0.620D+00
 Gap=     0.362 Goal=   None    Shift=    0.000
 RMSDP=8.24D-05 MaxDP=1.64D-03 DE=-1.17D-05 OVMax= 4.85D-04

 Cycle   7  Pass 1  IDiag  1:
 E= -255.093649918899     Delta-E=       -0.000002882009 Rises=F Damp=F
 DIIS: error= 1.77D-05 at cycle   7 NSaved=   7.
 NSaved= 7 IEnMin= 7 EnMin= -255.093649918899     IErMin= 7 ErrMin= 1.77D-05
 ErrMax= 1.77D-05  0.00D+00 EMaxC= 1.00D-01 BMatC= 3.91D-08 BMatP= 2.56D-06
 IDIUse=1 WtCom= 1.00D+00 WtEn= 0.00D+00
 Coeff-Com:  0.130D-03 0.199D-03-0.296D-02-0.106D-01-0.463D-02 0.113D-01
 Coeff-Com:  0.101D+01
 Coeff:      0.130D-03 0.199D-03-0.296D-02-0.106D-01-0.463D-02 0.113D-01
 Coeff:      0.101D+01
 Gap=     0.362 Goal=   None    Shift=    0.000
 RMSDP=1.74D-05 MaxDP=3.33D-04 DE=-2.88D-06 OVMax= 1.70D-04

 Cycle   8  Pass 1  IDiag  1:
 E= -255.093649994796     Delta-E=       -0.000000075897 Rises=F Damp=F
 DIIS: error= 2.15D-05 at cycle   8 NSaved=   8.
 NSaved= 8 IEnMin= 8 EnMin= -255.093649994796     IErMin= 7 ErrMin= 1.77D-05
 ErrMax= 2.15D-05  0.00D+00 EMaxC= 1.00D-01 BMatC= 1.74D-08 BMatP= 3.91D-08
 IDIUse=1 WtCom= 1.00D+00 WtEn= 0.00D+00
 Coeff-Com: -0.361D-05-0.324D-03 0.802D-02 0.179D-02-0.545D-01-0.698D-01
 Coeff-Com:  0.465D+00 0.650D+00
 Coeff:     -0.361D-05-0.324D-03 0.802D-02 0.179D-02-0.545D-01-0.698D-01
 Coeff:      0.465D+00 0.650D+00
 Gap=     0.362 Goal=   None    Shift=    0.000
 RMSDP=6.58D-06 MaxDP=1.34D-04 DE=-7.59D-08 OVMax= 7.79D-05

 Cycle   9  Pass 1  IDiag  1:
 E= -255.093650016463     Delta-E=       -0.000000021667 Rises=F Damp=F
 DIIS: error= 3.27D-06 at cycle   9 NSaved=   9.
 NSaved= 9 IEnMin= 9 EnMin= -255.093650016463     IErMin= 9 ErrMin= 3.27D-06
 ErrMax= 3.27D-06  0.00D+00 EMaxC= 1.00D-01 BMatC= 7.92D-10 BMatP= 1.74D-08
 IDIUse=1 WtCom= 1.00D+00 WtEn= 0.00D+00
 Coeff-Com: -0.660D-05-0.219D-04 0.571D-03 0.501D-03-0.846D-03-0.111D-01
 Coeff-Com: -0.701D-01 0.915D-01 0.990D+00
 Coeff:     -0.660D-05-0.219D-04 0.571D-03 0.501D-03-0.846D-03-0.111D-01
 Coeff:     -0.701D-01 0.915D-01 0.990D+00
 Gap=     0.362 Goal=   None    Shift=    0.000
 RMSDP=3.02D-06 MaxDP=6.03D-05 DE=-2.17D-08 OVMax= 2.15D-05

 Cycle  10  Pass 1  IDiag  1:
 E= -255.093650017782     Delta-E=       -0.000000001320 Rises=F Damp=F
 DIIS: error= 5.53D-07 at cycle  10 NSaved=  10.
 NSaved=10 IEnMin=10 EnMin= -255.093650017782     IErMin=10 ErrMin= 5.53D-07
 ErrMax= 5.53D-07  0.00D+00 EMaxC= 1.00D-01 BMatC= 4.91D-11 BMatP= 7.92D-10
 IDIUse=1 WtCom= 1.00D+00 WtEn= 0.00D+00
 Coeff-Com:  0.469D-06 0.190D-04-0.389D-03-0.893D-04 0.358D-02 0.352D-03
 Coeff-Com: -0.481D-01-0.705D-02 0.276D+00 0.776D+00
 Coeff:      0.469D-06 0.190D-04-0.389D-03-0.893D-04 0.358D-02 0.352D-03
 Coeff:     -0.481D-01-0.705D-02 0.276D+00 0.776D+00
 Gap=     0.362 Goal=   None    Shift=    0.000
 RMSDP=4.34D-07 MaxDP=5.44D-06 DE=-1.32D-09 OVMax= 5.14D-06

 Cycle  11  Pass 1  IDiag  1:
 E= -255.093650017869     Delta-E=       -0.000000000086 Rises=F Damp=F
 DIIS: error= 1.51D-07 at cycle  11 NSaved=  11.
 NSaved=11 IEnMin=11 EnMin= -255.093650017869     IErMin=11 ErrMin= 1.51D-07
 ErrMax= 1.51D-07  0.00D+00 EMaxC= 1.00D-01 BMatC= 2.32D-12 BMatP= 4.91D-11
 IDIUse=1 WtCom= 1.00D+00 WtEn= 0.00D+00
 Coeff-Com:  0.404D-06 0.132D-06-0.373D-04-0.355D-04 0.679D-04 0.813D-03
 Coeff-Com:  0.663D-02-0.386D-02-0.999D-01-0.563D-01 0.115D+01
 Coeff:      0.404D-06 0.132D-06-0.373D-04-0.355D-04 0.679D-04 0.813D-03
 Coeff:      0.663D-02-0.386D-02-0.999D-01-0.563D-01 0.115D+01
 Gap=     0.362 Goal=   None    Shift=    0.000
 RMSDP=1.77D-07 MaxDP=2.18D-06 DE=-8.63D-11 OVMax= 2.33D-06

 Cycle  12  Pass 1  IDiag  1:
 E= -255.093650017878     Delta-E=       -0.000000000010 Rises=F Damp=F
 DIIS: error= 4.35D-08 at cycle  12 NSaved=  12.
 NSaved=12 IEnMin=12 EnMin= -255.093650017878     IErMin=12 ErrMin= 4.35D-08
 ErrMax= 4.35D-08  0.00D+00 EMaxC= 1.00D-01 BMatC= 9.78D-14 BMatP= 2.32D-12
 IDIUse=1 WtCom= 1.00D+00 WtEn= 0.00D+00
 Coeff-Com: -0.170D-07-0.826D-06 0.178D-04 0.711D-05-0.139D-03-0.549D-04
 Coeff-Com:  0.104D-02 0.178D-02-0.268D-02-0.261D-01-0.135D+00 0.116D+01
 Coeff:     -0.170D-07-0.826D-06 0.178D-04 0.711D-05-0.139D-03-0.549D-04
 Coeff:      0.104D-02 0.178D-02-0.268D-02-0.261D-01-0.135D+00 0.116D+01
 Gap=     0.362 Goal=   None    Shift=    0.000
 RMSDP=4.48D-08 MaxDP=7.13D-07 DE=-9.83D-12 OVMax= 4.99D-07

 Cycle  13  Pass 1  IDiag  1:
 E= -255.093650017877     Delta-E=        0.000000000002 Rises=F Damp=F
 DIIS: error= 4.68D-09 at cycle  13 NSaved=  13.
 NSaved=13 IEnMin=12 EnMin= -255.093650017878     IErMin=13 ErrMin= 4.68D-09
 ErrMax= 4.68D-09  0.00D+00 EMaxC= 1.00D-01 BMatC= 2.89D-15 BMatP= 9.78D-14
 IDIUse=1 WtCom= 1.00D+00 WtEn= 0.00D+00
 Coeff-Com: -0.231D-07 0.611D-07 0.121D-05 0.125D-06 0.150D-06-0.350D-04
 Coeff-Com: -0.347D-03 0.115D-03 0.452D-02 0.534D-02-0.408D-01-0.988D-01
 Coeff-Com:  0.113D+01
 Coeff:     -0.231D-07 0.611D-07 0.121D-05 0.125D-06 0.150D-06-0.350D-04
 Coeff:     -0.347D-03 0.115D-03 0.452D-02 0.534D-02-0.408D-01-0.988D-01
 Coeff:      0.113D+01
 Gap=     0.362 Goal=   None    Shift=    0.000
 RMSDP=8.79D-09 MaxDP=1.43D-07 DE= 1.93D-12 OVMax= 1.04D-07

 SCF Done:  E(RwB97XD) =  -255.093650018     A.U. after   13 cycles
            NFock= 13  Conv=0.88D-08     -V/T= 2.0059
 KE= 2.536048307291D+02 PE=-9.107202857936D+02 EE= 2.454992665450D+02
 Leave Link  502 at Wed May 12 11:56:08 2021, MaxMem=  2147483648 cpu:        12.8
 (Enter /opt/cluster/programs/g09_d.01/g09/l601.exe)
 Copying SCF densities to generalized density rwf, IOpCl= 0 IROHF=0.

 **********************************************************************

            Population analysis using the SCF density.

 **********************************************************************

 Orbital symmetries:
       Occupied  (A) (A) (A) (A) (A) (A) (A) (A) (A) (A) (A) (A)
                 (A) (A) (A) (A) (A) (A) (A)
       Virtual   (A) (A) (A) (A) (A) (A) (A) (A) (A) (A) (A) (A)
                 (A) (A) (A) (A) (A) (A) (A) (A) (A) (A) (A) (A)
                 (A) (A) (A) (A) (A) (A) (A) (A) (A) (A) (A) (A)
                 (A) (A) (A) (A) (A) (A) (A) (A) (A) (A) (A) (A)
                 (A) (A) (A) (A) (A) (A) (A) (A)
 The electronic state is 1-A.
 Alpha  occ. eigenvalues --  -24.82619 -10.40297 -10.33129 -10.31969 -10.31032
 Alpha  occ. eigenvalues --   -1.30101  -0.92642  -0.86256  -0.73298  -0.65966
 Alpha  occ. eigenvalues --   -0.59986  -0.58169  -0.55400  -0.52082  -0.50679
 Alpha  occ. eigenvalues --   -0.48320  -0.45279  -0.39339  -0.33788
 Alpha virt. eigenvalues --    0.02409   0.06608   0.08031   0.08923   0.09918
 Alpha virt. eigenvalues --    0.11520   0.11835   0.13286   0.13773   0.14292
 Alpha virt. eigenvalues --    0.15739   0.17263   0.18042   0.18809   0.20035
 Alpha virt. eigenvalues --    0.20670   0.23212   0.24565   0.26032   0.27949
 Alpha virt. eigenvalues --    0.29139   0.30772   0.32589   0.38950   0.41774
 Alpha virt. eigenvalues --    0.42539   0.43045   0.46620   0.48299   0.50044
 Alpha virt. eigenvalues --    0.50865   0.68132   0.74252   0.77837   0.78397
 Alpha virt. eigenvalues --    0.79927   0.82863   0.85282   0.89171   0.93080
 Alpha virt. eigenvalues --    0.95075   1.02021   1.04700   1.08347   1.12399
 Alpha virt. eigenvalues --    1.13859   1.16336   1.22036   1.27391   1.32213
 Alpha virt. eigenvalues --    1.38181   1.42342   1.67234   1.82456   1.85070
 Alpha virt. eigenvalues --    2.36240
          Condensed to atoms (all electrons):
               1          2          3          4          5          6
     1  C    6.095280   0.153291  -0.414890   0.028532   0.376309   0.329263
     2  C    0.153291   5.289814   0.270629  -0.092602  -0.035688  -0.011603
     3  C   -0.414890   0.270629   5.779884   0.318155   0.009936   0.020815
     4  C    0.028532  -0.092602   0.318155   5.379117   0.002251   0.001203
     5  H    0.376309  -0.035688   0.009936   0.002251   0.451065  -0.019744
     6  H    0.329263  -0.011603   0.020815   0.001203  -0.019744   0.466892
     7  F   -0.154286   0.296652  -0.147850   0.003362  -0.003634   0.004014
     8  H    0.010306  -0.027364   0.353749  -0.024940  -0.000001   0.000085
     9  H   -0.000294   0.004142  -0.044171   0.385161  -0.000003   0.000000
    10  H    0.002503   0.014513  -0.026078   0.359953   0.000001  -0.000002
               7          8          9         10
     1  C   -0.154286   0.010306  -0.000294   0.002503
     2  C    0.296652  -0.027364   0.004142   0.014513
     3  C   -0.147850   0.353749  -0.044171  -0.026078
     4  C    0.003362  -0.024940   0.385161   0.359953
     5  H   -0.003634  -0.000001  -0.000003   0.000001
     6  H    0.004014   0.000085   0.000000  -0.000002
     7  F    9.296600   0.003639  -0.000239  -0.000004
     8  H    0.003639   0.461810   0.002532  -0.003879
     9  H   -0.000239   0.002532   0.460972  -0.023315
    10  H   -0.000004  -0.003879  -0.023315   0.477747
 Mulliken charges:
               1
     1  C   -0.426015
     2  C    0.138215
     3  C   -0.120180
     4  C   -0.360192
     5  H    0.219509
     6  H    0.209077
     7  F   -0.298253
     8  H    0.224065
     9  H    0.215214
    10  H    0.198561
 Sum of Mulliken charges =   0.00000
 Mulliken charges with hydrogens summed into heavy atoms:
               1
     1  C    0.002571
     2  C    0.138215
     3  C    0.103885
     4  C    0.053582
     7  F   -0.298253
 Electronic spatial extent (au):  <R**2>=            427.3402
 Charge=              0.0000 electrons
 Dipole moment (field-independent basis, Debye):
    X=              0.8632    Y=             -2.1767    Z=             -0.2301  Tot=              2.3529
 Quadrupole moment (field-independent basis, Debye-Ang):
   XX=            -25.4008   YY=            -31.2108   ZZ=            -30.6439
   XY=              1.5779   XZ=              0.5060   YZ=             -1.7981
 Traceless Quadrupole moment (field-independent basis, Debye-Ang):
   XX=              3.6844   YY=             -2.1256   ZZ=             -1.5587
   XY=              1.5779   XZ=              0.5060   YZ=             -1.7981
 Octapole moment (field-independent basis, Debye-Ang**2):
  XXX=             -1.8400  YYY=              2.4134  ZZZ=              1.2703  XYY=             -1.2946
  XXY=              0.5201  XXZ=             -3.4603  XZZ=             -0.0002  YZZ=              4.0439
  YYZ=              0.2709  XYZ=             -3.2089
 Hexadecapole moment (field-independent basis, Debye-Ang**3):
 XXXX=           -317.8733 YYYY=           -137.3805 ZZZZ=            -55.4911 XXXY=             -9.6343
 XXXZ=              3.8663 YYYX=              0.6400 YYYZ=             -1.5605 ZZZX=             -1.4713
 ZZZY=             -2.8890 XXYY=            -84.7824 XXZZ=            -72.6329 YYZZ=            -32.0850
 XXYZ=             -2.6066 YYXZ=              2.1245 ZZXY=             -3.1531
 N-N= 1.565225385016D+02 E-N=-9.107202860047D+02  KE= 2.536048307291D+02
 No NMR shielding tensors so no spin-rotation constants.
 Leave Link  601 at Wed May 12 11:56:08 2021, MaxMem=  2147483648 cpu:         0.6
 (Enter /opt/cluster/programs/g09_d.01/g09/l701.exe)
 Compute integral first derivatives.
 ... and contract with generalized density number  0.
 R6Disp: Adding Grimme-D2 dispersion energy 1st derivatives to the gradient.
 Leave Link  701 at Wed May 12 11:56:08 2021, MaxMem=  2147483648 cpu:         0.6
 (Enter /opt/cluster/programs/g09_d.01/g09/l702.exe)
 L702 exits ... SP integral derivatives will be done elsewhere.
 Leave Link  702 at Wed May 12 11:56:08 2021, MaxMem=  2147483648 cpu:         0.2
 (Enter /opt/cluster/programs/g09_d.01/g09/l703.exe)
 Compute integral first derivatives, UseDBF=F ICtDFT=           0.
 Integral derivatives from FoFJK, PRISM(SPDF).
 Calling FoFJK, ICntrl=      2127 FMM=F ISym2X=0 I1Cent= 0 IOpClX= 0 NMat=1 NMatS=1 NMatT=0.
 FoFJK:  IHMeth= 1 ICntrl=    2127 DoSepK=T KAlg= 0 I1Cent=   0 FoldK=F
 IRaf=         1 NMat=   1 IRICut=       1 DoRegI=T DoRafI=F ISym2E= 0.
 FoFCou: FMM=F IPFlag=           0 FMFlag=      100000 FMFlg1=         800
         NFxFlg=           0 DoJE=F BraDBF=F KetDBF=F FulRan=T
         wScrn=  0.000000 ICntrl=    2527 IOpCl=  0 I1Cent=           0 NGrid=           0
         NMat0=    1 NMatS0=      1 NMatT0=    0 NMatD0=    1 NMtDS0=    0 NMtDT0=    0
 Symmetry not used in FoFCou.
 Leave Link  703 at Wed May 12 11:56:08 2021, MaxMem=  2147483648 cpu:         3.3
 (Enter /opt/cluster/programs/g09_d.01/g09/l716.exe)
 Dipole        = 3.39616132D-01-8.56380819D-01-9.05390710D-02
 ***** Axes restored to original set *****
 -------------------------------------------------------------------
 Center     Atomic                   Forces (Hartrees/Bohr)
 Number     Number              X              Y              Z
 -------------------------------------------------------------------
      1        6           0.002554750    0.001689134    0.006594560
      2        6          -0.002751821    0.006931665   -0.009071359
      3        6           0.003237785   -0.005705158   -0.003898961
      4        6          -0.003839181    0.002389732    0.005375257
      5        1           0.000707009    0.000250326    0.000243828
      6        1           0.000623442    0.000556254    0.000057149
      7        9           0.000870863   -0.006504676    0.000332358
      8        1          -0.000194410    0.000807149   -0.000190322
      9        1          -0.000448038   -0.000277859    0.000378740
     10        1          -0.000760398   -0.000136566    0.000178749
 -------------------------------------------------------------------
 Cartesian Forces:  Max     0.009071359 RMS     0.003389368
 Leave Link  716 at Wed May 12 11:56:08 2021, MaxMem=  2147483648 cpu:         0.2
 (Enter /opt/cluster/programs/g09_d.01/g09/l103.exe)

 GradGradGradGradGradGradGradGradGradGradGradGradGradGradGradGradGradGrad
 Berny optimization.
 FormGI is forming the generalized inverse of G from B-inverse, IUseBI=4.
 Internal  Forces:  Max     0.006559944 RMS     0.002350614
 Search for a local minimum.
 Step number   1 out of a maximum of   43
 All quantities printed in internal units (Hartrees-Bohrs-Radians)
 RMS Force = .20165D-02 SwitMx=.10000D-02 MixMth= 1
 Mixed Optimization -- RFO/linear search
 Second derivative matrix not updated -- first step.
 ITU=  0
     Eigenvalues ---    0.01607   0.02077   0.02852   0.02854   0.02975
     Eigenvalues ---    0.02976   0.15957   0.16000   0.16000   0.16000
     Eigenvalues ---    0.16000   0.22010   0.24911   0.25000   0.34952
     Eigenvalues ---    0.35257   0.35343   0.35383   0.35547   0.35611
     Eigenvalues ---    0.41127   0.56689   0.587991000.000001000.00000
     Eigenvalues --- 1000.000001000.000001000.000001000.000001000.00000
     Eigenvalues --- 1000.000001000.000001000.00000
 RFO step:  Lambda=-2.95986556D-04 EMin= 1.60705470D-02
 Linear search not attempted -- first point.
 Iteration  1 RMS(Cart)=  0.01101690 RMS(Int)=  0.00004786
 Iteration  2 RMS(Cart)=  0.00004854 RMS(Int)=  0.00000900
 Iteration  3 RMS(Cart)=  0.00000000 RMS(Int)=  0.00000900
 Iteration  1 RMS(Cart)=  0.00000079 RMS(Int)=  0.00000053
 ITry= 1 IFail=0 DXMaxC= 2.52D-02 DCOld= 1.00D+10 DXMaxT= 3.00D-01 DXLimC= 3.00D+00 Rises=F
 Variable       Old X    -DE/DX   Delta X   Delta X   Delta X     New X
                                 (Linear)    (Quad)   (Total)
    R1        2.51903  -0.00626   0.00000  -0.01064  -0.01064   2.50839
    R2        2.04694  -0.00058   0.00000  -0.00162  -0.00162   2.04532
    R3        2.04796  -0.00050   0.00000  -0.00140  -0.00140   2.04655
    R4        2.78357  -0.00079   0.00000  -0.00224  -0.00224   2.78133
    R5        2.70050  -0.00656   0.00000  -0.01594  -0.01594   2.68456
    R6        2.53661  -0.00631   0.00000  -0.01112  -0.01112   2.52549
    R7        2.05753  -0.00073   0.00000  -0.00210  -0.00210   2.05543
    R8        2.05260  -0.00042   0.00000  -0.00118  -0.00118   2.05142
    R9        2.05122  -0.00063   0.00000  -0.00177  -0.00177   2.04945
    A1        2.11768  -0.00028   0.00000  -0.00174  -0.00174   2.11593
    A2        2.09975  -0.00053   0.00000  -0.00330  -0.00330   2.09645
    A3        2.06563   0.00081   0.00000   0.00509   0.00509   2.07072
    A4        2.26346  -0.00063   0.00000  -0.00238  -0.00241   2.26105
    A5        2.04684   0.00069   0.00000   0.00230   0.00228   2.04912
    A6        1.96745   0.00019   0.00000   0.00140   0.00138   1.96882
    A7        2.16109  -0.00133   0.00000  -0.00612  -0.00613   2.15496
    A8        2.02369   0.00049   0.00000   0.00251   0.00250   2.02619
    A9        2.09476   0.00104   0.00000   0.00436   0.00434   2.09910
   A10        2.12780  -0.00035   0.00000  -0.00215  -0.00215   2.12565
   A11        2.11395  -0.00032   0.00000  -0.00200  -0.00200   2.11196
   A12        2.04114   0.00067   0.00000   0.00418   0.00418   2.04532
    D1       -3.07502  -0.00144   0.00000  -0.00839  -0.00840  -3.08342
    D2       -0.05456   0.00138   0.00000   0.00644   0.00644  -0.04812
    D3        0.08402  -0.00153   0.00000  -0.01139  -0.01139   0.07263
    D4        3.10448   0.00129   0.00000   0.00344   0.00344   3.10792
    D5        2.09459   0.00506   0.00000   0.00000   0.00000   2.09459
    D6       -0.95510   0.00244   0.00000  -0.00971  -0.00971  -0.96480
    D7       -0.93029   0.00232   0.00000  -0.01435  -0.01435  -0.94465
    D8        2.30321  -0.00031   0.00000  -0.02406  -0.02406   2.27915
    D9        0.07161  -0.00135   0.00000  -0.00501  -0.00501   0.06660
   D10       -3.09656  -0.00130   0.00000  -0.00319  -0.00320  -3.09976
   D11        3.11775   0.00135   0.00000   0.00495   0.00496   3.12271
   D12       -0.05042   0.00140   0.00000   0.00677   0.00677  -0.04365
         Item               Value     Threshold  Converged?
 Maximum Force            0.006560     0.000450     NO 
 RMS     Force            0.002017     0.000300     NO 
 Maximum Displacement     0.025183     0.001800     NO 
 RMS     Displacement     0.011029     0.001200     NO 
 Predicted change in Energy=-1.482938D-04
 Lowest energy point so far.  Saving SCF results.
 GradGradGradGradGradGradGradGradGradGradGradGradGradGradGradGradGradGrad

 Leave Link  103 at Wed May 12 11:56:08 2021, MaxMem=  2147483648 cpu:         0.0
 (Enter /opt/cluster/programs/g09_d.01/g09/l202.exe)
                          Input orientation:                          
 ---------------------------------------------------------------------
 Center     Atomic      Atomic             Coordinates (Angstroms)
 Number     Number       Type             X           Y           Z
 ---------------------------------------------------------------------
      1          6           0       -1.547299   -0.846780   -0.237040
      2          6           0       -0.510673   -0.094552    0.111531
      3          6           0        0.882279   -0.485629    0.381688
      4          6           0        1.926377   -0.017649   -0.308891
      5          1           0       -2.511635   -0.406778   -0.455915
      6          1           0       -1.442769   -1.923187   -0.294357
      7          9           0       -0.700343    1.313245    0.127574
      8          1           0        1.025374   -1.253254    1.138881
      9          1           0        1.809551    0.735574   -1.081842
     10          1           0        2.933437   -0.362342   -0.101043
 ---------------------------------------------------------------------
                    Distance matrix (angstroms):
                    1          2          3          4          5
     1  C    0.000000
     2  C    1.327382   0.000000
     3  C    2.533003   1.471816   0.000000
     4  C    3.571981   2.474244   1.336430   0.000000
     5  H    1.082336   2.103170   3.496633   4.457464   0.000000
     6  H    1.082988   2.092237   2.815929   3.870715   1.862276
     7  F    2.348614   1.420608   2.409402   2.976817   2.565096
     8  H    2.945679   2.181164   1.087688   2.105842   3.971187
     9  H    3.806044   2.738008   2.119691   1.085562   4.513247
    10  H    4.508899   3.461039   2.110800   1.084520   5.456804
                    6          7          8          9         10
     6  H    0.000000
     7  F    3.347196   0.000000
     8  H    2.931674   3.253884   0.000000
     9  H    4.273959   2.845340   3.082528   0.000000
    10  H    4.650246   4.008019   2.443735   1.852162   0.000000
 Stoichiometry    C4H5F
 Framework group  C1[X(C4H5F)]
 Deg. of freedom    24
 Full point group                 C1      NOp   1
 RotChk:  IX=0 Diff= 9.39D-03
 Largest Abelian subgroup         C1      NOp   1
 Largest concise Abelian subgroup C1      NOp   1
                         Standard orientation:                         
 ---------------------------------------------------------------------
 Center     Atomic      Atomic             Coordinates (Angstroms)
 Number     Number       Type             X           Y           Z
 ---------------------------------------------------------------------
      1          6           0       -1.545145   -0.851213   -0.233259
      2          6           0       -0.510811   -0.093865    0.111006
      3          6           0        0.883241   -0.479210    0.383719
      4          6           0        1.926080   -0.012261   -0.309457
      5          1           0       -2.510736   -0.415372   -0.454908
      6          1           0       -1.437425   -1.927629   -0.284155
      7          9           0       -0.704642    1.313436    0.118645
      8          1           0        1.028463   -1.241893    1.145487
      9          1           0        1.807172    0.736003   -1.086893
     10          1           0        2.934115   -0.352734   -0.099394
 ---------------------------------------------------------------------
 Rotational constants (GHZ):      8.8994723      4.0954407      3.0311652
 Leave Link  202 at Wed May 12 11:56:08 2021, MaxMem=  2147483648 cpu:         0.0
 (Enter /opt/cluster/programs/g09_d.01/g09/l301.exe)
 Standard basis: 6-31+G (6D, 7F)
 Ernie: Thresh=  0.10000D-02 Tol=  0.10000D-05 Strict=F.
 There are    75 symmetry adapted cartesian basis functions of A   symmetry.
 There are    75 symmetry adapted basis functions of A   symmetry.
    75 basis functions,   150 primitive gaussians,    75 cartesian basis functions
    19 alpha electrons       19 beta electrons
       nuclear repulsion energy       157.0649374910 Hartrees.
 IExCor= 4639 DFT=T Ex+Corr=wB97XD ExCW=0 ScaHFX=  1.000000
 ScaDFX=  1.000000  1.000000  1.000000  1.000000 ScalE2=  1.000000  1.000000
 IRadAn=      0 IRanWt=     -1 IRanGd=            0 ICorTp=0 IEmpDi=121
  HFx wShort=  0.000000 wLong=  0.200000 cFull=  0.222036 cShort=  0.000000 cLong=  0.777964
  DFx wShort=  0.000000 wLong=  0.200000 cFull=  0.000000 cShort=  0.000000 cLong=  1.000000
 NAtoms=   10 NActive=   10 NUniq=   10 SFac= 1.00D+00 NAtFMM=   60 NAOKFM=F Big=F
 Integral buffers will be    131072 words long.
 Raffenetti 2 integral format.
 Two-electron integral symmetry is turned on.
 R6Disp:  Grimme-D2 Dispersion energy=       -0.0029868806 Hartrees.
 Nuclear repulsion after empirical dispersion term =      157.0619506104 Hartrees.
 Leave Link  301 at Wed May 12 11:56:08 2021, MaxMem=  2147483648 cpu:         0.3
 (Enter /opt/cluster/programs/g09_d.01/g09/l302.exe)
 NPDir=0 NMtPBC=     1 NCelOv=     1 NCel=       1 NClECP=     1 NCelD=      1
         NCelK=      1 NCelE2=     1 NClLst=     1 CellRange=     0.0.
 One-electron integrals computed using PRISM.
 NBasis=    75 RedAO= T EigKep=  7.50D-05  NBF=    75
 NBsUse=    75 1.00D-06 EigRej= -1.00D+00 NBFU=    75
 Precomputing XC quadrature grid using
 IXCGrd= 4 IRadAn=           0 IRanWt=          -1 IRanGd=           0 AccXCQ= 0.00D+00.
 Generated NRdTot=       0 NPtTot=           0 NUsed=           0 NTot=          32
 NSgBfM=    75    75    75    75    75 MxSgAt=    10 MxSgA2=    10.
 Leave Link  302 at Wed May 12 11:56:08 2021, MaxMem=  2147483648 cpu:         0.9
 (Enter /opt/cluster/programs/g09_d.01/g09/l303.exe)
 DipDrv:  MaxL=1.
 Leave Link  303 at Wed May 12 11:56:09 2021, MaxMem=  2147483648 cpu:         0.2
 (Enter /opt/cluster/programs/g09_d.01/g09/l401.exe)
 Initial guess from the checkpoint file:  "/home/unibas/boittier/RDKit_G2/B.pdb/SCAN_1_2_3_4_S_17_20.0/15_SCAN_1_2_3_4_F/B.pdb.chk"
 B after Tr=     0.000000    0.000000    0.000000
         Rot=    0.999998    0.001126   -0.000154   -0.001390 Ang=   0.21 deg.
 Guess basis will be translated and rotated to current coordinates.
 JPrj=2 DoOrth=T DoCkMO=T.
 Generating alternative initial guess.
 ExpMin= 4.38D-02 ExpMax= 7.00D+03 ExpMxC= 1.05D+03 IAcc=2 IRadAn=         4 AccDes= 0.00D+00
 Harris functional with IExCor= 4639 and IRadAn=       4 diagonalized for initial guess.
 HarFok:  IExCor= 4639 AccDes= 0.00D+00 IRadAn=         4 IDoV= 1 UseB2=F ITyADJ=14
 ICtDFT=  3500011 ScaDFX=  1.000000  1.000000  1.000000  1.000000
 FoFCou: FMM=F IPFlag=           0 FMFlag=      100000 FMFlg1=           0
         NFxFlg=           0 DoJE=T BraDBF=F KetDBF=T FulRan=T
         wScrn=  0.000000 ICntrl=     500 IOpCl=  0 I1Cent=   200000004 NGrid=           0
         NMat0=    1 NMatS0=      1 NMatT0=    0 NMatD0=    1 NMtDS0=    0 NMtDT0=    0
 Petite list used in FoFCou.
 Harris En= -244.781675359283    
 Leave Link  401 at Wed May 12 11:56:09 2021, MaxMem=  2147483648 cpu:         1.7
 (Enter /opt/cluster/programs/g09_d.01/g09/l502.exe)
 Closed shell SCF:
 Using DIIS extrapolation, IDIIS=  1040.
 Integral symmetry usage will be decided dynamically.
 Keep R1 ints in memory in canonical form, NReq=9056162.
 IVT=       36600 IEndB=       36600 NGot=  2147483648 MDV=  2139321699
 LenX=  2139321699 LenY=  2139315633
 Requested convergence on RMS density matrix=1.00D-08 within 128 cycles.
 Requested convergence on MAX density matrix=1.00D-06.
 Requested convergence on             energy=1.00D-06.
 No special actions if energy rises.
 FoFCou: FMM=F IPFlag=           0 FMFlag=           0 FMFlg1=           0
         NFxFlg=           0 DoJE=F BraDBF=F KetDBF=F FulRan=T
         wScrn=  0.000000 ICntrl=     600 IOpCl=  0 I1Cent=           0 NGrid=           0
         NMat0=    1 NMatS0=   2850 NMatT0=    0 NMatD0=    1 NMtDS0=    0 NMtDT0=    0
 Symmetry not used in FoFCou.

 Cycle   1  Pass 1  IDiag  1:
 E= -255.093685405575    
 DIIS: error= 5.29D-04 at cycle   1 NSaved=   1.
 NSaved= 1 IEnMin= 1 EnMin= -255.093685405575     IErMin= 1 ErrMin= 5.29D-04
 ErrMax= 5.29D-04  0.00D+00 EMaxC= 1.00D-01 BMatC= 6.47D-05 BMatP= 6.47D-05
 IDIUse=3 WtCom= 9.95D-01 WtEn= 5.29D-03
 Coeff-Com:  0.100D+01
 Coeff-En:   0.100D+01
 Coeff:      0.100D+01
 Gap=     0.582 Goal=   None    Shift=    0.000
 RMSDP=4.44D-04 MaxDP=9.40D-03              OVMax= 2.79D-03

 Cycle   2  Pass 1  IDiag  1:
 E= -255.093792785243     Delta-E=       -0.000107379669 Rises=F Damp=F
 DIIS: error= 1.87D-04 at cycle   2 NSaved=   2.
 NSaved= 2 IEnMin= 2 EnMin= -255.093792785243     IErMin= 2 ErrMin= 1.87D-04
 ErrMax= 1.87D-04  0.00D+00 EMaxC= 1.00D-01 BMatC= 4.72D-06 BMatP= 6.47D-05
 IDIUse=3 WtCom= 9.98D-01 WtEn= 1.87D-03
 Coeff-Com: -0.518D-03 0.100D+01
 Coeff-En:   0.000D+00 0.100D+01
 Coeff:     -0.517D-03 0.100D+01
 Gap=     0.365 Goal=   None    Shift=    0.000
 RMSDP=1.20D-04 MaxDP=2.61D-03 DE=-1.07D-04 OVMax= 1.19D-03

 Cycle   3  Pass 1  IDiag  1:
 E= -255.093802073811     Delta-E=       -0.000009288568 Rises=F Damp=F
 DIIS: error= 7.52D-05 at cycle   3 NSaved=   3.
 NSaved= 3 IEnMin= 3 EnMin= -255.093802073811     IErMin= 3 ErrMin= 7.52D-05
 ErrMax= 7.52D-05  0.00D+00 EMaxC= 1.00D-01 BMatC= 1.35D-06 BMatP= 4.72D-06
 IDIUse=1 WtCom= 1.00D+00 WtEn= 0.00D+00
 Coeff-Com: -0.757D-01 0.306D+00 0.770D+00
 Coeff:     -0.757D-01 0.306D+00 0.770D+00
 Gap=     0.365 Goal=   None    Shift=    0.000
 RMSDP=4.39D-05 MaxDP=5.35D-04 DE=-9.29D-06 OVMax= 5.59D-04

 Cycle   4  Pass 1  IDiag  1:
 E= -255.093804061010     Delta-E=       -0.000001987199 Rises=F Damp=F
 DIIS: error= 3.84D-05 at cycle   4 NSaved=   4.
 NSaved= 4 IEnMin= 4 EnMin= -255.093804061010     IErMin= 4 ErrMin= 3.84D-05
 ErrMax= 3.84D-05  0.00D+00 EMaxC= 1.00D-01 BMatC= 1.44D-07 BMatP= 1.35D-06
 IDIUse=1 WtCom= 1.00D+00 WtEn= 0.00D+00
 Coeff-Com: -0.192D-01 0.104D-01 0.221D+00 0.787D+00
 Coeff:     -0.192D-01 0.104D-01 0.221D+00 0.787D+00
 Gap=     0.365 Goal=   None    Shift=    0.000
 RMSDP=1.66D-05 MaxDP=1.96D-04 DE=-1.99D-06 OVMax= 2.55D-04

 Cycle   5  Pass 1  IDiag  1:
 E= -255.093804298122     Delta-E=       -0.000000237112 Rises=F Damp=F
 DIIS: error= 1.85D-05 at cycle   5 NSaved=   5.
 NSaved= 5 IEnMin= 5 EnMin= -255.093804298122     IErMin= 5 ErrMin= 1.85D-05
 ErrMax= 1.85D-05  0.00D+00 EMaxC= 1.00D-01 BMatC= 4.23D-08 BMatP= 1.44D-07
 IDIUse=1 WtCom= 1.00D+00 WtEn= 0.00D+00
 Coeff-Com:  0.101D-01-0.731D-01-0.989D-01 0.366D+00 0.796D+00
 Coeff:      0.101D-01-0.731D-01-0.989D-01 0.366D+00 0.796D+00
 Gap=     0.365 Goal=   None    Shift=    0.000
 RMSDP=9.25D-06 MaxDP=1.45D-04 DE=-2.37D-07 OVMax= 1.29D-04

 Cycle   6  Pass 1  IDiag  1:
 E= -255.093804368664     Delta-E=       -0.000000070542 Rises=F Damp=F
 DIIS: error= 2.43D-06 at cycle   6 NSaved=   6.
 NSaved= 6 IEnMin= 6 EnMin= -255.093804368664     IErMin= 6 ErrMin= 2.43D-06
 ErrMax= 2.43D-06  0.00D+00 EMaxC= 1.00D-01 BMatC= 6.64D-10 BMatP= 4.23D-08
 IDIUse=1 WtCom= 1.00D+00 WtEn= 0.00D+00
 Coeff-Com:  0.117D-02-0.245D-02-0.151D-01-0.204D-01-0.112D-01 0.105D+01
 Coeff:      0.117D-02-0.245D-02-0.151D-01-0.204D-01-0.112D-01 0.105D+01
 Gap=     0.365 Goal=   None    Shift=    0.000
 RMSDP=2.35D-06 MaxDP=3.24D-05 DE=-7.05D-08 OVMax= 3.06D-05

 Cycle   7  Pass 1  IDiag  1:
 E= -255.093804370836     Delta-E=       -0.000000002172 Rises=F Damp=F
 DIIS: error= 1.91D-06 at cycle   7 NSaved=   7.
 NSaved= 7 IEnMin= 7 EnMin= -255.093804370836     IErMin= 7 ErrMin= 1.91D-06
 ErrMax= 1.91D-06  0.00D+00 EMaxC= 1.00D-01 BMatC= 4.11D-10 BMatP= 6.64D-10
 IDIUse=1 WtCom= 1.00D+00 WtEn= 0.00D+00
 Coeff-Com: -0.601D-03 0.796D-02 0.386D-02-0.551D-01-0.102D+00 0.545D+00
 Coeff-Com:  0.601D+00
 Coeff:     -0.601D-03 0.796D-02 0.386D-02-0.551D-01-0.102D+00 0.545D+00
 Coeff:      0.601D+00
 Gap=     0.365 Goal=   None    Shift=    0.000
 RMSDP=7.76D-07 MaxDP=1.46D-05 DE=-2.17D-09 OVMax= 8.93D-06

 Cycle   8  Pass 1  IDiag  1:
 E= -255.093804371254     Delta-E=       -0.000000000419 Rises=F Damp=F
 DIIS: error= 2.90D-07 at cycle   8 NSaved=   8.
 NSaved= 8 IEnMin= 8 EnMin= -255.093804371254     IErMin= 8 ErrMin= 2.90D-07
 ErrMax= 2.90D-07  0.00D+00 EMaxC= 1.00D-01 BMatC= 7.82D-12 BMatP= 4.11D-10
 IDIUse=1 WtCom= 1.00D+00 WtEn= 0.00D+00
 Coeff-Com: -0.103D-03 0.324D-03 0.145D-02-0.695D-03-0.779D-03-0.659D-01
 Coeff-Com:  0.410D-01 0.102D+01
 Coeff:     -0.103D-03 0.324D-03 0.145D-02-0.695D-03-0.779D-03-0.659D-01
 Coeff:      0.410D-01 0.102D+01
 Gap=     0.365 Goal=   None    Shift=    0.000
 RMSDP=1.98D-07 MaxDP=2.48D-06 DE=-4.19D-10 OVMax= 3.80D-06

 Cycle   9  Pass 1  IDiag  1:
 E= -255.093804371272     Delta-E=       -0.000000000018 Rises=F Damp=F
 DIIS: error= 2.58D-07 at cycle   9 NSaved=   9.
 NSaved= 9 IEnMin= 9 EnMin= -255.093804371272     IErMin= 9 ErrMin= 2.58D-07
 ErrMax= 2.58D-07  0.00D+00 EMaxC= 1.00D-01 BMatC= 2.66D-12 BMatP= 7.82D-12
 IDIUse=1 WtCom= 1.00D+00 WtEn= 0.00D+00
 Coeff-Com:  0.876D-06-0.511D-03 0.375D-03 0.447D-02 0.837D-02-0.818D-01
 Coeff-Com: -0.337D-01 0.502D+00 0.601D+00
 Coeff:      0.876D-06-0.511D-03 0.375D-03 0.447D-02 0.837D-02-0.818D-01
 Coeff:     -0.337D-01 0.502D+00 0.601D+00
 Gap=     0.365 Goal=   None    Shift=    0.000
 RMSDP=5.08D-08 MaxDP=5.47D-07 DE=-1.80D-11 OVMax= 8.86D-07

 Cycle  10  Pass 1  IDiag  1:
 E= -255.093804371278     Delta-E=       -0.000000000005 Rises=F Damp=F
 DIIS: error= 3.44D-08 at cycle  10 NSaved=  10.
 NSaved=10 IEnMin=10 EnMin= -255.093804371278     IErMin=10 ErrMin= 3.44D-08
 ErrMax= 3.44D-08  0.00D+00 EMaxC= 1.00D-01 BMatC= 8.17D-14 BMatP= 2.66D-12
 IDIUse=1 WtCom= 1.00D+00 WtEn= 0.00D+00
 Coeff-Com:  0.153D-04-0.141D-03-0.160D-03 0.102D-02 0.153D-02-0.519D-02
 Coeff-Com: -0.112D-01-0.572D-01 0.657D-01 0.101D+01
 Coeff:      0.153D-04-0.141D-03-0.160D-03 0.102D-02 0.153D-02-0.519D-02
 Coeff:     -0.112D-01-0.572D-01 0.657D-01 0.101D+01
 Gap=     0.365 Goal=   None    Shift=    0.000
 RMSDP=3.32D-08 MaxDP=5.43D-07 DE=-5.23D-12 OVMax= 4.80D-07

 Cycle  11  Pass 1  IDiag  1:
 E= -255.093804371277     Delta-E=        0.000000000000 Rises=F Damp=F
 DIIS: error= 8.78D-09 at cycle  11 NSaved=  11.
 NSaved=11 IEnMin=10 EnMin= -255.093804371278     IErMin=11 ErrMin= 8.78D-09
 ErrMax= 8.78D-09  0.00D+00 EMaxC= 1.00D-01 BMatC= 8.85D-15 BMatP= 8.17D-14
 IDIUse=1 WtCom= 1.00D+00 WtEn= 0.00D+00
 Coeff-Com:  0.175D-05 0.161D-04-0.480D-04-0.168D-03-0.369D-03 0.494D-02
 Coeff-Com:  0.129D-02-0.435D-01-0.398D-01 0.156D+00 0.921D+00
 Coeff:      0.175D-05 0.161D-04-0.480D-04-0.168D-03-0.369D-03 0.494D-02
 Coeff:      0.129D-02-0.435D-01-0.398D-01 0.156D+00 0.921D+00
 Gap=     0.365 Goal=   None    Shift=    0.000
 RMSDP=9.59D-09 MaxDP=1.55D-07 DE= 3.41D-13 OVMax= 1.07D-07

 SCF Done:  E(RwB97XD) =  -255.093804371     A.U. after   11 cycles
            NFock= 11  Conv=0.96D-08     -V/T= 2.0056
 KE= 2.536665694302D+02 PE=-9.118422647473D+02 EE= 2.460199403354D+02
 Leave Link  502 at Wed May 12 11:56:10 2021, MaxMem=  2147483648 cpu:        11.3
 (Enter /opt/cluster/programs/g09_d.01/g09/l701.exe)
 Compute integral first derivatives.
 ... and contract with generalized density number  0.
 R6Disp: Adding Grimme-D2 dispersion energy 1st derivatives to the gradient.
 Leave Link  701 at Wed May 12 11:56:10 2021, MaxMem=  2147483648 cpu:         0.6
 (Enter /opt/cluster/programs/g09_d.01/g09/l702.exe)
 L702 exits ... SP integral derivatives will be done elsewhere.
 Leave Link  702 at Wed May 12 11:56:10 2021, MaxMem=  2147483648 cpu:         0.2
 (Enter /opt/cluster/programs/g09_d.01/g09/l703.exe)
 Compute integral first derivatives, UseDBF=F ICtDFT=           0.
 Integral derivatives from FoFJK, PRISM(SPDF).
 Calling FoFJK, ICntrl=      2127 FMM=F ISym2X=0 I1Cent= 0 IOpClX= 0 NMat=1 NMatS=1 NMatT=0.
 FoFJK:  IHMeth= 1 ICntrl=    2127 DoSepK=T KAlg= 0 I1Cent=   0 FoldK=F
 IRaf=         1 NMat=   1 IRICut=       1 DoRegI=T DoRafI=F ISym2E= 0.
 FoFCou: FMM=F IPFlag=           0 FMFlag=      100000 FMFlg1=         800
         NFxFlg=           0 DoJE=F BraDBF=F KetDBF=F FulRan=T
         wScrn=  0.000000 ICntrl=    2527 IOpCl=  0 I1Cent=           0 NGrid=           0
         NMat0=    1 NMatS0=      1 NMatT0=    0 NMatD0=    1 NMtDS0=    0 NMtDT0=    0
 Symmetry not used in FoFCou.
 Leave Link  703 at Wed May 12 11:56:11 2021, MaxMem=  2147483648 cpu:         3.3
 (Enter /opt/cluster/programs/g09_d.01/g09/l716.exe)
 Dipole        = 3.41579733D-01-8.38824285D-01-8.43919693D-02
 ***** Axes restored to original set *****
 -------------------------------------------------------------------
 Center     Atomic                   Forces (Hartrees/Bohr)
 Number     Number              X              Y              Z
 -------------------------------------------------------------------
      1        6          -0.001718166   -0.001921813    0.004668152
      2        6           0.001086322    0.006402822   -0.006183700
      3        6          -0.000974280   -0.006866596   -0.001083314
      4        6           0.001087291    0.003824249    0.002580119
      5        1          -0.000042052   -0.000002659    0.000009912
      6        1           0.000041872    0.000023869   -0.000121465
      7        9           0.000486653   -0.001656519    0.000166823
      8        1          -0.000102582    0.000115908    0.000101852
      9        1           0.000009320   -0.000013112   -0.000056883
     10        1           0.000125621    0.000093852   -0.000081497
 -------------------------------------------------------------------
 Cartesian Forces:  Max     0.006866596 RMS     0.002474437
 Leave Link  716 at Wed May 12 11:56:11 2021, MaxMem=  2147483648 cpu:         0.2
 (Enter /opt/cluster/programs/g09_d.01/g09/l103.exe)

 GradGradGradGradGradGradGradGradGradGradGradGradGradGradGradGradGradGrad
 Berny optimization.
 Using GEDIIS/GDIIS optimizer.
 FormGI is forming the generalized inverse of G from B-inverse, IUseBI=4.
 Internal  Forces:  Max     0.004750140 RMS     0.001284572
 Search for a local minimum.
 Step number   2 out of a maximum of   43
 All quantities printed in internal units (Hartrees-Bohrs-Radians)
 RMS Force = .51461D-03 SwitMx=.10000D-02 MixMth= 2
 Mixed Optimization -- En-DIIS/RFO-DIIS
 Update second derivatives using D2CorX and points    1    2
 DE= -1.54D-04 DEPred=-1.48D-04 R= 1.04D+00
 TightC=F SS=  1.41D+00  RLast= 4.35D-02 DXNew= 5.0454D-01 1.3041D-01
 Trust test= 1.04D+00 RLast= 4.35D-02 DXMaxT set to 3.00D-01
 ITU=  1  0
 Use linear search instead of GDIIS.
     Eigenvalues ---    0.01513   0.02075   0.02852   0.02855   0.02960
     Eigenvalues ---    0.02975   0.15848   0.15979   0.16000   0.16000
     Eigenvalues ---    0.16127   0.21502   0.24176   0.24954   0.33771
     Eigenvalues ---    0.35037   0.35273   0.35396   0.35570   0.35715
     Eigenvalues ---    0.37447   0.57598   0.713161000.000001000.00000
     Eigenvalues --- 1000.000001000.000001000.000001000.000001000.00000
     Eigenvalues --- 1000.000001000.000001000.00000
 RFO step:  Lambda=-2.82645618D-05 EMin= 1.51281735D-02
 Quartic linear search produced a step of  0.04639.
 Iteration  1 RMS(Cart)=  0.00485819 RMS(Int)=  0.00001555
 Iteration  2 RMS(Cart)=  0.00001526 RMS(Int)=  0.00000344
 Iteration  3 RMS(Cart)=  0.00000000 RMS(Int)=  0.00000344
 Iteration  1 RMS(Cart)=  0.00000124 RMS(Int)=  0.00000084
 Iteration  2 RMS(Cart)=  0.00000063 RMS(Int)=  0.00000094
 ITry= 1 IFail=0 DXMaxC= 1.30D-02 DCOld= 1.00D+10 DXMaxT= 3.00D-01 DXLimC= 3.00D+00 Rises=F
 Variable       Old X    -DE/DX   Delta X   Delta X   Delta X     New X
                                 (Linear)    (Quad)   (Total)
    R1        2.50839   0.00122  -0.00049   0.00166   0.00116   2.50955
    R2        2.04532   0.00003  -0.00008   0.00002  -0.00005   2.04527
    R3        2.04655  -0.00001  -0.00007  -0.00011  -0.00017   2.04638
    R4        2.78133   0.00116  -0.00010   0.00333   0.00323   2.78456
    R5        2.68456  -0.00170  -0.00074  -0.00510  -0.00584   2.67872
    R6        2.52549   0.00106  -0.00052   0.00142   0.00090   2.52639
    R7        2.05543  -0.00003  -0.00010  -0.00018  -0.00028   2.05516
    R8        2.05142   0.00003  -0.00005   0.00002  -0.00003   2.05139
    R9        2.04945   0.00007  -0.00008   0.00013   0.00005   2.04949
    A1        2.11593   0.00003  -0.00008   0.00014   0.00006   2.11599
    A2        2.09645  -0.00003  -0.00015  -0.00033  -0.00049   2.09596
    A3        2.07072   0.00000   0.00024   0.00023   0.00047   2.07118
    A4        2.26105  -0.00080  -0.00011  -0.00359  -0.00371   2.25734
    A5        2.04912   0.00101   0.00011   0.00367   0.00377   2.05289
    A6        1.96882  -0.00001   0.00006   0.00034   0.00040   1.96922
    A7        2.15496  -0.00007  -0.00028  -0.00075  -0.00104   2.15392
    A8        2.02619  -0.00011   0.00012  -0.00022  -0.00011   2.02608
    A9        2.09910   0.00035   0.00020   0.00146   0.00165   2.10075
   A10        2.12565  -0.00007  -0.00010  -0.00057  -0.00067   2.12499
   A11        2.11196   0.00019  -0.00009   0.00118   0.00108   2.11304
   A12        2.04532  -0.00012   0.00019  -0.00058  -0.00039   2.04494
    D1       -3.08342  -0.00124  -0.00039  -0.00331  -0.00370  -3.08712
    D2       -0.04812   0.00121   0.00030   0.00212   0.00243  -0.04570
    D3        0.07263  -0.00133  -0.00053  -0.00637  -0.00691   0.06572
    D4        3.10792   0.00113   0.00016  -0.00095  -0.00078   3.10714
    D5        2.09459   0.00475   0.00000   0.00000   0.00000   2.09459
    D6       -0.96480   0.00232  -0.00045  -0.00695  -0.00740  -0.97220
    D7       -0.94465   0.00233  -0.00067  -0.00541  -0.00607  -0.95072
    D8        2.27915  -0.00009  -0.00112  -0.01236  -0.01347   2.26568
    D9        0.06660  -0.00131  -0.00023  -0.00572  -0.00595   0.06065
   D10       -3.09976  -0.00128  -0.00015  -0.00437  -0.00452  -3.10427
   D11        3.12271   0.00119   0.00023   0.00143   0.00167   3.12437
   D12       -0.04365   0.00123   0.00031   0.00278   0.00310  -0.04055
         Item               Value     Threshold  Converged?
 Maximum Force            0.001701     0.000450     NO 
 RMS     Force            0.000515     0.000300     NO 
 Maximum Displacement     0.013011     0.001800     NO 
 RMS     Displacement     0.004856     0.001200     NO 
 Predicted change in Energy=-1.449044D-05
 Lowest energy point so far.  Saving SCF results.
 GradGradGradGradGradGradGradGradGradGradGradGradGradGradGradGradGradGrad

 Leave Link  103 at Wed May 12 11:56:11 2021, MaxMem=  2147483648 cpu:         0.0
 (Enter /opt/cluster/programs/g09_d.01/g09/l202.exe)
                          Input orientation:                          
 ---------------------------------------------------------------------
 Center     Atomic      Atomic             Coordinates (Angstroms)
 Number     Number       Type             X           Y           Z
 ---------------------------------------------------------------------
      1          6           0       -1.547384   -0.846375   -0.237986
      2          6           0       -0.511720   -0.091848    0.110822
      3          6           0        0.882029   -0.486130    0.381525
      4          6           0        1.926679   -0.019269   -0.309901
      5          1           0       -2.513159   -0.408478   -0.454586
      6          1           0       -1.438872   -1.922011   -0.300411
      7          9           0       -0.700358    1.312865    0.134459
      8          1           0        1.023810   -1.248822    1.143724
      9          1           0        1.808938    0.730223   -1.086309
     10          1           0        2.934334   -0.361508   -0.100750
 ---------------------------------------------------------------------
                    Distance matrix (angstroms):
                    1          2          3          4          5
     1  C    0.000000
     2  C    1.327997   0.000000
     3  C    2.532907   1.473525   0.000000
     4  C    3.571889   2.475493   1.336908   0.000000
     5  H    1.082308   2.103734   3.497487   4.459213   0.000000
     6  H    1.082897   2.092420   2.813071   3.866193   1.862430
     7  F    2.349146   1.417519   2.408604   2.978818   2.568315
     8  H    2.946544   2.182505   1.087542   2.107130   3.971262
     9  H    3.803972   2.737586   2.119720   1.085546   4.514004
    10  H    4.509958   3.463058   2.111889   1.084546   5.459174
                    6          7          8          9         10
     6  H    0.000000
     7  F    3.346482   0.000000
     8  H    2.933174   3.248632   0.000000
     9  H    4.266175   2.850668   3.083195   0.000000
    10  H    4.647576   4.008720   2.446660   1.851950   0.000000
 Stoichiometry    C4H5F
 Framework group  C1[X(C4H5F)]
 Deg. of freedom    24
 Full point group                 C1      NOp   1
 RotChk:  IX=0 Diff= 6.65D-03
 Largest Abelian subgroup         C1      NOp   1
 Largest concise Abelian subgroup C1      NOp   1
                         Standard orientation:                         
 ---------------------------------------------------------------------
 Center     Atomic      Atomic             Coordinates (Angstroms)
 Number     Number       Type             X           Y           Z
 ---------------------------------------------------------------------
      1          6           0       -1.544183   -0.853272   -0.232489
      2          6           0       -0.511719   -0.091167    0.109257
      3          6           0        0.883278   -0.477253    0.385294
      4          6           0        1.926765   -0.013698   -0.310102
      5          1           0       -2.511424   -0.421371   -0.454517
      6          1           0       -1.431515   -1.929083   -0.283504
      7          9           0       -0.705731    1.312985    0.117956
      8          1           0        1.027277   -1.231341    1.155595
      9          1           0        1.806868    0.727134   -1.094451
     10          1           0        2.935528   -0.349866   -0.096494
 ---------------------------------------------------------------------
 Rotational constants (GHZ):      8.8985461      4.0929409      3.0313774
 Leave Link  202 at Wed May 12 11:56:11 2021, MaxMem=  2147483648 cpu:         0.0
 (Enter /opt/cluster/programs/g09_d.01/g09/l301.exe)
 Standard basis: 6-31+G (6D, 7F)
 Ernie: Thresh=  0.10000D-02 Tol=  0.10000D-05 Strict=F.
 There are    75 symmetry adapted cartesian basis functions of A   symmetry.
 There are    75 symmetry adapted basis functions of A   symmetry.
    75 basis functions,   150 primitive gaussians,    75 cartesian basis functions
    19 alpha electrons       19 beta electrons
       nuclear repulsion energy       157.0688712821 Hartrees.
 IExCor= 4639 DFT=T Ex+Corr=wB97XD ExCW=0 ScaHFX=  1.000000
 ScaDFX=  1.000000  1.000000  1.000000  1.000000 ScalE2=  1.000000  1.000000
 IRadAn=      0 IRanWt=     -1 IRanGd=            0 ICorTp=0 IEmpDi=121
  HFx wShort=  0.000000 wLong=  0.200000 cFull=  0.222036 cShort=  0.000000 cLong=  0.777964
  DFx wShort=  0.000000 wLong=  0.200000 cFull=  0.000000 cShort=  0.000000 cLong=  1.000000
 NAtoms=   10 NActive=   10 NUniq=   10 SFac= 1.00D+00 NAtFMM=   60 NAOKFM=F Big=F
 Integral buffers will be    131072 words long.
 Raffenetti 2 integral format.
 Two-electron integral symmetry is turned on.
 R6Disp:  Grimme-D2 Dispersion energy=       -0.0029877451 Hartrees.
 Nuclear repulsion after empirical dispersion term =      157.0658835370 Hartrees.
 Leave Link  301 at Wed May 12 11:56:11 2021, MaxMem=  2147483648 cpu:         0.3
 (Enter /opt/cluster/programs/g09_d.01/g09/l302.exe)
 NPDir=0 NMtPBC=     1 NCelOv=     1 NCel=       1 NClECP=     1 NCelD=      1
         NCelK=      1 NCelE2=     1 NClLst=     1 CellRange=     0.0.
 One-electron integrals computed using PRISM.
 NBasis=    75 RedAO= T EigKep=  7.55D-05  NBF=    75
 NBsUse=    75 1.00D-06 EigRej= -1.00D+00 NBFU=    75
 Precomputing XC quadrature grid using
 IXCGrd= 4 IRadAn=           0 IRanWt=          -1 IRanGd=           0 AccXCQ= 0.00D+00.
 Generated NRdTot=       0 NPtTot=           0 NUsed=           0 NTot=          32
 NSgBfM=    75    75    75    75    75 MxSgAt=    10 MxSgA2=    10.
 Leave Link  302 at Wed May 12 11:56:11 2021, MaxMem=  2147483648 cpu:         0.8
 (Enter /opt/cluster/programs/g09_d.01/g09/l303.exe)
 DipDrv:  MaxL=1.
 Leave Link  303 at Wed May 12 11:56:11 2021, MaxMem=  2147483648 cpu:         0.2
 (Enter /opt/cluster/programs/g09_d.01/g09/l401.exe)
 Initial guess from the checkpoint file:  "/home/unibas/boittier/RDKit_G2/B.pdb/SCAN_1_2_3_4_S_17_20.0/15_SCAN_1_2_3_4_F/B.pdb.chk"
 B after Tr=     0.000000    0.000000    0.000000
         Rot=    0.999999    0.001120    0.000093   -0.000290 Ang=   0.13 deg.
 Guess basis will be translated and rotated to current coordinates.
 JPrj=2 DoOrth=T DoCkMO=T.
 Leave Link  401 at Wed May 12 11:56:11 2021, MaxMem=  2147483648 cpu:         0.6
 (Enter /opt/cluster/programs/g09_d.01/g09/l502.exe)
 Closed shell SCF:
 Using DIIS extrapolation, IDIIS=  1040.
 Integral symmetry usage will be decided dynamically.
 Keep R1 ints in memory in canonical form, NReq=9056162.
 IVT=       36600 IEndB=       36600 NGot=  2147483648 MDV=  2139321699
 LenX=  2139321699 LenY=  2139315633
 Requested convergence on RMS density matrix=1.00D-08 within 128 cycles.
 Requested convergence on MAX density matrix=1.00D-06.
 Requested convergence on             energy=1.00D-06.
 No special actions if energy rises.
 FoFCou: FMM=F IPFlag=           0 FMFlag=           0 FMFlg1=           0
         NFxFlg=           0 DoJE=F BraDBF=F KetDBF=F FulRan=T
         wScrn=  0.000000 ICntrl=     600 IOpCl=  0 I1Cent=           0 NGrid=           0
         NMat0=    1 NMatS0=   2850 NMatT0=    0 NMatD0=    1 NMtDS0=    0 NMtDT0=    0
 Symmetry not used in FoFCou.

 Cycle   1  Pass 1  IDiag  1:
 E= -255.093790280007    
 DIIS: error= 2.88D-04 at cycle   1 NSaved=   1.
 NSaved= 1 IEnMin= 1 EnMin= -255.093790280007     IErMin= 1 ErrMin= 2.88D-04
 ErrMax= 2.88D-04  0.00D+00 EMaxC= 1.00D-01 BMatC= 1.49D-05 BMatP= 1.49D-05
 IDIUse=3 WtCom= 9.97D-01 WtEn= 2.88D-03
 Coeff-Com:  0.100D+01
 Coeff-En:   0.100D+01
 Coeff:      0.100D+01
 Gap=     0.582 Goal=   None    Shift=    0.000
 RMSDP=1.38D-04 MaxDP=2.21D-03              OVMax= 1.55D-03

 Cycle   2  Pass 1  IDiag  1:
 E= -255.093818408548     Delta-E=       -0.000028128541 Rises=F Damp=F
 DIIS: error= 1.51D-04 at cycle   2 NSaved=   2.
 NSaved= 2 IEnMin= 2 EnMin= -255.093818408548     IErMin= 2 ErrMin= 1.51D-04
 ErrMax= 1.51D-04  0.00D+00 EMaxC= 1.00D-01 BMatC= 2.07D-06 BMatP= 1.49D-05
 IDIUse=3 WtCom= 9.98D-01 WtEn= 1.51D-03
 Coeff-Com:  0.431D-01 0.957D+00
 Coeff-En:   0.000D+00 0.100D+01
 Coeff:      0.430D-01 0.957D+00
 Gap=     0.365 Goal=   None    Shift=    0.000
 RMSDP=5.57D-05 MaxDP=9.59D-04 DE=-2.81D-05 OVMax= 6.28D-04

 Cycle   3  Pass 1  IDiag  1:
 E= -255.093820498051     Delta-E=       -0.000002089503 Rises=F Damp=F
 DIIS: error= 1.46D-04 at cycle   3 NSaved=   3.
 NSaved= 3 IEnMin= 3 EnMin= -255.093820498051     IErMin= 3 ErrMin= 1.46D-04
 ErrMax= 1.46D-04  0.00D+00 EMaxC= 1.00D-01 BMatC= 1.94D-06 BMatP= 2.07D-06
 IDIUse=3 WtCom= 9.99D-01 WtEn= 1.46D-03
 Coeff-Com: -0.126D+00 0.540D+00 0.586D+00
 Coeff-En:   0.000D+00 0.000D+00 0.100D+01
 Coeff:     -0.126D+00 0.539D+00 0.587D+00
 Gap=     0.365 Goal=   None    Shift=    0.000
 RMSDP=3.02D-05 MaxDP=6.96D-04 DE=-2.09D-06 OVMax= 2.69D-04

 Cycle   4  Pass 1  IDiag  1:
 E= -255.093822049990     Delta-E=       -0.000001551939 Rises=F Damp=F
 DIIS: error= 1.95D-05 at cycle   4 NSaved=   4.
 NSaved= 4 IEnMin= 4 EnMin= -255.093822049990     IErMin= 4 ErrMin= 1.95D-05
 ErrMax= 1.95D-05  0.00D+00 EMaxC= 1.00D-01 BMatC= 2.16D-08 BMatP= 1.94D-06
 IDIUse=1 WtCom= 1.00D+00 WtEn= 0.00D+00
 Coeff-Com:  0.143D-01-0.141D+00-0.657D-01 0.119D+01
 Coeff:      0.143D-01-0.141D+00-0.657D-01 0.119D+01
 Gap=     0.365 Goal=   None    Shift=    0.000
 RMSDP=1.14D-05 MaxDP=1.25D-04 DE=-1.55D-06 OVMax= 1.56D-04

 Cycle   5  Pass 1  IDiag  1:
 E= -255.093822134237     Delta-E=       -0.000000084246 Rises=F Damp=F
 DIIS: error= 6.18D-06 at cycle   5 NSaved=   5.
 NSaved= 5 IEnMin= 5 EnMin= -255.093822134237     IErMin= 5 ErrMin= 6.18D-06
 ErrMax= 6.18D-06  0.00D+00 EMaxC= 1.00D-01 BMatC= 3.05D-09 BMatP= 2.16D-08
 IDIUse=1 WtCom= 1.00D+00 WtEn= 0.00D+00
 Coeff-Com:  0.133D-01-0.808D-01-0.639D-01 0.367D+00 0.764D+00
 Coeff:      0.133D-01-0.808D-01-0.639D-01 0.367D+00 0.764D+00
 Gap=     0.365 Goal=   None    Shift=    0.000
 RMSDP=2.43D-06 MaxDP=2.58D-05 DE=-8.42D-08 OVMax= 3.21D-05

 Cycle   6  Pass 1  IDiag  1:
 E= -255.093822140329     Delta-E=       -0.000000006093 Rises=F Damp=F
 DIIS: error= 1.33D-06 at cycle   6 NSaved=   6.
 NSaved= 6 IEnMin= 6 EnMin= -255.093822140329     IErMin= 6 ErrMin= 1.33D-06
 ErrMax= 1.33D-06  0.00D+00 EMaxC= 1.00D-01 BMatC= 1.76D-10 BMatP= 3.05D-09
 IDIUse=1 WtCom= 1.00D+00 WtEn= 0.00D+00
 Coeff-Com: -0.481D-03 0.946D-02-0.315D-03-0.102D+00 0.664D-01 0.103D+01
 Coeff:     -0.481D-03 0.946D-02-0.315D-03-0.102D+00 0.664D-01 0.103D+01
 Gap=     0.365 Goal=   None    Shift=    0.000
 RMSDP=9.50D-07 MaxDP=1.03D-05 DE=-6.09D-09 OVMax= 1.56D-05

 Cycle   7  Pass 1  IDiag  1:
 E= -255.093822140865     Delta-E=       -0.000000000536 Rises=F Damp=F
 DIIS: error= 5.83D-07 at cycle   7 NSaved=   7.
 NSaved= 7 IEnMin= 7 EnMin= -255.093822140865     IErMin= 7 ErrMin= 5.83D-07
 ErrMax= 5.83D-07  0.00D+00 EMaxC= 1.00D-01 BMatC= 3.01D-11 BMatP= 1.76D-10
 IDIUse=1 WtCom= 1.00D+00 WtEn= 0.00D+00
 Coeff-Com: -0.896D-03 0.802D-02 0.301D-02-0.608D-01-0.115D-01 0.418D+00
 Coeff-Com:  0.644D+00
 Coeff:     -0.896D-03 0.802D-02 0.301D-02-0.608D-01-0.115D-01 0.418D+00
 Coeff:      0.644D+00
 Gap=     0.365 Goal=   None    Shift=    0.000
 RMSDP=1.47D-07 MaxDP=1.64D-06 DE=-5.36D-10 OVMax= 3.23D-06

 Cycle   8  Pass 1  IDiag  1:
 E= -255.093822140905     Delta-E=       -0.000000000040 Rises=F Damp=F
 DIIS: error= 1.41D-07 at cycle   8 NSaved=   8.
 NSaved= 8 IEnMin= 8 EnMin= -255.093822140905     IErMin= 8 ErrMin= 1.41D-07
 ErrMax= 1.41D-07  0.00D+00 EMaxC= 1.00D-01 BMatC= 2.08D-12 BMatP= 3.01D-11
 IDIUse=1 WtCom= 1.00D+00 WtEn= 0.00D+00
 Coeff-Com: -0.938D-04 0.121D-03 0.726D-03 0.401D-02-0.140D-01-0.779D-01
 Coeff-Com:  0.129D+00 0.959D+00
 Coeff:     -0.938D-04 0.121D-03 0.726D-03 0.401D-02-0.140D-01-0.779D-01
 Coeff:      0.129D+00 0.959D+00
 Gap=     0.365 Goal=   None    Shift=    0.000
 RMSDP=9.85D-08 MaxDP=1.24D-06 DE=-3.98D-11 OVMax= 1.62D-06

 Cycle   9  Pass 1  IDiag  1:
 E= -255.093822140911     Delta-E=       -0.000000000006 Rises=F Damp=F
 DIIS: error= 5.15D-08 at cycle   9 NSaved=   9.
 NSaved= 9 IEnMin= 9 EnMin= -255.093822140911     IErMin= 9 ErrMin= 5.15D-08
 ErrMax= 5.15D-08  0.00D+00 EMaxC= 1.00D-01 BMatC= 2.64D-13 BMatP= 2.08D-12
 IDIUse=1 WtCom= 1.00D+00 WtEn= 0.00D+00
 Coeff-Com:  0.266D-04-0.518D-03 0.364D-04 0.563D-02-0.385D-02-0.544D-01
 Coeff-Com: -0.151D-01 0.318D+00 0.750D+00
 Coeff:      0.266D-04-0.518D-03 0.364D-04 0.563D-02-0.385D-02-0.544D-01
 Coeff:     -0.151D-01 0.318D+00 0.750D+00
 Gap=     0.365 Goal=   None    Shift=    0.000
 RMSDP=3.02D-08 MaxDP=4.61D-07 DE=-5.91D-12 OVMax= 4.99D-07

 Cycle  10  Pass 1  IDiag  1:
 E= -255.093822140912     Delta-E=       -0.000000000001 Rises=F Damp=F
 DIIS: error= 2.98D-08 at cycle  10 NSaved=  10.
 NSaved=10 IEnMin=10 EnMin= -255.093822140912     IErMin=10 ErrMin= 2.98D-08
 ErrMax= 2.98D-08  0.00D+00 EMaxC= 1.00D-01 BMatC= 3.39D-14 BMatP= 2.64D-13
 IDIUse=1 WtCom= 1.00D+00 WtEn= 0.00D+00
 Coeff-Com:  0.203D-04-0.174D-03-0.906D-04 0.131D-02 0.412D-03-0.725D-02
 Coeff-Com: -0.242D-01-0.148D-01 0.228D+00 0.817D+00
 Coeff:      0.203D-04-0.174D-03-0.906D-04 0.131D-02 0.412D-03-0.725D-02
 Coeff:     -0.242D-01-0.148D-01 0.228D+00 0.817D+00
 Gap=     0.365 Goal=   None    Shift=    0.000
 RMSDP=1.56D-08 MaxDP=2.45D-07 DE=-1.08D-12 OVMax= 1.44D-07

 Cycle  11  Pass 1  IDiag  1:
 E= -255.093822140909     Delta-E=        0.000000000003 Rises=F Damp=F
 DIIS: error= 8.73D-09 at cycle  11 NSaved=  11.
 NSaved=11 IEnMin=10 EnMin= -255.093822140912     IErMin=11 ErrMin= 8.73D-09
 ErrMax= 8.73D-09  0.00D+00 EMaxC= 1.00D-01 BMatC= 5.06D-15 BMatP= 3.39D-14
 IDIUse=1 WtCom= 1.00D+00 WtEn= 0.00D+00
 Coeff-Com:  0.377D-05 0.102D-04-0.412D-04-0.327D-03 0.679D-03 0.540D-02
 Coeff-Com: -0.755D-02-0.506D-01-0.185D-01 0.311D+00 0.760D+00
 Coeff:      0.377D-05 0.102D-04-0.412D-04-0.327D-03 0.679D-03 0.540D-02
 Coeff:     -0.755D-02-0.506D-01-0.185D-01 0.311D+00 0.760D+00
 Gap=     0.365 Goal=   None    Shift=    0.000
 RMSDP=5.90D-09 MaxDP=9.45D-08 DE= 2.73D-12 OVMax= 7.06D-08

 SCF Done:  E(RwB97XD) =  -255.093822141     A.U. after   11 cycles
            NFock= 11  Conv=0.59D-08     -V/T= 2.0056
 KE= 2.536656661159D+02 PE=-9.118442434433D+02 EE= 2.460188716495D+02
 Leave Link  502 at Wed May 12 11:56:19 2021, MaxMem=  2147483648 cpu:        55.6
 (Enter /opt/cluster/programs/g09_d.01/g09/l701.exe)
 Compute integral first derivatives.
 ... and contract with generalized density number  0.
 R6Disp: Adding Grimme-D2 dispersion energy 1st derivatives to the gradient.
 Leave Link  701 at Wed May 12 11:56:19 2021, MaxMem=  2147483648 cpu:         0.6
 (Enter /opt/cluster/programs/g09_d.01/g09/l702.exe)
 L702 exits ... SP integral derivatives will be done elsewhere.
 Leave Link  702 at Wed May 12 11:56:19 2021, MaxMem=  2147483648 cpu:         0.2
 (Enter /opt/cluster/programs/g09_d.01/g09/l703.exe)
 Compute integral first derivatives, UseDBF=F ICtDFT=           0.
 Integral derivatives from FoFJK, PRISM(SPDF).
 Calling FoFJK, ICntrl=      2127 FMM=F ISym2X=0 I1Cent= 0 IOpClX= 0 NMat=1 NMatS=1 NMatT=0.
 FoFJK:  IHMeth= 1 ICntrl=    2127 DoSepK=T KAlg= 0 I1Cent=   0 FoldK=F
 IRaf=         1 NMat=   1 IRICut=       1 DoRegI=T DoRafI=F ISym2E= 0.
 FoFCou: FMM=F IPFlag=           0 FMFlag=      100000 FMFlg1=         800
         NFxFlg=           0 DoJE=F BraDBF=F KetDBF=F FulRan=T
         wScrn=  0.000000 ICntrl=    2527 IOpCl=  0 I1Cent=           0 NGrid=           0
         NMat0=    1 NMatS0=      1 NMatT0=    0 NMatD0=    1 NMtDS0=    0 NMtDT0=    0
 Symmetry not used in FoFCou.
 Leave Link  703 at Wed May 12 11:56:20 2021, MaxMem=  2147483648 cpu:         3.3
 (Enter /opt/cluster/programs/g09_d.01/g09/l716.exe)
 Dipole        = 3.41544093D-01-8.31577746D-01-8.17174769D-02
 ***** Axes restored to original set *****
 -------------------------------------------------------------------
 Center     Atomic                   Forces (Hartrees/Bohr)
 Number     Number              X              Y              Z
 -------------------------------------------------------------------
      1        6          -0.001207441   -0.001167659    0.004512298
      2        6           0.001697439    0.003938646   -0.005851563
      3        6          -0.001151263   -0.005832076   -0.001395653
      4        6           0.000566913    0.003382570    0.002747087
      5        1          -0.000105816   -0.000013592    0.000016179
      6        1           0.000007083   -0.000011500   -0.000041446
      7        9           0.000104703   -0.000353068    0.000071456
      8        1          -0.000010981   -0.000034180    0.000024250
      9        1           0.000019288    0.000054715   -0.000040670
     10        1           0.000080076    0.000036144   -0.000041938
 -------------------------------------------------------------------
 Cartesian Forces:  Max     0.005851563 RMS     0.002102252
 Leave Link  716 at Wed May 12 11:56:20 2021, MaxMem=  2147483648 cpu:         0.2
 (Enter /opt/cluster/programs/g09_d.01/g09/l103.exe)

 GradGradGradGradGradGradGradGradGradGradGradGradGradGradGradGradGradGrad
 Berny optimization.
 Using GEDIIS/GDIIS optimizer.
 FormGI is forming the generalized inverse of G from B-inverse, IUseBI=4.
 Internal  Forces:  Max     0.004553345 RMS     0.001147290
 Search for a local minimum.
 Step number   3 out of a maximum of   43
 All quantities printed in internal units (Hartrees-Bohrs-Radians)
 RMS Force = .18993D-03 SwitMx=.10000D-02 MixMth= 2
 Mixed Optimization -- En-DIIS/RFO-DIIS
 Swapping is turned off.
 Update second derivatives using D2CorX and points    1    2    3
[...]
 ***** Axes restored to original set *****
 -------------------------------------------------------------------
 Center     Atomic                   Forces (Hartrees/Bohr)
 Number     Number              X              Y              Z
 -------------------------------------------------------------------
      1        6          -0.001044821   -0.000622481    0.004547215
      2        6           0.001875541    0.002658845   -0.005613855
      3        6          -0.001234496   -0.005318851   -0.001667812
      4        6           0.000408327    0.003279927    0.002808901
      5        1          -0.000011870   -0.000025014   -0.000014648
      6        1           0.000006379   -0.000007698   -0.000040118
      7        9          -0.000012719    0.000017923    0.000002970
      8        1          -0.000008626   -0.000021389   -0.000016039
      9        1           0.000010353    0.000028022    0.000011423
     10        1           0.000011931    0.000010715   -0.000018037
 -------------------------------------------------------------------
 Cartesian Forces:  Max     0.005613855 RMS     0.001963625
 Leave Link  716 at Wed May 12 11:56:24 2021, MaxMem=  2147483648 cpu:         0.2
 (Enter /opt/cluster/programs/g09_d.01/g09/l103.exe)

 GradGradGradGradGradGradGradGradGradGradGradGradGradGradGradGradGradGrad
 Berny optimization.
 Using GEDIIS/GDIIS optimizer.
 FormGI is forming the generalized inverse of G from B-inverse, IUseBI=4.
 Internal  Forces:  Max     0.004471631 RMS     0.001112158
 Search for a local minimum.
 Step number   4 out of a maximum of   43
 All quantities printed in internal units (Hartrees-Bohrs-Radians)
 RMS Force = .28567D-04 SwitMx=.10000D-02 MixMth= 2
 Mixed Optimization -- En-DIIS/RFO-DIIS
 Swapping is turned off.
 Update second derivatives using D2CorX and points    1    2    3    4
 DE= -2.31D-06 DEPred=-2.89D-06 R= 8.01D-01
 TightC=F SS=  1.41D+00  RLast= 1.01D-02 DXNew= 5.0454D-01 3.0372D-02
 Trust test= 8.01D-01 RLast= 1.01D-02 DXMaxT set to 3.00D-01
 ITU=  1  1  1  0
     Eigenvalues ---    0.01529   0.02125   0.02852   0.02857   0.02894
     Eigenvalues ---    0.03023   0.14370   0.15994   0.16000   0.16022
     Eigenvalues ---    0.16081   0.17738   0.22173   0.25225   0.34204
     Eigenvalues ---    0.34992   0.35270   0.35351   0.35555   0.35635
     Eigenvalues ---    0.37798   0.57704   0.668421000.000001000.00000
     Eigenvalues --- 1000.000001000.000001000.000001000.000001000.00000
     Eigenvalues --- 1000.000001000.000001000.00000
 En-DIIS/RFO-DIIS IScMMF=        0 using points:     4    3    2
 RFO step:  Lambda=-1.35439751D-06.
 NNeg= 0 NP= 3 Switch=  2.50D-03 Rises=F DC=  1.78D-05 SmlDif=  1.00D-05
 RMS Error=  0.8499982336D-04 NUsed= 3 EDIIS=F
 DidBck=F Rises=F RFO-DIIS coefs:    1.02374   -0.02133   -0.00241
 Iteration  1 RMS(Cart)=  0.00045165 RMS(Int)=  0.00000058
 Iteration  2 RMS(Cart)=  0.00000025 RMS(Int)=  0.00000055
 Iteration  1 RMS(Cart)=  0.00000023 RMS(Int)=  0.00000015
 ITry= 1 IFail=0 DXMaxC= 1.03D-03 DCOld= 1.00D+10 DXMaxT= 3.00D-01 DXLimC= 3.00D+00 Rises=F
 Variable       Old X    -DE/DX   Delta X   Delta X   Delta X     New X
                                 (Linear)    (Quad)   (Total)
    R1        2.51036   0.00001   0.00002   0.00000   0.00002   2.51039
    R2        2.04553   0.00000   0.00001   0.00001   0.00001   2.04554
    R3        2.04636   0.00001   0.00000   0.00003   0.00003   2.04638
    R4        2.78631  -0.00002   0.00005  -0.00004   0.00001   2.78631
    R5        2.67638   0.00002  -0.00007   0.00003  -0.00004   2.67634
    R6        2.52680   0.00004   0.00001   0.00006   0.00007   2.52687
    R7        2.05519   0.00000   0.00000   0.00000   0.00000   2.05519
    R8        2.05158   0.00001   0.00000   0.00002   0.00002   2.05160
    R9        2.04965   0.00001   0.00000   0.00002   0.00002   2.04967
    A1        2.11652   0.00004   0.00001   0.00027   0.00029   2.11681
    A2        2.09548  -0.00002  -0.00001  -0.00013  -0.00014   2.09533
    A3        2.07113  -0.00002   0.00000  -0.00013  -0.00013   2.07099
    A4        2.25410  -0.00005  -0.00009  -0.00043  -0.00051   2.25359
    A5        2.05529   0.00019   0.00007   0.00010   0.00017   2.05546
    A6        1.97035   0.00002   0.00003   0.00024   0.00027   1.97062
    A7        2.15337   0.00009  -0.00002   0.00021   0.00019   2.15356
    A8        2.02614  -0.00008   0.00000  -0.00019  -0.00019   2.02595
    A9        2.10133   0.00013   0.00002  -0.00001   0.00000   2.10134
   A10        2.12478   0.00001  -0.00001   0.00005   0.00004   2.12482
   A11        2.11371   0.00001   0.00002   0.00008   0.00009   2.11381
   A12        2.04448  -0.00002  -0.00001  -0.00013  -0.00014   2.04434
    D1       -3.09089  -0.00111  -0.00010   0.00095   0.00085  -3.09005
    D2       -0.04547   0.00114   0.00001  -0.00019  -0.00018  -0.04565
    D3        0.06251  -0.00114  -0.00009   0.00007  -0.00002   0.06249
    D4        3.10794   0.00111   0.00002  -0.00107  -0.00105   3.10689
    D5        2.09459   0.00447   0.00000   0.00000   0.00000   2.09459
    D6       -0.97359   0.00228  -0.00005  -0.00007  -0.00012  -0.97371
    D7       -0.95464   0.00230  -0.00011   0.00110   0.00099  -0.95365
    D8        2.26037   0.00011  -0.00016   0.00103   0.00087   2.26123
    D9        0.05942  -0.00113  -0.00004   0.00012   0.00008   0.05949
   D10       -3.10525  -0.00114  -0.00003   0.00005   0.00002  -3.10523
   D11        3.12456   0.00114   0.00001   0.00019   0.00020   3.12476
   D12       -0.04011   0.00114   0.00002   0.00013   0.00014  -0.03996
         Item               Value     Threshold  Converged?
 Maximum Force            0.000096     0.000450     YES
 RMS     Force            0.000029     0.000300     YES
 Maximum Displacement     0.001028     0.001800     YES
 RMS     Displacement     0.000452     0.001200     YES
 Predicted change in Energy=-1.139601D-07
 Optimization completed.
    -- Stationary point found.
                           ----------------------------
                           !   Optimized Parameters   !
                           ! (Angstroms and Degrees)  !
 --------------------------                            --------------------------
 ! Name  Definition              Value          Derivative Info.                !
 --------------------------------------------------------------------------------
 ! R1    R(1,2)                  1.3284         -DE/DX =    0.0                 !
 ! R2    R(1,5)                  1.0824         -DE/DX =    0.0                 !
 ! R3    R(1,6)                  1.0829         -DE/DX =    0.0                 !
 ! R4    R(2,3)                  1.4744         -DE/DX =    0.0                 !
 ! R5    R(2,7)                  1.4163         -DE/DX =    0.0                 !
 ! R6    R(3,4)                  1.3371         -DE/DX =    0.0                 !
 ! R7    R(3,8)                  1.0876         -DE/DX =    0.0                 !
 ! R8    R(4,9)                  1.0856         -DE/DX =    0.0                 !
 ! R9    R(4,10)                 1.0846         -DE/DX =    0.0                 !
 ! A1    A(2,1,5)              121.2678         -DE/DX =    0.0                 !
 ! A2    A(2,1,6)              120.062          -DE/DX =    0.0                 !
 ! A3    A(5,1,6)              118.6669         -DE/DX =    0.0                 !
 ! A4    A(1,2,3)              129.1506         -DE/DX =    0.0                 !
 ! A5    A(1,2,7)              117.7596         -DE/DX =    0.0002              !
 ! A6    A(3,2,7)              112.8925         -DE/DX =    0.0                 !
 ! A7    A(2,3,4)              123.3791         -DE/DX =    0.0001              !
 ! A8    A(2,3,8)              116.089          -DE/DX =   -0.0001              !
 ! A9    A(4,3,8)              120.3976         -DE/DX =    0.0001              !
 ! A10   A(3,4,9)              121.7408         -DE/DX =    0.0                 !
 ! A11   A(3,4,10)             121.1068         -DE/DX =    0.0                 !
 ! A12   A(9,4,10)             117.1399         -DE/DX =    0.0                 !
 ! D1    D(5,1,2,3)           -177.0952         -DE/DX =   -0.0011              !
 ! D2    D(5,1,2,7)             -2.605          -DE/DX =    0.0011              !
 ! D3    D(6,1,2,3)              3.5816         -DE/DX =   -0.0011              !
 ! D4    D(6,1,2,7)            178.0719         -DE/DX =    0.0011              !
 ! D5    D(1,2,3,4)            120.0111         -DE/DX =    0.0045              !
 ! D6    D(1,2,3,8)            -55.7825         -DE/DX =    0.0023              !
 ! D7    D(7,2,3,4)            -54.6971         -DE/DX =    0.0023              !
 ! D8    D(7,2,3,8)            129.5094         -DE/DX =    0.0001              !
 ! D9    D(2,3,4,9)              3.4043         -DE/DX =   -0.0011              !
 ! D10   D(2,3,4,10)          -177.9177         -DE/DX =   -0.0011              !
 ! D11   D(8,3,4,9)            179.024          -DE/DX =    0.0011              !
 ! D12   D(8,3,4,10)            -2.298          -DE/DX =    0.0011              !
 --------------------------------------------------------------------------------
 Lowest energy point so far.  Saving SCF results.
 GradGradGradGradGradGradGradGradGradGradGradGradGradGradGradGradGradGrad

 Largest change from initial coordinates is atom    8       0.016 Angstoms.
 Leave Link  103 at Wed May 12 11:56:25 2021, MaxMem=  2147483648 cpu:         0.2
 (Enter /opt/cluster/programs/g09_d.01/g09/l202.exe)
                          Input orientation:                          
 ---------------------------------------------------------------------
 Center     Atomic      Atomic             Coordinates (Angstroms)
 Number     Number       Type             X           Y           Z
 ---------------------------------------------------------------------
      1          6           0       -1.546901   -0.846095   -0.238727
      2          6           0       -0.512369   -0.089252    0.110057
      3          6           0        0.881566   -0.485787    0.381545
      4          6           0        1.926859   -0.020371   -0.310305
      5          1           0       -2.514444   -0.410790   -0.453346
      6          1           0       -1.435334   -1.921328   -0.302524
      7          9           0       -0.701284    1.314099    0.137633
      8          1           0        1.022099   -1.247380    1.145102
      9          1           0        1.809538    0.728180   -1.087825
     10          1           0        2.934567   -0.362628   -0.101024
 ---------------------------------------------------------------------
                    Distance matrix (angstroms):
                    1          2          3          4          5
     1  C    0.000000
     2  C    1.328427   0.000000
     3  C    2.532194   1.474449   0.000000
     4  C    3.571268   2.476143   1.337127   0.000000
     5  H    1.082447   2.104546   3.497935   4.460724   0.000000
     6  H    1.082886   2.092508   2.810116   3.862388   1.862511
     7  F    2.350139   1.416278   2.409253   2.981375   2.571390
     8  H    2.945466   2.183386   1.087562   2.107689   3.970145
     9  H    3.803287   2.737584   2.119882   1.085647   4.516263
    10  H    4.509574   3.464197   2.112548   1.084626   5.460602
                    6          7          8          9         10
     6  H    0.000000
     7  F    3.346723   0.000000
     8  H    2.930666   3.247495   0.000000
     9  H    4.262133   2.854694   3.083644   0.000000
    10  H    4.643940   4.010959   2.448091   1.851845   0.000000
 Stoichiometry    C4H5F
 Framework group  C1[X(C4H5F)]
 Deg. of freedom    24
 Full point group                 C1      NOp   1
 RotChk:  IX=0 Diff= 1.08D-16
 Largest Abelian subgroup         C1      NOp   1
 Largest concise Abelian subgroup C1      NOp   1
                         Standard orientation:                         
 ---------------------------------------------------------------------
 Center     Atomic      Atomic             Coordinates (Angstroms)
 Number     Number       Type             X           Y           Z
 ---------------------------------------------------------------------
      1          6           0       -1.542406   -0.855803   -0.232225
      2          6           0       -0.512062   -0.089440    0.108067
      3          6           0        0.883455   -0.475567    0.386346
      4          6           0        1.927340   -0.013929   -0.310147
      5          1           0       -2.511800   -0.428074   -0.453615
      6          1           0       -1.425467   -1.931202   -0.282050
      7          9           0       -0.707915    1.313200    0.117359
      8          1           0        1.026747   -1.226578    1.159807
      9          1           0        1.807341    0.723976   -1.097374
     10          1           0        2.936448   -0.348489   -0.095243
 ---------------------------------------------------------------------
 Rotational constants (GHZ):      8.8905162      4.0917346      3.0304215
 Leave Link  202 at Wed May 12 11:56:25 2021, MaxMem=  2147483648 cpu:         0.0
 (Enter /opt/cluster/programs/g09_d.01/g09/l601.exe)
 Copying SCF densities to generalized density rwf, IOpCl= 0 IROHF=0.

 **********************************************************************

            Population analysis using the SCF density.

 **********************************************************************

 Orbital symmetries:
       Occupied  (A) (A) (A) (A) (A) (A) (A) (A) (A) (A) (A) (A)
                 (A) (A) (A) (A) (A) (A) (A)
       Virtual   (A) (A) (A) (A) (A) (A) (A) (A) (A) (A) (A) (A)
                 (A) (A) (A) (A) (A) (A) (A) (A) (A) (A) (A) (A)
                 (A) (A) (A) (A) (A) (A) (A) (A) (A) (A) (A) (A)
                 (A) (A) (A) (A) (A) (A) (A) (A) (A) (A) (A) (A)
                 (A) (A) (A) (A) (A) (A) (A) (A)
 The electronic state is 1-A.
 Alpha  occ. eigenvalues --  -24.82824 -10.40134 -10.32965 -10.31831 -10.30818
 Alpha  occ. eigenvalues --   -1.30688  -0.92686  -0.86320  -0.73204  -0.66097
 Alpha  occ. eigenvalues --   -0.60166  -0.58203  -0.55598  -0.52353  -0.50688
 Alpha  occ. eigenvalues --   -0.48459  -0.45178  -0.39250  -0.33856
 Alpha virt. eigenvalues --    0.02668   0.06640   0.08086   0.08927   0.09964
 Alpha virt. eigenvalues --    0.11506   0.11849   0.13330   0.13760   0.14366
 Alpha virt. eigenvalues --    0.15773   0.17248   0.18088   0.18885   0.20092
 Alpha virt. eigenvalues --    0.20611   0.23489   0.24620   0.26207   0.27967
 Alpha virt. eigenvalues --    0.29223   0.30823   0.32714   0.39151   0.41740
 Alpha virt. eigenvalues --    0.42759   0.43210   0.46718   0.48336   0.50088
 Alpha virt. eigenvalues --    0.50875   0.68132   0.74263   0.77976   0.78403
 Alpha virt. eigenvalues --    0.80160   0.82822   0.85681   0.89477   0.93387
 Alpha virt. eigenvalues --    0.94837   1.02118   1.04825   1.08339   1.12395
 Alpha virt. eigenvalues --    1.13927   1.16552   1.22037   1.27268   1.32477
 Alpha virt. eigenvalues --    1.38557   1.42669   1.67199   1.82582   1.85249
 Alpha virt. eigenvalues --    2.36668
          Condensed to atoms (all electrons):
               1          2          3          4          5          6
     1  C    6.142258   0.126273  -0.429885   0.030246   0.376958   0.328422
     2  C    0.126273   5.310696   0.289526  -0.100650  -0.036848  -0.010669
     3  C   -0.429885   0.289526   5.769322   0.320833   0.010184   0.020815
     4  C    0.030246  -0.100650   0.320833   5.382204   0.002390   0.001298
     5  H    0.376958  -0.036848   0.010184   0.002390   0.452659  -0.019599
     6  H    0.328422  -0.010669   0.020815   0.001298  -0.019599   0.467071
     7  F   -0.159685   0.297173  -0.150858   0.002517  -0.003821   0.004230
     8  H    0.008985  -0.027236   0.355982  -0.025790  -0.000002   0.000087
     9  H   -0.000309   0.004196  -0.044736   0.385489  -0.000004   0.000001
    10  H    0.002463   0.014004  -0.026353   0.361027   0.000001  -0.000002
               7          8          9         10
     1  C   -0.159685   0.008985  -0.000309   0.002463
     2  C    0.297173  -0.027236   0.004196   0.014004
     3  C   -0.150858   0.355982  -0.044736  -0.026353
     4  C    0.002517  -0.025790   0.385489   0.361027
     5  H   -0.003821  -0.000002  -0.000004   0.000001
     6  H    0.004230   0.000087   0.000001  -0.000002
     7  F    9.304701   0.003661  -0.000310  -0.000015
     8  H    0.003661   0.460717   0.002561  -0.003879
     9  H   -0.000310   0.002561   0.461763  -0.023064
    10  H   -0.000015  -0.003879  -0.023064   0.477396
 Mulliken charges:
               1
     1  C   -0.425726
     2  C    0.133535
     3  C   -0.114830
     4  C   -0.359565
     5  H    0.218081
     6  H    0.208348
     7  F   -0.297593
     8  H    0.224915
     9  H    0.214413
    10  H    0.198422
 Sum of Mulliken charges =   0.00000
 Mulliken charges with hydrogens summed into heavy atoms:
               1
     1  C    0.000703
     2  C    0.133535
     3  C    0.110085
     4  C    0.053270
     7  F   -0.297593
 Electronic spatial extent (au):  <R**2>=            424.9802
 Charge=              0.0000 electrons
 Dipole moment (field-independent basis, Debye):
    X=              0.8701    Y=             -2.1069    Z=             -0.2030  Tot=              2.2885
 Quadrupole moment (field-independent basis, Debye-Ang):
   XX=            -25.5323   YY=            -31.2507   ZZ=            -30.5187
   XY=              1.5297   XZ=              0.5126   YZ=             -1.7874
 Traceless Quadrupole moment (field-independent basis, Debye-Ang):
   XX=              3.5682   YY=             -2.1501   ZZ=             -1.4181
   XY=              1.5297   XZ=              0.5126   YZ=             -1.7874
 Octapole moment (field-independent basis, Debye-Ang**2):
  XXX=             -1.8693  YYY=              2.6126  ZZZ=              1.3766  XYY=             -1.3981
  XXY=              0.6257  XXZ=             -3.2459  XZZ=              0.1098  YZZ=              4.0193
  YYZ=              0.2780  XYZ=             -3.1685
 Hexadecapole moment (field-independent basis, Debye-Ang**3):
 XXXX=           -316.1894 YYYY=           -136.4595 ZZZZ=            -55.5973 XXXY=             -9.6502
 XXXZ=              3.9699 YYYX=              0.4104 YYYZ=             -1.4035 ZZZX=             -1.4645
 ZZZY=             -3.0296 XXYY=            -84.6401 XXZZ=            -72.0831 YYZZ=            -31.9786
 XXYZ=             -2.5965 YYXZ=              2.0667 ZZXY=             -3.2612
 N-N= 1.570471139444D+02 E-N=-9.118021353935D+02  KE= 2.536633355790D+02
 No NMR shielding tensors so no spin-rotation constants.
 Leave Link  601 at Wed May 12 11:56:25 2021, MaxMem=  2147483648 cpu:         0.6
 (Enter /opt/cluster/programs/g09_d.01/g09/l9999.exe)
 1\1\GINC-NODE12\FOpt\RwB97XD\6-31+G\C4H5F1\BOITTIER\12-May-2021\0\\#p 
 wB97XD/6-31+G Opt=ModRedun\\B.pdb\\0,1\C,-1.5469010434,-0.8460952632,-
 0.238726568\C,-0.5123689242,-0.0892516367,0.110056501\C,0.8815655242,-
 0.4857874804,0.3815454414\C,1.9268593468,-0.0203711696,-0.3103049151\H
 ,-2.5144435864,-0.4107901934,-0.4533463789\H,-1.4353339634,-1.92132773
 85,-0.3025236736\F,-0.701284257,1.3140993449,0.137632833\H,1.022098947
 8,-1.247380144,1.1451019094\H,1.8095375991,0.7281796956,-1.0878250719\
 H,2.9345673565,-0.3626284147,-0.1010240773\\Version=ES64L-G09RevD.01\S
 tate=1-A\HF=-255.0938245\RMSD=7.810e-09\RMSF=1.964e-03\Dipole=0.338144
 3,-0.8294997,-0.090976\Quadrupole=2.6649343,-1.5753216,-1.0896126,1.10
 97686,0.3842485,-1.3388371\PG=C01 [X(C4H5F1)]\\@


 REFRAIN FROM ILLUSIONS, INSIST ON WORK AND NOT WORDS,
 PATIENTLY SEEK DIVINE AND SCIENTIFIC TRUTH.
 LAST WORDS OF MARIA MENDELEEVA TO HER SON DMITRI, C. 1850
 Job cpu time:       0 days  0 hours  2 minutes  4.3 seconds.
 File lengths (MBytes):  RWF=      5 Int=      0 D2E=      0 Chk=      2 Scr=      1
 Normal termination of Gaussian 09 at Wed May 12 11:56:25 2021.
