 Entering Gaussian System, Link 0=/opt/cluster/programs/g09_d.01/g09//g09
 Input=/home/unibas/boittier/RDKit_G2/N.pdb/SCAN_1_2_6_8_S_17_20.0/11_SCAN_1_2_6_8_F/11_SCAN_N.pdb.com
 Output=/scratch/boittier/11_SCAN_N.pdb/11_SCAN_N.pdb.out
 Initial command:
 /opt/cluster/programs/g09_d.01/g09/l1.exe "/scratch/boittier/11_SCAN_N.pdb/Gau-145270.inp" -scrdir="/scratch/boittier/11_SCAN_N.pdb/"
 Entering Link 1 = /opt/cluster/programs/g09_d.01/g09/l1.exe PID=    145271.
  
 Copyright (c) 1988,1990,1992,1993,1995,1998,2003,2009,2013,
            Gaussian, Inc.  All Rights Reserved.
  
 This is part of the Gaussian(R) 09 program.  It is based on
 the Gaussian(R) 03 system (copyright 2003, Gaussian, Inc.),
 the Gaussian(R) 98 system (copyright 1998, Gaussian, Inc.),
 the Gaussian(R) 94 system (copyright 1995, Gaussian, Inc.),
 the Gaussian 92(TM) system (copyright 1992, Gaussian, Inc.),
 the Gaussian 90(TM) system (copyright 1990, Gaussian, Inc.),
 the Gaussian 88(TM) system (copyright 1988, Gaussian, Inc.),
 the Gaussian 86(TM) system (copyright 1986, Carnegie Mellon
 University), and the Gaussian 82(TM) system (copyright 1983,
 Carnegie Mellon University). Gaussian is a federally registered
 trademark of Gaussian, Inc.
  
 This software contains proprietary and confidential information,
 including trade secrets, belonging to Gaussian, Inc.
  
 This software is provided under written license and may be
 used, copied, transmitted, or stored only in accord with that
 written license.
  
 The following legend is applicable only to US Government
 contracts under FAR:
  
                    RESTRICTED RIGHTS LEGEND
  
 Use, reproduction and disclosure by the US Government is
 subject to restrictions as set forth in subparagraphs (a)
 and (c) of the Commercial Computer Software - Restricted
 Rights clause in FAR 52.227-19.
  
 Gaussian, Inc.
 340 Quinnipiac St., Bldg. 40, Wallingford CT 06492
  
  
 ---------------------------------------------------------------
 Warning -- This program may not be used in any manner that
 competes with the business of Gaussian, Inc. or will provide
 assistance to any competitor of Gaussian, Inc.  The licensee
 of this program is prohibited from giving any competitor of
 Gaussian, Inc. access to this program.  By using this program,
 the user acknowledges that Gaussian, Inc. is engaged in the
 business of creating and licensing software in the field of
 computational chemistry and represents and warrants to the
 licensee that it is not a competitor of Gaussian, Inc. and that
 it will not use this program in any manner prohibited above.
 ---------------------------------------------------------------
  

 Cite this work as:
 Gaussian 09, Revision D.01,
 M. J. Frisch, G. W. Trucks, H. B. Schlegel, G. E. Scuseria, 
 M. A. Robb, J. R. Cheeseman, G. Scalmani, V. Barone, B. Mennucci, 
 G. A. Petersson, H. Nakatsuji, M. Caricato, X. Li, H. P. Hratchian, 
 A. F. Izmaylov, J. Bloino, G. Zheng, J. L. Sonnenberg, M. Hada, 
 M. Ehara, K. Toyota, R. Fukuda, J. Hasegawa, M. Ishida, T. Nakajima, 
 Y. Honda, O. Kitao, H. Nakai, T. Vreven, J. A. Montgomery, Jr., 
 J. E. Peralta, F. Ogliaro, M. Bearpark, J. J. Heyd, E. Brothers, 
 K. N. Kudin, V. N. Staroverov, T. Keith, R. Kobayashi, J. Normand, 
 K. Raghavachari, A. Rendell, J. C. Burant, S. S. Iyengar, J. Tomasi, 
 M. Cossi, N. Rega, J. M. Millam, M. Klene, J. E. Knox, J. B. Cross, 
 V. Bakken, C. Adamo, J. Jaramillo, R. Gomperts, R. E. Stratmann, 
 O. Yazyev, A. J. Austin, R. Cammi, C. Pomelli, J. W. Ochterski, 
 R. L. Martin, K. Morokuma, V. G. Zakrzewski, G. A. Voth, 
 P. Salvador, J. J. Dannenberg, S. Dapprich, A. D. Daniels, 
 O. Farkas, J. B. Foresman, J. V. Ortiz, J. Cioslowski, 
 and D. J. Fox, Gaussian, Inc., Wallingford CT, 2013.
 
 ******************************************
 Gaussian 09:  ES64L-G09RevD.01 24-Apr-2013
                26-May-2021 
 ******************************************
 %chk=/home/unibas/boittier/RDKit_G2/N.pdb/SCAN_1_2_6_8_S_17_20.0/11_SCAN_1_2_6_8
 _F/N.pdb.chk
 %nproc=8
 Will use up to    8 processors via shared memory.
 %mem=16GB
 -----------------------------
 #p wB97XD/6-31+G Opt=ModRedun
 -----------------------------
 1/14=-1,18=120,19=15,26=3,38=1/1,3;
 2/9=110,12=2,17=6,18=5,40=1/2;
 3/5=1,6=6,7=10,11=2,16=1,25=1,30=1,71=1,74=-58/1,2,3;
 4//1;
 5/5=2,38=5/2;
 6/7=2,8=2,9=2,10=2,28=1/1;
 7//1,2,3,16;
 1/14=-1,18=20,19=15,26=3/3(2);
 2/9=110/2;
 99//99;
 2/9=110/2;
 3/5=1,6=6,7=10,11=2,16=1,25=1,30=1,71=1,74=-58/1,2,3;
 4/5=5,16=3,69=1/1;
 5/5=2,38=5/2;
 7//1,2,3,16;
 1/14=-1,18=20,19=15,26=3/3(-5);
 2/9=110/2;
 6/7=2,8=2,9=2,10=2,19=2,28=1/1;
 99/9=1/99;
 Leave Link    1 at Wed May 26 09:20:48 2021, MaxMem=  2147483648 cpu:         0.3
 (Enter /opt/cluster/programs/g09_d.01/g09/l101.exe)
 -----
 N.pdb
 -----
 Symbolic Z-matrix:
 Charge =  0 Multiplicity = 1
 C                     1.87492   1.22296  -0.01386 
 C                     1.50599  -0.22634  -0.14776 
 H                     1.62595   1.7799   -0.92235 
 H                     2.94089   1.30855   0.19999 
 H                     1.31159   1.68104   0.80759 
 C                     0.1495   -0.58248  -0.7591 
 O                     2.2736   -1.13837   0.16869 
 C                    -1.03495  -0.04196  -0.0088 
 H                     0.06645  -1.67097  -0.78084 
 H                     0.09245  -0.20371  -1.78488 
 F                    -0.97556  -0.32532   1.35066 
 F                    -2.22484  -0.57737  -0.48655 
 F                    -1.15504   1.34481  -0.11877 
 
 The following ModRedundant input section has been read:
 D       1       2       6       8 F                                           
 
 NAtoms=     13 NQM=       13 NQMF=       0 NMMI=      0 NMMIF=      0
                NMic=       0 NMicF=      0.
                    Isotopes and Nuclear Properties:
 (Nuclear quadrupole moments (NQMom) in fm**2, nuclear magnetic moments (NMagM)
  in nuclear magnetons)

  Atom         1           2           3           4           5           6           7           8           9          10
 IAtWgt=          12          12           1           1           1          12          16          12           1           1
 AtmWgt=  12.0000000  12.0000000   1.0078250   1.0078250   1.0078250  12.0000000  15.9949146  12.0000000   1.0078250   1.0078250
 NucSpn=           0           0           1           1           1           0           0           0           1           1
 AtZEff=   0.0000000   0.0000000   0.0000000   0.0000000   0.0000000   0.0000000   0.0000000   0.0000000   0.0000000   0.0000000
 NQMom=    0.0000000   0.0000000   0.0000000   0.0000000   0.0000000   0.0000000   0.0000000   0.0000000   0.0000000   0.0000000
 NMagM=    0.0000000   0.0000000   2.7928460   2.7928460   2.7928460   0.0000000   0.0000000   0.0000000   2.7928460   2.7928460
 AtZNuc=   6.0000000   6.0000000   1.0000000   1.0000000   1.0000000   6.0000000   8.0000000   6.0000000   1.0000000   1.0000000

  Atom        11          12          13
 IAtWgt=          19          19          19
 AtmWgt=  18.9984033  18.9984033  18.9984033
 NucSpn=           1           1           1
 AtZEff=   0.0000000   0.0000000   0.0000000
 NQMom=    0.0000000   0.0000000   0.0000000
 NMagM=    2.6288670   2.6288670   2.6288670
 AtZNuc=   9.0000000   9.0000000   9.0000000
 Leave Link  101 at Wed May 26 09:20:48 2021, MaxMem=  2147483648 cpu:         4.2
 (Enter /opt/cluster/programs/g09_d.01/g09/l103.exe)

 GradGradGradGradGradGradGradGradGradGradGradGradGradGradGradGradGradGrad
 Berny optimization.
 Initialization pass.
                           ----------------------------
                           !    Initial Parameters    !
                           ! (Angstroms and Degrees)  !
 --------------------------                            --------------------------
 ! Name  Definition              Value          Derivative Info.                !
 --------------------------------------------------------------------------------
 ! R1    R(1,2)                  1.5015         estimate D2E/DX2                !
 ! R2    R(1,3)                  1.0943         estimate D2E/DX2                !
 ! R3    R(1,4)                  1.0906         estimate D2E/DX2                !
 ! R4    R(1,5)                  1.0963         estimate D2E/DX2                !
 ! R5    R(2,6)                  1.5299         estimate D2E/DX2                !
 ! R6    R(2,7)                  1.2334         estimate D2E/DX2                !
 ! R7    R(6,8)                  1.5027         estimate D2E/DX2                !
 ! R8    R(6,9)                  1.0919         estimate D2E/DX2                !
 ! R9    R(6,10)                 1.095          estimate D2E/DX2                !
 ! R10   R(8,11)                 1.3899         estimate D2E/DX2                !
 ! R11   R(8,12)                 1.3895         estimate D2E/DX2                !
 ! R12   R(8,13)                 1.3963         estimate D2E/DX2                !
 ! A1    A(2,1,3)              111.1807         estimate D2E/DX2                !
 ! A2    A(2,1,4)              109.4751         estimate D2E/DX2                !
 ! A3    A(2,1,5)              110.1122         estimate D2E/DX2                !
 ! A4    A(3,1,4)              110.1964         estimate D2E/DX2                !
 ! A5    A(3,1,5)              107.0067         estimate D2E/DX2                !
 ! A6    A(4,1,5)              108.8156         estimate D2E/DX2                !
 ! A7    A(1,2,6)              118.5663         estimate D2E/DX2                !
 ! A8    A(1,2,7)              122.5452         estimate D2E/DX2                !
 ! A9    A(6,2,7)              118.83           estimate D2E/DX2                !
 ! A10   A(2,6,8)              114.5586         estimate D2E/DX2                !
 ! A11   A(2,6,9)              107.906          estimate D2E/DX2                !
 ! A12   A(2,6,10)             109.8779         estimate D2E/DX2                !
 ! A13   A(8,6,9)              107.9732         estimate D2E/DX2                !
 ! A14   A(8,6,10)             107.5941         estimate D2E/DX2                !
 ! A15   A(9,6,10)             108.798          estimate D2E/DX2                !
 ! A16   A(6,8,11)             112.4173         estimate D2E/DX2                !
 ! A17   A(6,8,12)             111.3895         estimate D2E/DX2                !
 ! A18   A(6,8,13)             112.6879         estimate D2E/DX2                !
 ! A19   A(11,8,12)            107.1172         estimate D2E/DX2                !
 ! A20   A(11,8,13)            106.45           estimate D2E/DX2                !
 ! A21   A(12,8,13)            106.3776         estimate D2E/DX2                !
 ! D1    D(3,1,2,6)            -44.1335         estimate D2E/DX2                !
 ! D2    D(3,1,2,7)            133.0514         estimate D2E/DX2                !
 ! D3    D(4,1,2,6)           -166.1219         estimate D2E/DX2                !
 ! D4    D(4,1,2,7)             11.063          estimate D2E/DX2                !
 ! D5    D(5,1,2,6)             74.2869         estimate D2E/DX2                !
 ! D6    D(5,1,2,7)           -108.5282         estimate D2E/DX2                !
 ! D7    D(1,2,6,8)            -60.2166         Frozen                          !
 ! D8    D(1,2,6,9)            179.5064         estimate D2E/DX2                !
 ! D9    D(1,2,6,10)            61.0225         estimate D2E/DX2                !
 ! D10   D(7,2,6,8)            122.4921         estimate D2E/DX2                !
 ! D11   D(7,2,6,9)              2.2151         estimate D2E/DX2                !
 ! D12   D(7,2,6,10)          -116.2688         estimate D2E/DX2                !
 ! D13   D(2,6,8,11)           -50.0622         estimate D2E/DX2                !
 ! D14   D(2,6,8,12)          -170.2953         estimate D2E/DX2                !
 ! D15   D(2,6,8,13)            70.2346         estimate D2E/DX2                !
 ! D16   D(9,6,8,11)            70.1774         estimate D2E/DX2                !
 ! D17   D(9,6,8,12)           -50.0556         estimate D2E/DX2                !
 ! D18   D(9,6,8,13)          -169.5257         estimate D2E/DX2                !
 ! D19   D(10,6,8,11)         -172.5477         estimate D2E/DX2                !
 ! D20   D(10,6,8,12)           67.2192         estimate D2E/DX2                !
 ! D21   D(10,6,8,13)          -52.2509         estimate D2E/DX2                !
 --------------------------------------------------------------------------------
 Trust Radius=3.00D-01 FncErr=1.00D-07 GrdErr=1.00D-06
 Number of steps in this run=     64 maximum allowed number of steps=    100.
 GradGradGradGradGradGradGradGradGradGradGradGradGradGradGradGradGradGrad

 Leave Link  103 at Wed May 26 09:20:49 2021, MaxMem=  2147483648 cpu:         0.1
 (Enter /opt/cluster/programs/g09_d.01/g09/l202.exe)
                          Input orientation:                          
 ---------------------------------------------------------------------
 Center     Atomic      Atomic             Coordinates (Angstroms)
 Number     Number       Type             X           Y           Z
 ---------------------------------------------------------------------
      1          6           0        1.874923    1.222964   -0.013864
      2          6           0        1.505993   -0.226340   -0.147756
      3          1           0        1.625949    1.779900   -0.922354
      4          1           0        2.940887    1.308548    0.199989
      5          1           0        1.311589    1.681042    0.807586
      6          6           0        0.149499   -0.582476   -0.759101
      7          8           0        2.273596   -1.138371    0.168692
      8          6           0       -1.034951   -0.041962   -0.008796
      9          1           0        0.066448   -1.670971   -0.780837
     10          1           0        0.092452   -0.203712   -1.784880
     11          9           0       -0.975557   -0.325319    1.350661
     12          9           0       -2.224836   -0.577372   -0.486551
     13          9           0       -1.155037    1.344808   -0.118769
 ---------------------------------------------------------------------
                    Distance matrix (angstroms):
                    1          2          3          4          5
     1  C    0.000000
     2  C    1.501505   0.000000
     3  H    1.094312   2.153924   0.000000
     4  H    1.090567   2.129725   1.791895   0.000000
     5  H    1.096340   2.142096   1.761047   1.778353   0.000000
     6  C    2.606162   1.529919   2.790587   3.505378   2.988055
     7  O    2.401701   1.233351   3.182159   2.536468   3.046758
     8  C    3.172921   2.551412   3.351740   4.204136   3.023487
     9  H    3.497669   2.135425   3.789536   4.254639   3.912730
    10  H    2.889482   2.163050   2.651468   3.786848   3.429209
    11  F    3.519140   2.900541   4.045538   4.396829   3.090542
    12  F    4.502518   3.762591   4.535989   5.541906   4.391073
    13  F    3.034223   3.090377   2.927275   4.108469   2.656206
                    6          7          8          9         10
     6  C    0.000000
     7  O    2.383612   0.000000
     8  C    1.502676   3.490000   0.000000
     9  H    1.091875   2.461051   2.112533   0.000000
    10  H    1.094961   3.073666   2.109899   1.778097   0.000000
    11  F    2.404782   3.551774   1.389943   2.727607   3.314672
    12  F    2.389932   4.580388   1.389511   2.555884   2.682369
    13  F    2.413765   4.243152   1.396297   3.320434   2.594238
                   11         12         13
    11  F    0.000000
    12  F    2.235973   0.000000
    13  F    2.231762   2.230361   0.000000
 Stoichiometry    C4H5F3O
 Framework group  C1[X(C4H5F3O)]
 Deg. of freedom    33
 Full point group                 C1      NOp   1
 Largest Abelian subgroup         C1      NOp   1
 Largest concise Abelian subgroup C1      NOp   1
                         Standard orientation:                         
 ---------------------------------------------------------------------
 Center     Atomic      Atomic             Coordinates (Angstroms)
 Number     Number       Type             X           Y           Z
 ---------------------------------------------------------------------
      1          6           0        1.874923    1.222964   -0.013864
      2          6           0        1.505993   -0.226340   -0.147756
      3          1           0        1.625949    1.779900   -0.922354
      4          1           0        2.940887    1.308548    0.199989
      5          1           0        1.311589    1.681042    0.807586
      6          6           0        0.149499   -0.582476   -0.759101
      7          8           0        2.273596   -1.138371    0.168692
      8          6           0       -1.034951   -0.041962   -0.008796
      9          1           0        0.066448   -1.670971   -0.780837
     10          1           0        0.092452   -0.203712   -1.784880
     11          9           0       -0.975557   -0.325319    1.350661
     12          9           0       -2.224836   -0.577372   -0.486551
     13          9           0       -1.155037    1.344808   -0.118769
 ---------------------------------------------------------------------
 Rotational constants (GHZ):      3.3996217      1.3748547      1.2275731
 Leave Link  202 at Wed May 26 09:20:49 2021, MaxMem=  2147483648 cpu:         0.0
 (Enter /opt/cluster/programs/g09_d.01/g09/l301.exe)
 Standard basis: 6-31+G (6D, 7F)
 Ernie: Thresh=  0.10000D-02 Tol=  0.10000D-05 Strict=F.
 There are   114 symmetry adapted cartesian basis functions of A   symmetry.
 There are   114 symmetry adapted basis functions of A   symmetry.
   114 basis functions,   228 primitive gaussians,   114 cartesian basis functions
    32 alpha electrons       32 beta electrons
       nuclear repulsion energy       404.9945571012 Hartrees.
 IExCor= 4639 DFT=T Ex+Corr=wB97XD ExCW=0 ScaHFX=  1.000000
 ScaDFX=  1.000000  1.000000  1.000000  1.000000 ScalE2=  1.000000  1.000000
 IRadAn=      0 IRanWt=     -1 IRanGd=            0 ICorTp=0 IEmpDi=121
  HFx wShort=  0.000000 wLong=  0.200000 cFull=  0.222036 cShort=  0.000000 cLong=  0.777964
  DFx wShort=  0.000000 wLong=  0.200000 cFull=  0.000000 cShort=  0.000000 cLong=  1.000000
 NAtoms=   13 NActive=   13 NUniq=   13 SFac= 1.00D+00 NAtFMM=   60 NAOKFM=F Big=F
 Integral buffers will be    131072 words long.
 Raffenetti 2 integral format.
 Two-electron integral symmetry is turned on.
 R6Disp:  Grimme-D2 Dispersion energy=       -0.0062185899 Hartrees.
 Nuclear repulsion after empirical dispersion term =      404.9883385113 Hartrees.
 Leave Link  301 at Wed May 26 09:20:49 2021, MaxMem=  2147483648 cpu:         0.3
 (Enter /opt/cluster/programs/g09_d.01/g09/l302.exe)
 NPDir=0 NMtPBC=     1 NCelOv=     1 NCel=       1 NClECP=     1 NCelD=      1
         NCelK=      1 NCelE2=     1 NClLst=     1 CellRange=     0.0.
 One-electron integrals computed using PRISM.
 NBasis=   114 RedAO= T EigKep=  1.01D-04  NBF=   114
 NBsUse=   114 1.00D-06 EigRej= -1.00D+00 NBFU=   114
 Precomputing XC quadrature grid using
 IXCGrd= 4 IRadAn=           0 IRanWt=          -1 IRanGd=           0 AccXCQ= 0.00D+00.
 Generated NRdTot=       0 NPtTot=           0 NUsed=           0 NTot=          32
 NSgBfM=   114   114   114   114   114 MxSgAt=    13 MxSgA2=    13.
 Leave Link  302 at Wed May 26 09:20:49 2021, MaxMem=  2147483648 cpu:         1.0
 (Enter /opt/cluster/programs/g09_d.01/g09/l303.exe)
 DipDrv:  MaxL=1.
 Leave Link  303 at Wed May 26 09:20:49 2021, MaxMem=  2147483648 cpu:         0.3
 (Enter /opt/cluster/programs/g09_d.01/g09/l401.exe)
 ExpMin= 4.38D-02 ExpMax= 7.00D+03 ExpMxC= 1.05D+03 IAcc=2 IRadAn=         4 AccDes= 0.00D+00
 Harris functional with IExCor= 4639 and IRadAn=       4 diagonalized for initial guess.
 HarFok:  IExCor= 4639 AccDes= 0.00D+00 IRadAn=         4 IDoV= 1 UseB2=F ITyADJ=14
 ICtDFT=  3500011 ScaDFX=  1.000000  1.000000  1.000000  1.000000
 FoFCou: FMM=F IPFlag=           0 FMFlag=      100000 FMFlg1=           0
         NFxFlg=           0 DoJE=T BraDBF=F KetDBF=T FulRan=T
         wScrn=  0.000000 ICntrl=     500 IOpCl=  0 I1Cent=   200000004 NGrid=           0
         NMat0=    1 NMatS0=      1 NMatT0=    0 NMatD0=    1 NMtDS0=    0 NMtDT0=    0
 Petite list used in FoFCou.
 Harris En= -511.190631559909    
 JPrj=0 DoOrth=F DoCkMO=F.
 Leave Link  401 at Wed May 26 09:20:49 2021, MaxMem=  2147483648 cpu:         2.1
 (Enter /opt/cluster/programs/g09_d.01/g09/l502.exe)
 Closed shell SCF:
 Using DIIS extrapolation, IDIIS=  1040.
 Integral symmetry usage will be decided dynamically.
 Keep R1 ints in memory in canonical form, NReq=43969700.
 IVT=       59316 IEndB=       59316 NGot=  2147483648 MDV=  2104449753
 LenX=  2104449753 LenY=  2104436316
 Requested convergence on RMS density matrix=1.00D-08 within 128 cycles.
 Requested convergence on MAX density matrix=1.00D-06.
 Requested convergence on             energy=1.00D-06.
 No special actions if energy rises.
 FoFCou: FMM=F IPFlag=           0 FMFlag=           0 FMFlg1=           0
         NFxFlg=           0 DoJE=F BraDBF=F KetDBF=F FulRan=T
         wScrn=  0.000000 ICntrl=     600 IOpCl=  0 I1Cent=           0 NGrid=           0
         NMat0=    1 NMatS0=   6555 NMatT0=    0 NMatD0=    1 NMtDS0=    0 NMtDT0=    0
 Symmetry not used in FoFCou.

 Cycle   1  Pass 1  IDiag  1:
 E= -529.580935261272    
 DIIS: error= 8.44D-02 at cycle   1 NSaved=   1.
 NSaved= 1 IEnMin= 1 EnMin= -529.580935261272     IErMin= 1 ErrMin= 8.44D-02
 ErrMax= 8.44D-02  0.00D+00 EMaxC= 1.00D-01 BMatC= 5.32D-01 BMatP= 5.32D-01
 IDIUse=3 WtCom= 1.56D-01 WtEn= 8.44D-01
 Coeff-Com:  0.100D+01
 Coeff-En:   0.100D+01
 Coeff:      0.100D+01
 Gap=     0.414 Goal=   None    Shift=    0.000
 GapD=    0.414 DampG=2.000 DampE=0.500 DampFc=1.0000 IDamp=-1.
 RMSDP=2.13D-02 MaxDP=8.64D-01              OVMax= 1.32D-01

 Cycle   2  Pass 1  IDiag  1:
 E= -529.731941534691     Delta-E=       -0.151006273418 Rises=F Damp=F
 DIIS: error= 7.05D-02 at cycle   2 NSaved=   2.
 NSaved= 2 IEnMin= 2 EnMin= -529.731941534691     IErMin= 2 ErrMin= 7.05D-02
 ErrMax= 7.05D-02  0.00D+00 EMaxC= 1.00D-01 BMatC= 3.18D-01 BMatP= 5.32D-01
 IDIUse=3 WtCom= 2.95D-01 WtEn= 7.05D-01
 Coeff-Com:  0.431D+00 0.569D+00
 Coeff-En:   0.324D+00 0.676D+00
 Coeff:      0.355D+00 0.645D+00
 Gap=     0.542 Goal=   None    Shift=    0.000
 RMSDP=4.26D-03 MaxDP=7.72D-02 DE=-1.51D-01 OVMax= 6.33D-02

 Cycle   3  Pass 1  IDiag  1:
 E= -529.907630007625     Delta-E=       -0.175688472934 Rises=F Damp=F
 DIIS: error= 1.69D-02 at cycle   3 NSaved=   3.
 NSaved= 3 IEnMin= 3 EnMin= -529.907630007625     IErMin= 3 ErrMin= 1.69D-02
 ErrMax= 1.69D-02  0.00D+00 EMaxC= 1.00D-01 BMatC= 2.88D-02 BMatP= 3.18D-01
 IDIUse=3 WtCom= 8.31D-01 WtEn= 1.69D-01
 Coeff-Com:  0.965D-01 0.274D+00 0.630D+00
 Coeff-En:   0.000D+00 0.000D+00 0.100D+01
 Coeff:      0.802D-01 0.228D+00 0.692D+00
 Gap=     0.387 Goal=   None    Shift=    0.000
 RMSDP=4.20D-03 MaxDP=1.45D-01 DE=-1.76D-01 OVMax= 3.63D-02

 Cycle   4  Pass 1  IDiag  1:
 E= -529.923643942733     Delta-E=       -0.016013935109 Rises=F Damp=F
 DIIS: error= 5.26D-03 at cycle   4 NSaved=   4.
 NSaved= 4 IEnMin= 4 EnMin= -529.923643942733     IErMin= 4 ErrMin= 5.26D-03
 ErrMax= 5.26D-03  0.00D+00 EMaxC= 1.00D-01 BMatC= 4.78D-03 BMatP= 2.88D-02
 IDIUse=3 WtCom= 9.47D-01 WtEn= 5.26D-02
 Coeff-Com: -0.640D-02 0.258D-01 0.338D+00 0.643D+00
 Coeff-En:   0.000D+00 0.000D+00 0.116D+00 0.884D+00
 Coeff:     -0.606D-02 0.244D-01 0.326D+00 0.656D+00
 Gap=     0.377 Goal=   None    Shift=    0.000
 RMSDP=8.85D-04 MaxDP=1.38D-02 DE=-1.60D-02 OVMax= 1.78D-02

 Cycle   5  Pass 1  IDiag  1:
 E= -529.926949873525     Delta-E=       -0.003305930792 Rises=F Damp=F
 DIIS: error= 1.14D-03 at cycle   5 NSaved=   5.
 NSaved= 5 IEnMin= 5 EnMin= -529.926949873525     IErMin= 5 ErrMin= 1.14D-03
 ErrMax= 1.14D-03  0.00D+00 EMaxC= 1.00D-01 BMatC= 2.90D-04 BMatP= 4.78D-03
 IDIUse=3 WtCom= 9.89D-01 WtEn= 1.14D-02
 Coeff-Com: -0.925D-02-0.192D-02 0.158D+00 0.379D+00 0.475D+00
 Coeff-En:   0.000D+00 0.000D+00 0.000D+00 0.000D+00 0.100D+01
 Coeff:     -0.915D-02-0.190D-02 0.156D+00 0.374D+00 0.481D+00
 Gap=     0.381 Goal=   None    Shift=    0.000
 RMSDP=6.88D-04 MaxDP=2.64D-02 DE=-3.31D-03 OVMax= 4.93D-03

 Cycle   6  Pass 1  IDiag  1:
 E= -529.927160949803     Delta-E=       -0.000211076278 Rises=F Damp=F
 DIIS: error= 2.04D-04 at cycle   6 NSaved=   6.
 NSaved= 6 IEnMin= 6 EnMin= -529.927160949803     IErMin= 6 ErrMin= 2.04D-04
 ErrMax= 2.04D-04  0.00D+00 EMaxC= 1.00D-01 BMatC= 6.62D-06 BMatP= 2.90D-04
 IDIUse=3 WtCom= 9.98D-01 WtEn= 2.04D-03
 Coeff-Com: -0.959D-03-0.466D-02-0.103D-01-0.320D-02 0.112D+00 0.907D+00
 Coeff-En:   0.000D+00 0.000D+00 0.000D+00 0.000D+00 0.000D+00 0.100D+01
 Coeff:     -0.957D-03-0.465D-02-0.103D-01-0.319D-02 0.112D+00 0.907D+00
 Gap=     0.380 Goal=   None    Shift=    0.000
 RMSDP=1.79D-04 MaxDP=6.93D-03 DE=-2.11D-04 OVMax= 1.37D-03

 Cycle   7  Pass 1  IDiag  1:
 E= -529.927169007134     Delta-E=       -0.000008057331 Rises=F Damp=F
 DIIS: error= 6.26D-05 at cycle   7 NSaved=   7.
 NSaved= 7 IEnMin= 7 EnMin= -529.927169007134     IErMin= 7 ErrMin= 6.26D-05
 ErrMax= 6.26D-05  0.00D+00 EMaxC= 1.00D-01 BMatC= 6.20D-07 BMatP= 6.62D-06
 IDIUse=1 WtCom= 1.00D+00 WtEn= 0.00D+00
 Coeff-Com:  0.423D-03-0.171D-02-0.174D-01-0.325D-01-0.790D-02 0.309D+00
 Coeff-Com:  0.750D+00
 Coeff:      0.423D-03-0.171D-02-0.174D-01-0.325D-01-0.790D-02 0.309D+00
 Coeff:      0.750D+00
 Gap=     0.380 Goal=   None    Shift=    0.000
 RMSDP=6.02D-05 MaxDP=2.29D-03 DE=-8.06D-06 OVMax= 3.13D-04

 Cycle   8  Pass 1  IDiag  1:
 E= -529.927169830988     Delta-E=       -0.000000823854 Rises=F Damp=F
 DIIS: error= 1.62D-05 at cycle   8 NSaved=   8.
 NSaved= 8 IEnMin= 8 EnMin= -529.927169830988     IErMin= 8 ErrMin= 1.62D-05
 ErrMax= 1.62D-05  0.00D+00 EMaxC= 1.00D-01 BMatC= 2.17D-08 BMatP= 6.20D-07
 IDIUse=1 WtCom= 1.00D+00 WtEn= 0.00D+00
 Coeff-Com:  0.688D-04 0.186D-03-0.188D-03-0.888D-03-0.108D-01-0.407D-01
 Coeff-Com:  0.456D-01 0.101D+01
 Coeff:      0.688D-04 0.186D-03-0.188D-03-0.888D-03-0.108D-01-0.407D-01
 Coeff:      0.456D-01 0.101D+01
 Gap=     0.380 Goal=   None    Shift=    0.000
 RMSDP=1.52D-05 MaxDP=5.11D-04 DE=-8.24D-07 OVMax= 1.53D-04

 Cycle   9  Pass 1  IDiag  1:
 E= -529.927169880665     Delta-E=       -0.000000049677 Rises=F Damp=F
 DIIS: error= 6.77D-06 at cycle   9 NSaved=   9.
 NSaved= 9 IEnMin= 9 EnMin= -529.927169880665     IErMin= 9 ErrMin= 6.77D-06
 ErrMax= 6.77D-06  0.00D+00 EMaxC= 1.00D-01 BMatC= 5.68D-09 BMatP= 2.17D-08
 IDIUse=1 WtCom= 1.00D+00 WtEn= 0.00D+00
 Coeff-Com: -0.766D-06 0.211D-03 0.123D-02 0.213D-02-0.454D-02-0.400D-01
 Coeff-Com: -0.330D-01 0.433D+00 0.641D+00
 Coeff:     -0.766D-06 0.211D-03 0.123D-02 0.213D-02-0.454D-02-0.400D-01
 Coeff:     -0.330D-01 0.433D+00 0.641D+00
 Gap=     0.380 Goal=   None    Shift=    0.000
 RMSDP=2.30D-06 MaxDP=5.68D-05 DE=-4.97D-08 OVMax= 5.18D-05

 Cycle  10  Pass 1  IDiag  1:
 E= -529.927169888546     Delta-E=       -0.000000007881 Rises=F Damp=F
 DIIS: error= 4.36D-06 at cycle  10 NSaved=  10.
 NSaved=10 IEnMin=10 EnMin= -529.927169888546     IErMin=10 ErrMin= 4.36D-06
 ErrMax= 4.36D-06  0.00D+00 EMaxC= 1.00D-01 BMatC= 8.58D-10 BMatP= 5.68D-09
 IDIUse=1 WtCom= 1.00D+00 WtEn= 0.00D+00
 Coeff-Com: -0.174D-04 0.279D-04 0.495D-03 0.107D-02 0.106D-02-0.277D-02
 Coeff-Com: -0.224D-01-0.114D+00 0.200D+00 0.937D+00
 Coeff:     -0.174D-04 0.279D-04 0.495D-03 0.107D-02 0.106D-02-0.277D-02
 Coeff:     -0.224D-01-0.114D+00 0.200D+00 0.937D+00
 Gap=     0.380 Goal=   None    Shift=    0.000
 RMSDP=1.51D-06 MaxDP=2.71D-05 DE=-7.88D-09 OVMax= 5.21D-05

 Cycle  11  Pass 1  IDiag  1:
 E= -529.927169891578     Delta-E=       -0.000000003032 Rises=F Damp=F
 DIIS: error= 1.86D-06 at cycle  11 NSaved=  11.
 NSaved=11 IEnMin=11 EnMin= -529.927169891578     IErMin=11 ErrMin= 1.86D-06
 ErrMax= 1.86D-06  0.00D+00 EMaxC= 1.00D-01 BMatC= 8.39D-11 BMatP= 8.58D-10
 IDIUse=1 WtCom= 1.00D+00 WtEn= 0.00D+00
 Coeff-Com:  0.164D-05-0.294D-04-0.190D-03-0.335D-03 0.570D-03 0.578D-02
 Coeff-Com:  0.446D-02-0.591D-01-0.889D-01-0.332D-01 0.117D+01
 Coeff:      0.164D-05-0.294D-04-0.190D-03-0.335D-03 0.570D-03 0.578D-02
 Coeff:      0.446D-02-0.591D-01-0.889D-01-0.332D-01 0.117D+01
 Gap=     0.380 Goal=   None    Shift=    0.000
 RMSDP=6.97D-07 MaxDP=1.42D-05 DE=-3.03D-09 OVMax= 3.06D-05

 Cycle  12  Pass 1  IDiag  1:
 E= -529.927169892235     Delta-E=       -0.000000000657 Rises=F Damp=F
 DIIS: error= 5.88D-07 at cycle  12 NSaved=  12.
 NSaved=12 IEnMin=12 EnMin= -529.927169892235     IErMin=12 ErrMin= 5.88D-07
 ErrMax= 5.88D-07  0.00D+00 EMaxC= 1.00D-01 BMatC= 1.83D-11 BMatP= 8.39D-11
 IDIUse=1 WtCom= 1.00D+00 WtEn= 0.00D+00
 Coeff-Com:  0.247D-05-0.121D-04-0.120D-03-0.244D-03-0.161D-04 0.155D-02
 Coeff-Com:  0.454D-02 0.938D-02-0.519D-01-0.183D+00 0.276D+00 0.944D+00
 Coeff:      0.247D-05-0.121D-04-0.120D-03-0.244D-03-0.161D-04 0.155D-02
 Coeff:      0.454D-02 0.938D-02-0.519D-01-0.183D+00 0.276D+00 0.944D+00
 Gap=     0.380 Goal=   None    Shift=    0.000
 RMSDP=2.72D-07 MaxDP=5.51D-06 DE=-6.57D-10 OVMax= 1.17D-05

 Cycle  13  Pass 1  IDiag  1:
 E= -529.927169892314     Delta-E=       -0.000000000080 Rises=F Damp=F
 DIIS: error= 1.47D-07 at cycle  13 NSaved=  13.
 NSaved=13 IEnMin=13 EnMin= -529.927169892314     IErMin=13 ErrMin= 1.47D-07
 ErrMax= 1.47D-07  0.00D+00 EMaxC= 1.00D-01 BMatC= 1.58D-12 BMatP= 1.83D-11
 IDIUse=1 WtCom= 1.00D+00 WtEn= 0.00D+00
 Coeff-Com: -0.267D-06 0.353D-05 0.252D-04 0.400D-04-0.527D-04-0.830D-03
 Coeff-Com: -0.618D-03 0.828D-02 0.111D-01 0.485D-02-0.164D+00-0.260D-01
 Coeff-Com:  0.117D+01
 Coeff:     -0.267D-06 0.353D-05 0.252D-04 0.400D-04-0.527D-04-0.830D-03
 Coeff:     -0.618D-03 0.828D-02 0.111D-01 0.485D-02-0.164D+00-0.260D-01
 Coeff:      0.117D+01
 Gap=     0.380 Goal=   None    Shift=    0.000
 RMSDP=1.10D-07 MaxDP=1.84D-06 DE=-7.99D-11 OVMax= 4.13D-06

 Cycle  14  Pass 1  IDiag  1:
 E= -529.927169892339     Delta-E=       -0.000000000025 Rises=F Damp=F
 DIIS: error= 1.70D-08 at cycle  14 NSaved=  14.
 NSaved=14 IEnMin=14 EnMin= -529.927169892339     IErMin=14 ErrMin= 1.70D-08
 ErrMax= 1.70D-08  0.00D+00 EMaxC= 1.00D-01 BMatC= 5.53D-14 BMatP= 1.58D-12
 IDIUse=1 WtCom= 1.00D+00 WtEn= 0.00D+00
 Coeff-Com: -0.831D-07 0.400D-06 0.377D-05 0.750D-05 0.975D-05-0.402D-04
 Coeff-Com: -0.107D-03-0.578D-03 0.119D-02 0.690D-02-0.456D-02-0.398D-01
 Coeff-Com: -0.276D-01 0.106D+01
 Coeff:     -0.831D-07 0.400D-06 0.377D-05 0.750D-05 0.975D-05-0.402D-04
 Coeff:     -0.107D-03-0.578D-03 0.119D-02 0.690D-02-0.456D-02-0.398D-01
 Coeff:     -0.276D-01 0.106D+01
 Gap=     0.380 Goal=   None    Shift=    0.000
 RMSDP=2.31D-08 MaxDP=9.67D-07 DE=-2.48D-11 OVMax= 3.55D-07

 Cycle  15  Pass 1  IDiag  1:
 E= -529.927169892338     Delta-E=        0.000000000001 Rises=F Damp=F
 DIIS: error= 7.30D-09 at cycle  15 NSaved=  15.
 NSaved=15 IEnMin=14 EnMin= -529.927169892339     IErMin=15 ErrMin= 7.30D-09
 ErrMax= 7.30D-09  0.00D+00 EMaxC= 1.00D-01 BMatC= 6.61D-15 BMatP= 5.53D-14
 IDIUse=1 WtCom= 1.00D+00 WtEn= 0.00D+00
 Coeff-Com: -0.928D-08-0.484D-07-0.182D-06 0.177D-06 0.713D-05 0.315D-04
 Coeff-Com:  0.422D-05-0.688D-03-0.196D-03 0.208D-02 0.774D-02-0.127D-01
 Coeff-Com: -0.719D-01 0.340D+00 0.736D+00
 Coeff:     -0.928D-08-0.484D-07-0.182D-06 0.177D-06 0.713D-05 0.315D-04
 Coeff:      0.422D-05-0.688D-03-0.196D-03 0.208D-02 0.774D-02-0.127D-01
 Coeff:     -0.719D-01 0.340D+00 0.736D+00
 Gap=     0.380 Goal=   None    Shift=    0.000
 RMSDP=4.26D-09 MaxDP=2.07D-07 DE= 1.48D-12 OVMax= 3.53D-08

 SCF Done:  E(RwB97XD) =  -529.927169892     A.U. after   15 cycles
            NFock= 15  Conv=0.43D-08     -V/T= 2.0052
 KE= 5.271908653305D+02 PE=-2.060282618861D+03 EE= 5.981762451271D+02
 Leave Link  502 at Wed May 26 09:20:53 2021, MaxMem=  2147483648 cpu:        31.4
 (Enter /opt/cluster/programs/g09_d.01/g09/l601.exe)
 Copying SCF densities to generalized density rwf, IOpCl= 0 IROHF=0.

 **********************************************************************

            Population analysis using the SCF density.

 **********************************************************************

 Orbital symmetries:
       Occupied  (A) (A) (A) (A) (A) (A) (A) (A) (A) (A) (A) (A)
                 (A) (A) (A) (A) (A) (A) (A) (A) (A) (A) (A) (A)
                 (A) (A) (A) (A) (A) (A) (A) (A)
       Virtual   (A) (A) (A) (A) (A) (A) (A) (A) (A) (A) (A) (A)
                 (A) (A) (A) (A) (A) (A) (A) (A) (A) (A) (A) (A)
                 (A) (A) (A) (A) (A) (A) (A) (A) (A) (A) (A) (A)
                 (A) (A) (A) (A) (A) (A) (A) (A) (A) (A) (A) (A)
                 (A) (A) (A) (A) (A) (A) (A) (A) (A) (A) (A) (A)
                 (A) (A) (A) (A) (A) (A) (A) (A) (A) (A) (A) (A)
                 (A) (A) (A) (A) (A) (A) (A) (A) (A) (A)
 The electronic state is 1-A.
 Alpha  occ. eigenvalues --  -24.89128 -24.89126 -24.89057 -19.30461 -10.59577
 Alpha  occ. eigenvalues --  -10.43887 -10.36307 -10.32169  -1.43961  -1.35495
 Alpha  occ. eigenvalues --   -1.35384  -1.19564  -0.95293  -0.87323  -0.80036
 Alpha  occ. eigenvalues --   -0.71061  -0.70304  -0.69175  -0.64249  -0.59616
 Alpha  occ. eigenvalues --   -0.58489  -0.57579  -0.56863  -0.55488  -0.54265
 Alpha  occ. eigenvalues --   -0.53712  -0.52631  -0.51660  -0.50661  -0.49703
 Alpha  occ. eigenvalues --   -0.46412  -0.37010
 Alpha virt. eigenvalues --    0.01036   0.05970   0.07928   0.09191   0.10179
 Alpha virt. eigenvalues --    0.10675   0.11185   0.12246   0.12598   0.13230
 Alpha virt. eigenvalues --    0.14104   0.15844   0.16596   0.16847   0.17496
 Alpha virt. eigenvalues --    0.18100   0.18246   0.19257   0.21968   0.22235
 Alpha virt. eigenvalues --    0.26378   0.26633   0.27943   0.28586   0.30905
 Alpha virt. eigenvalues --    0.33340   0.33986   0.35373   0.35695   0.37684
 Alpha virt. eigenvalues --    0.38589   0.39537   0.40100   0.40787   0.40972
 Alpha virt. eigenvalues --    0.42797   0.43728   0.44070   0.44541   0.44828
 Alpha virt. eigenvalues --    0.46349   0.49358   0.51957   0.52775   0.54217
 Alpha virt. eigenvalues --    0.69315   0.73374   0.76246   0.77700   0.80488
 Alpha virt. eigenvalues --    0.83206   0.85753   0.87758   0.90282   0.92482
 Alpha virt. eigenvalues --    0.96071   1.01529   1.10324   1.16272   1.18128
 Alpha virt. eigenvalues --    1.21947   1.22265   1.26143   1.35249   1.38824
 Alpha virt. eigenvalues --    1.42773   1.46743   1.49049   1.55562   1.59339
 Alpha virt. eigenvalues --    1.66602   1.68331   1.71051   1.72958   1.81068
 Alpha virt. eigenvalues --    1.81774   1.84310   1.85001   1.97959   2.30063
 Alpha virt. eigenvalues --    2.33264   2.65506
          Condensed to atoms (all electrons):
               1          2          3          4          5          6
     1  C    8.313751  -0.699680   0.313626   0.346574   0.326412  -1.923634
     2  C   -0.699680   6.161264  -0.019166  -0.022960  -0.004895  -0.473063
     3  H    0.313626  -0.019166   0.476570  -0.021632  -0.022536   0.055708
     4  H    0.346574  -0.022960  -0.021632   0.446137  -0.017842   0.027121
     5  H    0.326412  -0.004895  -0.022536  -0.017842   0.449573  -0.012273
     6  C   -1.923634  -0.473063   0.055708   0.027121  -0.012273   9.082481
     7  O   -0.158307   0.496196   0.003929  -0.005914   0.003245  -0.222096
     8  C    0.105425   0.089004  -0.021400  -0.002163   0.018428  -0.229452
     9  H    0.025428   0.014289  -0.000024  -0.000082  -0.000110   0.290915
    10  H    0.019552  -0.004880  -0.000512  -0.000063   0.000101   0.336421
    11  F   -0.013986   0.080217   0.000007  -0.000018   0.000215  -0.160982
    12  F   -0.011225   0.002430  -0.000059   0.000023   0.000217  -0.113452
    13  F    0.040433  -0.024041  -0.002211   0.000282  -0.002533  -0.125726
               7          8          9         10         11         12
     1  C   -0.158307   0.105425   0.025428   0.019552  -0.013986  -0.011225
     2  C    0.496196   0.089004   0.014289  -0.004880   0.080217   0.002430
     3  H    0.003929  -0.021400  -0.000024  -0.000512   0.000007  -0.000059
     4  H   -0.005914  -0.002163  -0.000082  -0.000063  -0.000018   0.000023
     5  H    0.003245   0.018428  -0.000110   0.000101   0.000215   0.000217
     6  C   -0.222096  -0.229452   0.290915   0.336421  -0.160982  -0.113452
     7  O    8.296461  -0.016281  -0.001609   0.001966  -0.000048  -0.001032
     8  C   -0.016281   5.338775  -0.026476  -0.054361   0.097832   0.147541
     9  H   -0.001609  -0.026476   0.419326  -0.018198  -0.004068  -0.001348
    10  H    0.001966  -0.054361  -0.018198   0.439990   0.007966  -0.004639
    11  F   -0.000048   0.097832  -0.004068   0.007966   9.281429  -0.059708
    12  F   -0.001032   0.147541  -0.001348  -0.004639  -0.059708   9.294551
    13  F   -0.000698   0.100409   0.007066  -0.005587  -0.049746  -0.052015
              13
     1  C    0.040433
     2  C   -0.024041
     3  H   -0.002211
     4  H    0.000282
     5  H   -0.002533
     6  C   -0.125726
     7  O   -0.000698
     8  C    0.100409
     9  H    0.007066
    10  H   -0.005587
    11  F   -0.049746
    12  F   -0.052015
    13  F    9.307196
 Mulliken charges:
               1
     1  C   -0.684369
     2  C    0.405285
     3  H    0.237701
     4  H    0.250536
     5  H    0.261998
     6  C   -0.531969
     7  O   -0.395813
     8  C    0.452718
     9  H    0.294892
    10  H    0.282245
    11  F   -0.179111
    12  F   -0.201283
    13  F   -0.192829
 Sum of Mulliken charges =   0.00000
 Mulliken charges with hydrogens summed into heavy atoms:
               1
     1  C    0.065865
     2  C    0.405285
     6  C    0.045168
     7  O   -0.395813
     8  C    0.452718
    11  F   -0.179111
    12  F   -0.201283
    13  F   -0.192829
 Electronic spatial extent (au):  <R**2>=            969.6338
 Charge=              0.0000 electrons
 Dipole moment (field-independent basis, Debye):
    X=              0.5414    Y=              1.5966    Z=             -2.1563  Tot=              2.7372
 Quadrupole moment (field-independent basis, Debye-Ang):
   XX=            -54.5940   YY=            -47.3379   ZZ=            -44.4078
   XY=              6.8556   XZ=             -1.4170   YZ=              1.6866
 Traceless Quadrupole moment (field-independent basis, Debye-Ang):
   XX=             -5.8141   YY=              1.4420   ZZ=              4.3721
   XY=              6.8556   XZ=             -1.4170   YZ=              1.6866
 Octapole moment (field-independent basis, Debye-Ang**2):
  XXX=            -27.3578  YYY=              0.8185  ZZZ=             -0.9138  XYY=             -9.5629
  XXY=             18.1182  XXZ=              0.9769  XZZ=             -4.6074  YZZ=              1.5603
  YYZ=              0.6213  XYZ=              1.6139
 Hexadecapole moment (field-independent basis, Debye-Ang**3):
 XXXX=           -757.9333 YYYY=           -255.5959 ZZZZ=           -137.4915 XXXY=             30.7759
 XXXZ=            -10.7080 YYYX=              9.8589 YYYZ=              0.6204 ZZZX=              1.8193
 ZZZY=             -2.0371 XXYY=           -176.0503 XXZZ=           -143.4694 YYZZ=            -63.7453
 XXYZ=              2.4598 YYXZ=             -1.8744 ZZXY=             -1.9941
 N-N= 4.049883385113D+02 E-N=-2.060282618908D+03  KE= 5.271908653305D+02
 No NMR shielding tensors so no spin-rotation constants.
 Leave Link  601 at Wed May 26 09:20:54 2021, MaxMem=  2147483648 cpu:         0.6
 (Enter /opt/cluster/programs/g09_d.01/g09/l701.exe)
 Compute integral first derivatives.
 ... and contract with generalized density number  0.
 R6Disp: Adding Grimme-D2 dispersion energy 1st derivatives to the gradient.
 Leave Link  701 at Wed May 26 09:20:54 2021, MaxMem=  2147483648 cpu:         0.6
 (Enter /opt/cluster/programs/g09_d.01/g09/l702.exe)
 L702 exits ... SP integral derivatives will be done elsewhere.
 Leave Link  702 at Wed May 26 09:20:54 2021, MaxMem=  2147483648 cpu:         0.2
 (Enter /opt/cluster/programs/g09_d.01/g09/l703.exe)
 Compute integral first derivatives, UseDBF=F ICtDFT=           0.
 Integral derivatives from FoFJK, PRISM(SPDF).
 Calling FoFJK, ICntrl=      2127 FMM=F ISym2X=0 I1Cent= 0 IOpClX= 0 NMat=1 NMatS=1 NMatT=0.
 FoFJK:  IHMeth= 1 ICntrl=    2127 DoSepK=T KAlg= 0 I1Cent=   0 FoldK=F
 IRaf=         1 NMat=   1 IRICut=       1 DoRegI=T DoRafI=F ISym2E= 0.
 FoFCou: FMM=F IPFlag=           0 FMFlag=      100000 FMFlg1=         800
         NFxFlg=           0 DoJE=F BraDBF=F KetDBF=F FulRan=T
         wScrn=  0.000000 ICntrl=    2527 IOpCl=  0 I1Cent=           0 NGrid=           0
         NMat0=    1 NMatS0=      1 NMatT0=    0 NMatD0=    1 NMtDS0=    0 NMtDT0=    0
 Symmetry not used in FoFCou.
 Leave Link  703 at Wed May 26 09:20:55 2021, MaxMem=  2147483648 cpu:         8.5
 (Enter /opt/cluster/programs/g09_d.01/g09/l716.exe)
 Dipole        = 2.13011608D-01 6.28156360D-01-8.48362190D-01
 ***** Axes restored to original set *****
 -------------------------------------------------------------------
 Center     Atomic                   Forces (Hartrees/Bohr)
 Number     Number              X              Y              Z
 -------------------------------------------------------------------
      1        6          -0.000587798    0.000036513    0.001269253
      2        6           0.000872848    0.000420407   -0.002167578
      3        1          -0.000005390    0.000003057   -0.000008812
      4        1          -0.000006255    0.000014090   -0.000004670
      5        1          -0.000008087    0.000009948   -0.000006640
      6        6          -0.000327161   -0.001573627    0.001647127
      7        8           0.000006725    0.000009137    0.000012248
      8        6           0.000041455    0.001121548   -0.000745977
      9        1           0.000010411   -0.000005280    0.000011684
     10        1           0.000004090   -0.000011186    0.000003804
     11        9          -0.000000010    0.000002173   -0.000000501
     12        9           0.000004345   -0.000016064    0.000000154
     13        9          -0.000005172   -0.000010716   -0.000010092
 -------------------------------------------------------------------
 Cartesian Forces:  Max     0.002167578 RMS     0.000614130
 Leave Link  716 at Wed May 26 09:20:55 2021, MaxMem=  2147483648 cpu:         0.2
 (Enter /opt/cluster/programs/g09_d.01/g09/l103.exe)

 GradGradGradGradGradGradGradGradGradGradGradGradGradGradGradGradGradGrad
 Berny optimization.
 FormGI is forming the generalized inverse of G from B-inverse, IUseBI=4.
 Internal  Forces:  Max     0.001347152 RMS     0.000294841
 Search for a local minimum.
 Step number   1 out of a maximum of   64
 All quantities printed in internal units (Hartrees-Bohrs-Radians)
 RMS Force = .11256D-05 SwitMx=.10000D-02 MixMth= 2
 Mixed Optimization -- En-DIIS/RFO-DIIS
 Second derivative matrix not updated -- first step.
 ITU=  0
     Eigenvalues ---    0.00504   0.00731   0.00746   0.03002   0.05603
     Eigenvalues ---    0.07281   0.07458   0.08313   0.08498   0.09519
     Eigenvalues ---    0.11863   0.16000   0.16000   0.16000   0.22075
     Eigenvalues ---    0.24964   0.25000   0.25000   0.25000   0.25000
     Eigenvalues ---    0.29431   0.32098   0.32220   0.34090   0.34246
     Eigenvalues ---    0.34319   0.34597   0.34747   0.46240   0.47329
     Eigenvalues ---    0.47404   0.897041000.000001000.000001000.00000
     Eigenvalues --- 1000.000001000.000001000.000001000.000001000.00000
     Eigenvalues --- 1000.000001000.000001000.000001000.000001000.00000
     Eigenvalues --- 1000.000001000.000001000.000001000.000001000.00000
     Eigenvalues --- 1000.000001000.000001000.000001000.00000
 RFO step:  Lambda= 0.00000000D+00 EMin= 5.04152372D-03
 Linear search not attempted -- first point.
 Iteration  1 RMS(Cart)=  0.00005777 RMS(Int)=  0.00000000
 Iteration  2 RMS(Cart)=  0.00000000 RMS(Int)=  0.00000000
 Iteration  1 RMS(Cart)=  0.00000000 RMS(Int)=  0.00000000
 ITry= 1 IFail=0 DXMaxC= 1.84D-04 DCOld= 1.00D+10 DXMaxT= 3.00D-01 DXLimC= 3.00D+00 Rises=F
 Variable       Old X    -DE/DX   Delta X   Delta X   Delta X     New X
                                 (Linear)    (Quad)   (Total)
    R1        2.83743   0.00000   0.00000   0.00000   0.00000   2.83743
    R2        2.06795   0.00000   0.00000   0.00000   0.00000   2.06796
    R3        2.06087   0.00000   0.00000   0.00000   0.00000   2.06087
    R4        2.07178   0.00000   0.00000   0.00000   0.00000   2.07178
    R5        2.89113   0.00000   0.00000   0.00001   0.00001   2.89113
    R6        2.33070   0.00000   0.00000   0.00000   0.00000   2.33070
    R7        2.83965   0.00000   0.00000   0.00000   0.00000   2.83964
    R8        2.06334   0.00000   0.00000   0.00000   0.00000   2.06334
    R9        2.06918   0.00000   0.00000  -0.00001  -0.00001   2.06917
   R10        2.62661   0.00000   0.00000   0.00000   0.00000   2.62661
   R11        2.62579   0.00000   0.00000   0.00000   0.00000   2.62580
   R12        2.63862   0.00000   0.00000  -0.00001  -0.00001   2.63861
    A1        1.94047   0.00000   0.00000   0.00002   0.00002   1.94049
    A2        1.91070   0.00000   0.00000  -0.00001  -0.00001   1.91069
    A3        1.92182   0.00000   0.00000   0.00000   0.00000   1.92183
    A4        1.92329   0.00000   0.00000  -0.00002  -0.00002   1.92327
    A5        1.86762   0.00000   0.00000   0.00001   0.00001   1.86763
    A6        1.89919   0.00000   0.00000   0.00000   0.00000   1.89919
    A7        2.06937   0.00001   0.00000   0.00001   0.00001   2.06938
    A8        2.13882   0.00003   0.00000   0.00000   0.00000   2.13881
    A9        2.07398  -0.00002   0.00000  -0.00001  -0.00001   2.07397
   A10        1.99942  -0.00001   0.00000   0.00001   0.00001   1.99944
   A11        1.88331  -0.00001   0.00000  -0.00001  -0.00001   1.88330
   A12        1.91773   0.00002   0.00000   0.00001   0.00001   1.91774
   A13        1.88449   0.00058   0.00000   0.00000   0.00000   1.88448
   A14        1.87787  -0.00057   0.00000  -0.00001  -0.00001   1.87786
   A15        1.89888   0.00000   0.00000   0.00001   0.00001   1.89889
   A16        1.96205   0.00000   0.00000   0.00000   0.00000   1.96205
   A17        1.94411   0.00000   0.00000  -0.00001  -0.00001   1.94411
   A18        1.96677   0.00000   0.00000   0.00000   0.00000   1.96677
   A19        1.86955   0.00000   0.00000   0.00000   0.00000   1.86955
   A20        1.85790   0.00000   0.00000   0.00001   0.00001   1.85791
   A21        1.85664   0.00000   0.00000   0.00000   0.00000   1.85664
    D1       -0.77027  -0.00029   0.00000   0.00010   0.00010  -0.77018
    D2        2.32218   0.00029   0.00000   0.00007   0.00007   2.32225
    D3       -2.89937  -0.00029   0.00000   0.00011   0.00011  -2.89926
    D4        0.19308   0.00029   0.00000   0.00009   0.00009   0.19317
    D5        1.29655  -0.00029   0.00000   0.00012   0.00012   1.29667
    D6       -1.89418   0.00029   0.00000   0.00009   0.00009  -1.89409
    D7       -1.05098   0.00135   0.00000   0.00000   0.00000  -1.05098
    D8        3.13298   0.00062   0.00000   0.00001   0.00001   3.13299
    D9        1.06504   0.00061   0.00000   0.00000   0.00000   1.06505
   D10        2.13789   0.00079   0.00000   0.00003   0.00003   2.13792
   D11        0.03866   0.00006   0.00000   0.00003   0.00003   0.03870
   D12       -2.02927   0.00006   0.00000   0.00003   0.00003  -2.02924
   D13       -0.87375  -0.00027   0.00000   0.00004   0.00004  -0.87371
   D14       -2.97221  -0.00027   0.00000   0.00005   0.00005  -2.97217
   D15        1.22583  -0.00027   0.00000   0.00005   0.00005   1.22587
   D16        1.22483   0.00013   0.00000   0.00003   0.00003   1.22485
   D17       -0.87364   0.00013   0.00000   0.00003   0.00003  -0.87360
   D18       -2.95878   0.00013   0.00000   0.00003   0.00003  -2.95875
   D19       -3.01153   0.00014   0.00000   0.00003   0.00003  -3.01149
   D20        1.17320   0.00014   0.00000   0.00004   0.00004   1.17323
   D21       -0.91195   0.00014   0.00000   0.00004   0.00004  -0.91191
         Item               Value     Threshold  Converged?
 Maximum Force            0.000003     0.000450     YES
 RMS     Force            0.000001     0.000300     YES
 Maximum Displacement     0.000184     0.001800     YES
 RMS     Displacement     0.000058     0.001200     YES
 Predicted change in Energy=-4.110570D-10
 Optimization completed.
    -- Stationary point found.
                           ----------------------------
                           !   Optimized Parameters   !
                           ! (Angstroms and Degrees)  !
 --------------------------                            --------------------------
 ! Name  Definition              Value          Derivative Info.                !
 --------------------------------------------------------------------------------
 ! R1    R(1,2)                  1.5015         -DE/DX =    0.0                 !
 ! R2    R(1,3)                  1.0943         -DE/DX =    0.0                 !
 ! R3    R(1,4)                  1.0906         -DE/DX =    0.0                 !
 ! R4    R(1,5)                  1.0963         -DE/DX =    0.0                 !
 ! R5    R(2,6)                  1.5299         -DE/DX =    0.0                 !
 ! R6    R(2,7)                  1.2334         -DE/DX =    0.0                 !
 ! R7    R(6,8)                  1.5027         -DE/DX =    0.0                 !
 ! R8    R(6,9)                  1.0919         -DE/DX =    0.0                 !
 ! R9    R(6,10)                 1.095          -DE/DX =    0.0                 !
 ! R10   R(8,11)                 1.3899         -DE/DX =    0.0                 !
 ! R11   R(8,12)                 1.3895         -DE/DX =    0.0                 !
 ! R12   R(8,13)                 1.3963         -DE/DX =    0.0                 !
 ! A1    A(2,1,3)              111.1807         -DE/DX =    0.0                 !
 ! A2    A(2,1,4)              109.4751         -DE/DX =    0.0                 !
 ! A3    A(2,1,5)              110.1122         -DE/DX =    0.0                 !
 ! A4    A(3,1,4)              110.1964         -DE/DX =    0.0                 !
 ! A5    A(3,1,5)              107.0067         -DE/DX =    0.0                 !
 ! A6    A(4,1,5)              108.8156         -DE/DX =    0.0                 !
 ! A7    A(1,2,6)              118.5663         -DE/DX =    0.0                 !
 ! A8    A(1,2,7)              122.5452         -DE/DX =    0.0                 !
 ! A9    A(6,2,7)              118.83           -DE/DX =    0.0                 !
 ! A10   A(2,6,8)              114.5586         -DE/DX =    0.0                 !
 ! A11   A(2,6,9)              107.906          -DE/DX =    0.0                 !
 ! A12   A(2,6,10)             109.8779         -DE/DX =    0.0                 !
 ! A13   A(8,6,9)              107.9732         -DE/DX =    0.0006              !
 ! A14   A(8,6,10)             107.5941         -DE/DX =   -0.0006              !
 ! A15   A(9,6,10)             108.798          -DE/DX =    0.0                 !
 ! A16   A(6,8,11)             112.4173         -DE/DX =    0.0                 !
 ! A17   A(6,8,12)             111.3895         -DE/DX =    0.0                 !
 ! A18   A(6,8,13)             112.6879         -DE/DX =    0.0                 !
 ! A19   A(11,8,12)            107.1172         -DE/DX =    0.0                 !
 ! A20   A(11,8,13)            106.45           -DE/DX =    0.0                 !
 ! A21   A(12,8,13)            106.3776         -DE/DX =    0.0                 !
 ! D1    D(3,1,2,6)            -44.1335         -DE/DX =   -0.0003              !
 ! D2    D(3,1,2,7)            133.0514         -DE/DX =    0.0003              !
 ! D3    D(4,1,2,6)           -166.1219         -DE/DX =   -0.0003              !
 ! D4    D(4,1,2,7)             11.063          -DE/DX =    0.0003              !
 ! D5    D(5,1,2,6)             74.2869         -DE/DX =   -0.0003              !
 ! D6    D(5,1,2,7)           -108.5282         -DE/DX =    0.0003              !
 ! D7    D(1,2,6,8)            -60.2166         -DE/DX =    0.0013              !
 ! D8    D(1,2,6,9)            179.5064         -DE/DX =    0.0006              !
 ! D9    D(1,2,6,10)            61.0225         -DE/DX =    0.0006              !
 ! D10   D(7,2,6,8)            122.4921         -DE/DX =    0.0008              !
 ! D11   D(7,2,6,9)              2.2151         -DE/DX =    0.0001              !
 ! D12   D(7,2,6,10)          -116.2688         -DE/DX =    0.0001              !
 ! D13   D(2,6,8,11)           -50.0622         -DE/DX =   -0.0003              !
 ! D14   D(2,6,8,12)          -170.2953         -DE/DX =   -0.0003              !
 ! D15   D(2,6,8,13)            70.2346         -DE/DX =   -0.0003              !
 ! D16   D(9,6,8,11)            70.1774         -DE/DX =    0.0001              !
 ! D17   D(9,6,8,12)           -50.0556         -DE/DX =    0.0001              !
 ! D18   D(9,6,8,13)          -169.5257         -DE/DX =    0.0001              !
 ! D19   D(10,6,8,11)         -172.5477         -DE/DX =    0.0001              !
 ! D20   D(10,6,8,12)           67.2192         -DE/DX =    0.0001              !
 ! D21   D(10,6,8,13)          -52.2509         -DE/DX =    0.0001              !
 --------------------------------------------------------------------------------
 Lowest energy point so far.  Saving SCF results.
 GradGradGradGradGradGradGradGradGradGradGradGradGradGradGradGradGradGrad

 Largest change from initial coordinates is atom    3       0.000 Angstoms.
 Leave Link  103 at Wed May 26 09:20:55 2021, MaxMem=  2147483648 cpu:         0.1
 (Enter /opt/cluster/programs/g09_d.01/g09/l202.exe)
                          Input orientation:                          
 ---------------------------------------------------------------------
 Center     Atomic      Atomic             Coordinates (Angstroms)
 Number     Number       Type             X           Y           Z
 ---------------------------------------------------------------------
      1          6           0        1.874923    1.222964   -0.013864
      2          6           0        1.505993   -0.226340   -0.147756
      3          1           0        1.625949    1.779900   -0.922354
      4          1           0        2.940887    1.308548    0.199989
      5          1           0        1.311589    1.681042    0.807586
      6          6           0        0.149499   -0.582476   -0.759101
      7          8           0        2.273596   -1.138371    0.168692
      8          6           0       -1.034951   -0.041962   -0.008796
      9          1           0        0.066448   -1.670971   -0.780837
     10          1           0        0.092452   -0.203712   -1.784880
     11          9           0       -0.975557   -0.325319    1.350661
     12          9           0       -2.224836   -0.577372   -0.486551
     13          9           0       -1.155037    1.344808   -0.118769
 ---------------------------------------------------------------------
                    Distance matrix (angstroms):
                    1          2          3          4          5
     1  C    0.000000
     2  C    1.501505   0.000000
     3  H    1.094312   2.153924   0.000000
     4  H    1.090567   2.129725   1.791895   0.000000
     5  H    1.096340   2.142096   1.761047   1.778353   0.000000
     6  C    2.606162   1.529919   2.790587   3.505378   2.988055
     7  O    2.401701   1.233351   3.182159   2.536468   3.046758
     8  C    3.172921   2.551412   3.351740   4.204136   3.023487
     9  H    3.497669   2.135425   3.789536   4.254639   3.912730
    10  H    2.889482   2.163050   2.651468   3.786848   3.429209
    11  F    3.519140   2.900541   4.045538   4.396829   3.090542
    12  F    4.502518   3.762591   4.535989   5.541906   4.391073
    13  F    3.034223   3.090377   2.927275   4.108469   2.656206
                    6          7          8          9         10
     6  C    0.000000
     7  O    2.383612   0.000000
     8  C    1.502676   3.490000   0.000000
     9  H    1.091875   2.461051   2.112533   0.000000
    10  H    1.094961   3.073666   2.109899   1.778097   0.000000
    11  F    2.404782   3.551774   1.389943   2.727607   3.314672
    12  F    2.389932   4.580388   1.389511   2.555884   2.682369
    13  F    2.413765   4.243152   1.396297   3.320434   2.594238
                   11         12         13
    11  F    0.000000
    12  F    2.235973   0.000000
    13  F    2.231762   2.230361   0.000000
 Stoichiometry    C4H5F3O
 Framework group  C1[X(C4H5F3O)]
 Deg. of freedom    33
 Full point group                 C1      NOp   1
 RotChk:  IX=0 Diff= 1.21D-15
 Largest Abelian subgroup         C1      NOp   1
 Largest concise Abelian subgroup C1      NOp   1
                         Standard orientation:                         
 ---------------------------------------------------------------------
 Center     Atomic      Atomic             Coordinates (Angstroms)
 Number     Number       Type             X           Y           Z
 ---------------------------------------------------------------------
      1          6           0        1.874923    1.222964   -0.013864
      2          6           0        1.505993   -0.226340   -0.147756
      3          1           0        1.625949    1.779900   -0.922354
      4          1           0        2.940887    1.308548    0.199989
      5          1           0        1.311589    1.681042    0.807586
      6          6           0        0.149499   -0.582476   -0.759101
      7          8           0        2.273596   -1.138371    0.168692
      8          6           0       -1.034951   -0.041962   -0.008796
      9          1           0        0.066448   -1.670971   -0.780837
     10          1           0        0.092452   -0.203712   -1.784880
     11          9           0       -0.975557   -0.325319    1.350661
     12          9           0       -2.224836   -0.577372   -0.486551
     13          9           0       -1.155037    1.344808   -0.118769
 ---------------------------------------------------------------------
 Rotational constants (GHZ):      3.3996217      1.3748547      1.2275731
 Leave Link  202 at Wed May 26 09:20:55 2021, MaxMem=  2147483648 cpu:         0.0
 (Enter /opt/cluster/programs/g09_d.01/g09/l9999.exe)
 1\1\GINC-NODE11\FOpt\RwB97XD\6-31+G\C4H5F3O1\BOITTIER\26-May-2021\0\\#
 p wB97XD/6-31+G Opt=ModRedun\\N.pdb\\0,1\C,1.874923,1.222964,-0.013864
 \C,1.505993,-0.22634,-0.147756\H,1.625949,1.7799,-0.922354\H,2.940887,
 1.308548,0.199989\H,1.311589,1.681042,0.807586\C,0.149499,-0.582476,-0
 .759101\O,2.273596,-1.138371,0.168692\C,-1.034951,-0.041962,-0.008796\
 H,0.066448,-1.670971,-0.780837\H,0.092452,-0.203712,-1.78488\F,-0.9755
 57,-0.325319,1.350661\F,-2.224836,-0.577372,-0.486551\F,-1.155037,1.34
 4808,-0.118769\\Version=ES64L-G09RevD.01\State=1-A\HF=-529.9271699\RMS
 D=4.257e-09\RMSF=6.141e-04\Dipole=0.2130116,0.6281564,-0.8483622\Quadr
 upole=-4.3226086,1.072061,3.2505476,5.0969956,-1.0534883,1.2539494\PG=
 C01 [X(C4H5F3O1)]\\@


 YOU SHOULDN'T LET PEOPLE DRIVE YOU CRAZY
 WHEN YOU KNOW IT'S WITHIN WALKING DISTANCE.
 Job cpu time:       0 days  0 hours  0 minutes 50.4 seconds.
 File lengths (MBytes):  RWF=      7 Int=      0 D2E=      0 Chk=      3 Scr=      1
 Normal termination of Gaussian 09 at Wed May 26 09:20:55 2021.
