 Entering Gaussian System, Link 0=/opt/cluster/programs/g09_d.01/g09//g09
 Input=/home/unibas/boittier/RDKit_G2/O.pdb/SCAN_1_2_6_8_S_17_20.0/7_SCAN_1_2_6_8_F/7_SCAN_O.pdb.com
 Output=/scratch/boittier/7_SCAN_O.pdb/7_SCAN_O.pdb.out
 Initial command:
 /opt/cluster/programs/g09_d.01/g09/l1.exe "/scratch/boittier/7_SCAN_O.pdb/Gau-143886.inp" -scrdir="/scratch/boittier/7_SCAN_O.pdb/"
 Entering Link 1 = /opt/cluster/programs/g09_d.01/g09/l1.exe PID=    143887.
  
 Copyright (c) 1988,1990,1992,1993,1995,1998,2003,2009,2013,
            Gaussian, Inc.  All Rights Reserved.
  
 This is part of the Gaussian(R) 09 program.  It is based on
 the Gaussian(R) 03 system (copyright 2003, Gaussian, Inc.),
 the Gaussian(R) 98 system (copyright 1998, Gaussian, Inc.),
 the Gaussian(R) 94 system (copyright 1995, Gaussian, Inc.),
 the Gaussian 92(TM) system (copyright 1992, Gaussian, Inc.),
 the Gaussian 90(TM) system (copyright 1990, Gaussian, Inc.),
 the Gaussian 88(TM) system (copyright 1988, Gaussian, Inc.),
 the Gaussian 86(TM) system (copyright 1986, Carnegie Mellon
 University), and the Gaussian 82(TM) system (copyright 1983,
 Carnegie Mellon University). Gaussian is a federally registered
 trademark of Gaussian, Inc.
  
 This software contains proprietary and confidential information,
 including trade secrets, belonging to Gaussian, Inc.
  
 This software is provided under written license and may be
 used, copied, transmitted, or stored only in accord with that
 written license.
  
 The following legend is applicable only to US Government
 contracts under FAR:
  
                    RESTRICTED RIGHTS LEGEND
  
 Use, reproduction and disclosure by the US Government is
 subject to restrictions as set forth in subparagraphs (a)
 and (c) of the Commercial Computer Software - Restricted
 Rights clause in FAR 52.227-19.
  
 Gaussian, Inc.
 340 Quinnipiac St., Bldg. 40, Wallingford CT 06492
  
  
 ---------------------------------------------------------------
 Warning -- This program may not be used in any manner that
 competes with the business of Gaussian, Inc. or will provide
 assistance to any competitor of Gaussian, Inc.  The licensee
 of this program is prohibited from giving any competitor of
 Gaussian, Inc. access to this program.  By using this program,
 the user acknowledges that Gaussian, Inc. is engaged in the
 business of creating and licensing software in the field of
 computational chemistry and represents and warrants to the
 licensee that it is not a competitor of Gaussian, Inc. and that
 it will not use this program in any manner prohibited above.
 ---------------------------------------------------------------
  

 Cite this work as:
 Gaussian 09, Revision D.01,
 M. J. Frisch, G. W. Trucks, H. B. Schlegel, G. E. Scuseria, 
 M. A. Robb, J. R. Cheeseman, G. Scalmani, V. Barone, B. Mennucci, 
 G. A. Petersson, H. Nakatsuji, M. Caricato, X. Li, H. P. Hratchian, 
 A. F. Izmaylov, J. Bloino, G. Zheng, J. L. Sonnenberg, M. Hada, 
 M. Ehara, K. Toyota, R. Fukuda, J. Hasegawa, M. Ishida, T. Nakajima, 
 Y. Honda, O. Kitao, H. Nakai, T. Vreven, J. A. Montgomery, Jr., 
 J. E. Peralta, F. Ogliaro, M. Bearpark, J. J. Heyd, E. Brothers, 
 K. N. Kudin, V. N. Staroverov, T. Keith, R. Kobayashi, J. Normand, 
 K. Raghavachari, A. Rendell, J. C. Burant, S. S. Iyengar, J. Tomasi, 
 M. Cossi, N. Rega, J. M. Millam, M. Klene, J. E. Knox, J. B. Cross, 
 V. Bakken, C. Adamo, J. Jaramillo, R. Gomperts, R. E. Stratmann, 
 O. Yazyev, A. J. Austin, R. Cammi, C. Pomelli, J. W. Ochterski, 
 R. L. Martin, K. Morokuma, V. G. Zakrzewski, G. A. Voth, 
 P. Salvador, J. J. Dannenberg, S. Dapprich, A. D. Daniels, 
 O. Farkas, J. B. Foresman, J. V. Ortiz, J. Cioslowski, 
 and D. J. Fox, Gaussian, Inc., Wallingford CT, 2013.
 
 ******************************************
 Gaussian 09:  ES64L-G09RevD.01 24-Apr-2013
                26-May-2021 
 ******************************************
 %chk=/home/unibas/boittier/RDKit_G2/O.pdb/SCAN_1_2_6_8_S_17_20.0/7_SCAN_1_2_6_8_
 F/O.pdb.chk
 %nproc=8
 Will use up to    8 processors via shared memory.
 %mem=16GB
 -----------------------------
 #p wB97XD/6-31+G Opt=ModRedun
 -----------------------------
 1/14=-1,18=120,19=15,26=3,38=1/1,3;
 2/9=110,12=2,17=6,18=5,40=1/2;
 3/5=1,6=6,7=10,11=2,16=1,25=1,30=1,71=1,74=-58/1,2,3;
 4//1;
 5/5=2,38=5/2;
 6/7=2,8=2,9=2,10=2,28=1/1;
 7//1,2,3,16;
 1/14=-1,18=20,19=15,26=3/3(2);
 2/9=110/2;
 99//99;
 2/9=110/2;
 3/5=1,6=6,7=10,11=2,16=1,25=1,30=1,71=1,74=-58/1,2,3;
 4/5=5,16=3,69=1/1;
 5/5=2,38=5/2;
 7//1,2,3,16;
 1/14=-1,18=20,19=15,26=3/3(-5);
 2/9=110/2;
 6/7=2,8=2,9=2,10=2,19=2,28=1/1;
 99/9=1/99;
 Leave Link    1 at Wed May 26 09:01:13 2021, MaxMem=  2147483648 cpu:         0.2
 (Enter /opt/cluster/programs/g09_d.01/g09/l101.exe)
 -----
 O.pdb
 -----
 Symbolic Z-matrix:
 Charge =  0 Multiplicity = 1
 C                     0.79068  -1.32258   0.03814 
 C                     0.59614   0.17188   0.01458 
 H                     0.41886  -1.73702   0.98038 
 H                     1.85378  -1.53826  -0.06249 
 H                     0.25503  -1.81302  -0.78184 
 O                    -0.6652    0.63651   0.32853 
 O                     1.50002   0.97888  -0.15273 
 C                    -1.84698  -0.05427  -0.16899 
 H                    -1.82787  -0.10063  -1.26113 
 H                    -2.68546   0.55486   0.16056 
 H                    -1.93198  -1.0592    0.25574 
 
 The following ModRedundant input section has been read:
 D       1       2       6       8 F                                           
 
 NAtoms=     11 NQM=       11 NQMF=       0 NMMI=      0 NMMIF=      0
                NMic=       0 NMicF=      0.
                    Isotopes and Nuclear Properties:
 (Nuclear quadrupole moments (NQMom) in fm**2, nuclear magnetic moments (NMagM)
  in nuclear magnetons)

  Atom         1           2           3           4           5           6           7           8           9          10
 IAtWgt=          12          12           1           1           1          16          16          12           1           1
 AtmWgt=  12.0000000  12.0000000   1.0078250   1.0078250   1.0078250  15.9949146  15.9949146  12.0000000   1.0078250   1.0078250
 NucSpn=           0           0           1           1           1           0           0           0           1           1
 AtZEff=   0.0000000   0.0000000   0.0000000   0.0000000   0.0000000   0.0000000   0.0000000   0.0000000   0.0000000   0.0000000
 NQMom=    0.0000000   0.0000000   0.0000000   0.0000000   0.0000000   0.0000000   0.0000000   0.0000000   0.0000000   0.0000000
 NMagM=    0.0000000   0.0000000   2.7928460   2.7928460   2.7928460   0.0000000   0.0000000   0.0000000   2.7928460   2.7928460
 AtZNuc=   6.0000000   6.0000000   1.0000000   1.0000000   1.0000000   8.0000000   8.0000000   6.0000000   1.0000000   1.0000000

  Atom        11
 IAtWgt=           1
 AtmWgt=   1.0078250
 NucSpn=           1
 AtZEff=   0.0000000
 NQMom=    0.0000000
 NMagM=    2.7928460
 AtZNuc=   1.0000000
 Leave Link  101 at Wed May 26 09:01:14 2021, MaxMem=  2147483648 cpu:         4.2
 (Enter /opt/cluster/programs/g09_d.01/g09/l103.exe)

 GradGradGradGradGradGradGradGradGradGradGradGradGradGradGradGradGradGrad
 Berny optimization.
 Initialization pass.
                           ----------------------------
                           !    Initial Parameters    !
                           ! (Angstroms and Degrees)  !
 --------------------------                            --------------------------
 ! Name  Definition              Value          Derivative Info.                !
 --------------------------------------------------------------------------------
 ! R1    R(1,2)                  1.5072         estimate D2E/DX2                !
 ! R2    R(1,3)                  1.0945         estimate D2E/DX2                !
 ! R3    R(1,4)                  1.0894         estimate D2E/DX2                !
 ! R4    R(1,5)                  1.0954         estimate D2E/DX2                !
 ! R5    R(2,6)                  1.3804         estimate D2E/DX2                !
 ! R6    R(2,7)                  1.2232         estimate D2E/DX2                !
 ! R7    R(6,8)                  1.4565         estimate D2E/DX2                !
 ! R8    R(8,9)                  1.0933         estimate D2E/DX2                !
 ! R9    R(8,10)                 1.0875         estimate D2E/DX2                !
 ! R10   R(8,11)                 1.0943         estimate D2E/DX2                !
 ! A1    A(2,1,3)              110.1863         estimate D2E/DX2                !
 ! A2    A(2,1,4)              108.7121         estimate D2E/DX2                !
 ! A3    A(2,1,5)              111.6613         estimate D2E/DX2                !
 ! A4    A(3,1,4)              109.6383         estimate D2E/DX2                !
 ! A5    A(3,1,5)              107.9863         estimate D2E/DX2                !
 ! A6    A(4,1,5)              108.6272         estimate D2E/DX2                !
 ! A7    A(1,2,6)              116.6233         estimate D2E/DX2                !
 ! A8    A(1,2,7)              124.1183         estimate D2E/DX2                !
 ! A9    A(6,2,7)              118.9644         estimate D2E/DX2                !
 ! A10   A(2,6,8)              120.2718         estimate D2E/DX2                !
 ! A11   A(6,8,9)              110.3134         estimate D2E/DX2                !
 ! A12   A(6,8,10)             104.8588         estimate D2E/DX2                !
 ! A13   A(6,8,11)             111.4685         estimate D2E/DX2                !
 ! A14   A(9,8,10)             109.8729         estimate D2E/DX2                !
 ! A15   A(9,8,11)             110.4958         estimate D2E/DX2                !
 ! A16   A(10,8,11)            109.686          estimate D2E/DX2                !
 ! D1    D(3,1,2,6)            -50.525          estimate D2E/DX2                !
 ! D2    D(3,1,2,7)            123.165          estimate D2E/DX2                !
 ! D3    D(4,1,2,6)           -170.6966         estimate D2E/DX2                !
 ! D4    D(4,1,2,7)              2.9934         estimate D2E/DX2                !
 ! D5    D(5,1,2,6)             69.4762         estimate D2E/DX2                !
 ! D6    D(5,1,2,7)           -116.8338         estimate D2E/DX2                !
 ! D7    D(1,2,6,8)            -40.6146         Frozen                          !
 ! D8    D(7,2,6,8)            145.3549         estimate D2E/DX2                !
 ! D9    D(2,6,8,9)            -57.7282         estimate D2E/DX2                !
 ! D10   D(2,6,8,10)          -175.9723         estimate D2E/DX2                !
 ! D11   D(2,6,8,11)            65.4179         estimate D2E/DX2                !
 --------------------------------------------------------------------------------
 Trust Radius=3.00D-01 FncErr=1.00D-07 GrdErr=1.00D-06
 Number of steps in this run=     47 maximum allowed number of steps=    100.
 GradGradGradGradGradGradGradGradGradGradGradGradGradGradGradGradGradGrad

 Leave Link  103 at Wed May 26 09:01:14 2021, MaxMem=  2147483648 cpu:         0.1
 (Enter /opt/cluster/programs/g09_d.01/g09/l202.exe)
                          Input orientation:                          
 ---------------------------------------------------------------------
 Center     Atomic      Atomic             Coordinates (Angstroms)
 Number     Number       Type             X           Y           Z
 ---------------------------------------------------------------------
      1          6           0        0.790683   -1.322575    0.038143
      2          6           0        0.596142    0.171880    0.014575
      3          1           0        0.418858   -1.737017    0.980377
      4          1           0        1.853781   -1.538264   -0.062488
      5          1           0        0.255031   -1.813016   -0.781836
      6          8           0       -0.665195    0.636506    0.328530
      7          8           0        1.500021    0.978878   -0.152732
      8          6           0       -1.846984   -0.054272   -0.168986
      9          1           0       -1.827871   -0.100630   -1.261130
     10          1           0       -2.685462    0.554855    0.160556
     11          1           0       -1.931984   -1.059200    0.255744
 ---------------------------------------------------------------------
                    Distance matrix (angstroms):
                    1          2          3          4          5
     1  C    0.000000
     2  C    1.507248   0.000000
     3  H    1.094450   2.146646   0.000000
     4  H    1.089415   2.124191   1.784958   0.000000
     5  H    1.095363   2.165742   1.771443   1.774529   0.000000
     6  O    2.458028   1.380368   2.689551   3.350785   2.842514
     7  O    2.415839   1.223207   3.135113   2.543481   3.120968
     8  C    2.934073   2.460428   3.047410   3.988638   2.808422
     9  H    3.168294   2.752730   3.570701   4.130145   2.738698
    10  H    3.952634   3.307099   3.944818   5.003561   3.891197
    11  H    2.744018   2.822258   2.551664   3.829202   2.535320
                    6          7          8          9         10
     6  O    0.000000
     7  O    2.244324   0.000000
     8  C    1.456476   3.502871   0.000000
     9  H    2.102904   3.669979   1.093295   0.000000
    10  H    2.028882   4.218556   1.087510   1.785025   0.000000
    11  H    2.117893   4.012390   1.094304   1.797388   1.783806
                   11
    11  H    0.000000
 Stoichiometry    C3H6O2
 Framework group  C1[X(C3H6O2)]
 Deg. of freedom    27
 Full point group                 C1      NOp   1
 Largest Abelian subgroup         C1      NOp   1
 Largest concise Abelian subgroup C1      NOp   1
                         Standard orientation:                         
 ---------------------------------------------------------------------
 Center     Atomic      Atomic             Coordinates (Angstroms)
 Number     Number       Type             X           Y           Z
 ---------------------------------------------------------------------
      1          6           0        0.790683    1.322575   -0.038143
      2          6           0        0.596142   -0.171880   -0.014575
      3          1           0        0.418857    1.737017   -0.980377
      4          1           0        1.853780    1.538264    0.062488
      5          1           0        0.255030    1.813016    0.781836
      6          8           0       -0.665195   -0.636506   -0.328530
      7          8           0        1.500021   -0.978878    0.152732
      8          6           0       -1.846984    0.054272    0.168986
      9          1           0       -1.827871    0.100630    1.261130
     10          1           0       -2.685462   -0.554856   -0.160556
     11          1           0       -1.931984    1.059200   -0.255744
 ---------------------------------------------------------------------
 Rotational constants (GHZ):      8.6360378      4.2272676      3.0327973
 Leave Link  202 at Wed May 26 09:01:14 2021, MaxMem=  2147483648 cpu:         0.0
 (Enter /opt/cluster/programs/g09_d.01/g09/l301.exe)
 Standard basis: 6-31+G (6D, 7F)
 Ernie: Thresh=  0.10000D-02 Tol=  0.10000D-05 Strict=F.
 There are    77 symmetry adapted cartesian basis functions of A   symmetry.
 There are    77 symmetry adapted basis functions of A   symmetry.
    77 basis functions,   154 primitive gaussians,    77 cartesian basis functions
    20 alpha electrons       20 beta electrons
       nuclear repulsion energy       178.9085166096 Hartrees.
 IExCor= 4639 DFT=T Ex+Corr=wB97XD ExCW=0 ScaHFX=  1.000000
 ScaDFX=  1.000000  1.000000  1.000000  1.000000 ScalE2=  1.000000  1.000000
 IRadAn=      0 IRanWt=     -1 IRanGd=            0 ICorTp=0 IEmpDi=121
  HFx wShort=  0.000000 wLong=  0.200000 cFull=  0.222036 cShort=  0.000000 cLong=  0.777964
  DFx wShort=  0.000000 wLong=  0.200000 cFull=  0.000000 cShort=  0.000000 cLong=  1.000000
 NAtoms=   11 NActive=   11 NUniq=   11 SFac= 1.00D+00 NAtFMM=   60 NAOKFM=F Big=F
 Integral buffers will be    131072 words long.
 Raffenetti 2 integral format.
 Two-electron integral symmetry is turned on.
 R6Disp:  Grimme-D2 Dispersion energy=       -0.0038640025 Hartrees.
 Nuclear repulsion after empirical dispersion term =      178.9046526071 Hartrees.
 Leave Link  301 at Wed May 26 09:01:14 2021, MaxMem=  2147483648 cpu:         0.3
 (Enter /opt/cluster/programs/g09_d.01/g09/l302.exe)
 NPDir=0 NMtPBC=     1 NCelOv=     1 NCel=       1 NClECP=     1 NCelD=      1
         NCelK=      1 NCelE2=     1 NClLst=     1 CellRange=     0.0.
 One-electron integrals computed using PRISM.
 NBasis=    77 RedAO= T EigKep=  1.91D-04  NBF=    77
 NBsUse=    77 1.00D-06 EigRej= -1.00D+00 NBFU=    77
 Precomputing XC quadrature grid using
 IXCGrd= 4 IRadAn=           0 IRanWt=          -1 IRanGd=           0 AccXCQ= 0.00D+00.
 Generated NRdTot=       0 NPtTot=           0 NUsed=           0 NTot=          32
 NSgBfM=    77    77    77    77    77 MxSgAt=    11 MxSgA2=    11.
 Leave Link  302 at Wed May 26 09:01:14 2021, MaxMem=  2147483648 cpu:         0.9
 (Enter /opt/cluster/programs/g09_d.01/g09/l303.exe)
 DipDrv:  MaxL=1.
 Leave Link  303 at Wed May 26 09:01:14 2021, MaxMem=  2147483648 cpu:         0.2
 (Enter /opt/cluster/programs/g09_d.01/g09/l401.exe)
 ExpMin= 4.38D-02 ExpMax= 5.48D+03 ExpMxC= 8.25D+02 IAcc=2 IRadAn=         4 AccDes= 0.00D+00
 Harris functional with IExCor= 4639 and IRadAn=       4 diagonalized for initial guess.
 HarFok:  IExCor= 4639 AccDes= 0.00D+00 IRadAn=         4 IDoV= 1 UseB2=F ITyADJ=14
 ICtDFT=  3500011 ScaDFX=  1.000000  1.000000  1.000000  1.000000
 FoFCou: FMM=F IPFlag=           0 FMFlag=      100000 FMFlg1=           0
         NFxFlg=           0 DoJE=T BraDBF=F KetDBF=T FulRan=T
         wScrn=  0.000000 ICntrl=     500 IOpCl=  0 I1Cent=   200000004 NGrid=           0
         NMat0=    1 NMatS0=      1 NMatT0=    0 NMatD0=    1 NMtDS0=    0 NMtDT0=    0
 Petite list used in FoFCou.
 Harris En= -257.360198475727    
 JPrj=0 DoOrth=F DoCkMO=F.
 Leave Link  401 at Wed May 26 09:01:14 2021, MaxMem=  2147483648 cpu:         1.4
 (Enter /opt/cluster/programs/g09_d.01/g09/l502.exe)
 Closed shell SCF:
 Using DIIS extrapolation, IDIIS=  1040.
 Integral symmetry usage will be decided dynamically.
 Keep R1 ints in memory in canonical form, NReq=9956864.
 IVT=       37546 IEndB=       37546 NGot=  2147483648 MDV=  2138425091
 LenX=  2138425091 LenY=  2138418721
 Requested convergence on RMS density matrix=1.00D-08 within 128 cycles.
 Requested convergence on MAX density matrix=1.00D-06.
 Requested convergence on             energy=1.00D-06.
 No special actions if energy rises.
 FoFCou: FMM=F IPFlag=           0 FMFlag=           0 FMFlg1=           0
         NFxFlg=           0 DoJE=F BraDBF=F KetDBF=F FulRan=T
         wScrn=  0.000000 ICntrl=     600 IOpCl=  0 I1Cent=           0 NGrid=           0
         NMat0=    1 NMatS0=   3003 NMatT0=    0 NMatD0=    1 NMtDS0=    0 NMtDT0=    0
 Symmetry not used in FoFCou.

 Cycle   1  Pass 1  IDiag  1:
 E= -268.113112068982    
 DIIS: error= 2.51D-02 at cycle   1 NSaved=   1.
 NSaved= 1 IEnMin= 1 EnMin= -268.113112068982     IErMin= 1 ErrMin= 2.51D-02
 ErrMax= 2.51D-02  0.00D+00 EMaxC= 1.00D-01 BMatC= 1.42D-01 BMatP= 1.42D-01
 IDIUse=3 WtCom= 7.49D-01 WtEn= 2.51D-01
 Coeff-Com:  0.100D+01
 Coeff-En:   0.100D+01
 Coeff:      0.100D+01
 Gap=     0.525 Goal=   None    Shift=    0.000
 GapD=    0.525 DampG=2.000 DampE=0.500 DampFc=1.0000 IDamp=-1.
 RMSDP=1.00D-02 MaxDP=1.90D-01              OVMax= 9.21D-02

 Cycle   2  Pass 1  IDiag  1:
 E= -268.128821669344     Delta-E=       -0.015709600362 Rises=F Damp=F
 DIIS: error= 2.95D-02 at cycle   2 NSaved=   2.
 NSaved= 2 IEnMin= 2 EnMin= -268.128821669344     IErMin= 1 ErrMin= 2.51D-02
 ErrMax= 2.95D-02  0.00D+00 EMaxC= 1.00D-01 BMatC= 9.89D-02 BMatP= 1.42D-01
 IDIUse=3 WtCom= 7.05D-01 WtEn= 2.95D-01
 Coeff-Com:  0.448D+00 0.552D+00
 Coeff-En:   0.446D+00 0.554D+00
 Coeff:      0.447D+00 0.553D+00
 Gap=     0.428 Goal=   None    Shift=    0.000
 RMSDP=5.07D-03 MaxDP=7.93D-02 DE=-1.57D-02 OVMax= 7.80D-02

 Cycle   3  Pass 1  IDiag  1:
 E= -268.197602472749     Delta-E=       -0.068780803405 Rises=F Damp=F
 DIIS: error= 9.63D-03 at cycle   3 NSaved=   3.
 NSaved= 3 IEnMin= 3 EnMin= -268.197602472749     IErMin= 3 ErrMin= 9.63D-03
 ErrMax= 9.63D-03  0.00D+00 EMaxC= 1.00D-01 BMatC= 1.00D-02 BMatP= 9.89D-02
 IDIUse=3 WtCom= 9.04D-01 WtEn= 9.63D-02
 Coeff-Com:  0.992D-01 0.258D+00 0.643D+00
 Coeff-En:   0.000D+00 0.000D+00 0.100D+01
 Coeff:      0.896D-01 0.233D+00 0.677D+00
 Gap=     0.439 Goal=   None    Shift=    0.000
 RMSDP=1.66D-03 MaxDP=2.49D-02 DE=-6.88D-02 OVMax= 3.91D-02

 Cycle   4  Pass 1  IDiag  1:
 E= -268.203582235194     Delta-E=       -0.005979762446 Rises=F Damp=F
 DIIS: error= 4.02D-03 at cycle   4 NSaved=   4.
 NSaved= 4 IEnMin= 4 EnMin= -268.203582235194     IErMin= 4 ErrMin= 4.02D-03
 ErrMax= 4.02D-03  0.00D+00 EMaxC= 1.00D-01 BMatC= 2.00D-03 BMatP= 1.00D-02
 IDIUse=3 WtCom= 9.60D-01 WtEn= 4.02D-02
 Coeff-Com: -0.202D-02 0.541D-01 0.364D+00 0.584D+00
 Coeff-En:   0.000D+00 0.000D+00 0.154D+00 0.846D+00
 Coeff:     -0.194D-02 0.519D-01 0.356D+00 0.594D+00
 Gap=     0.418 Goal=   None    Shift=    0.000
 RMSDP=9.14D-04 MaxDP=1.30D-02 DE=-5.98D-03 OVMax= 1.11D-02

 Cycle   5  Pass 1  IDiag  1:
 E= -268.205010220315     Delta-E=       -0.001427985120 Rises=F Damp=F
 DIIS: error= 1.20D-03 at cycle   5 NSaved=   5.
 NSaved= 5 IEnMin= 5 EnMin= -268.205010220315     IErMin= 5 ErrMin= 1.20D-03
 ErrMax= 1.20D-03  0.00D+00 EMaxC= 1.00D-01 BMatC= 1.14D-04 BMatP= 2.00D-03
 IDIUse=3 WtCom= 9.88D-01 WtEn= 1.20D-02
 Coeff-Com: -0.562D-02 0.104D-01 0.147D+00 0.317D+00 0.531D+00
 Coeff-En:   0.000D+00 0.000D+00 0.000D+00 0.000D+00 0.100D+01
 Coeff:     -0.556D-02 0.103D-01 0.146D+00 0.313D+00 0.537D+00
 Gap=     0.414 Goal=   None    Shift=    0.000
 RMSDP=1.66D-04 MaxDP=2.30D-03 DE=-1.43D-03 OVMax= 2.64D-03

 Cycle   6  Pass 1  IDiag  1:
 E= -268.205101977026     Delta-E=       -0.000091756711 Rises=F Damp=F
 DIIS: error= 1.58D-04 at cycle   6 NSaved=   6.
 NSaved= 6 IEnMin= 6 EnMin= -268.205101977026     IErMin= 6 ErrMin= 1.58D-04
 ErrMax= 1.58D-04  0.00D+00 EMaxC= 1.00D-01 BMatC= 2.71D-06 BMatP= 1.14D-04
 IDIUse=3 WtCom= 9.98D-01 WtEn= 1.58D-03
 Coeff-Com: -0.370D-03-0.740D-02-0.259D-01-0.334D-01 0.652D-01 0.100D+01
 Coeff-En:   0.000D+00 0.000D+00 0.000D+00 0.000D+00 0.000D+00 0.100D+01
 Coeff:     -0.369D-03-0.739D-02-0.258D-01-0.333D-01 0.651D-01 0.100D+01
 Gap=     0.414 Goal=   None    Shift=    0.000
 RMSDP=1.63D-04 MaxDP=2.97D-03 DE=-9.18D-05 OVMax= 1.05D-03

 Cycle   7  Pass 1  IDiag  1:
 E= -268.205106773479     Delta-E=       -0.000004796453 Rises=F Damp=F
 DIIS: error= 5.26D-05 at cycle   7 NSaved=   7.
 NSaved= 7 IEnMin= 7 EnMin= -268.205106773479     IErMin= 7 ErrMin= 5.26D-05
 ErrMax= 5.26D-05  0.00D+00 EMaxC= 1.00D-01 BMatC= 2.98D-07 BMatP= 2.71D-06
 IDIUse=1 WtCom= 1.00D+00 WtEn= 0.00D+00
 Coeff-Com:  0.420D-03-0.319D-02-0.188D-01-0.363D-01-0.151D-01 0.300D+00
 Coeff-Com:  0.773D+00
 Coeff:      0.420D-03-0.319D-02-0.188D-01-0.363D-01-0.151D-01 0.300D+00
 Coeff:      0.773D+00
 Gap=     0.414 Goal=   None    Shift=    0.000
 RMSDP=3.02D-05 MaxDP=5.07D-04 DE=-4.80D-06 OVMax= 3.00D-04

 Cycle   8  Pass 1  IDiag  1:
 E= -268.205107273326     Delta-E=       -0.000000499847 Rises=F Damp=F
 DIIS: error= 1.96D-05 at cycle   8 NSaved=   8.
 NSaved= 8 IEnMin= 8 EnMin= -268.205107273326     IErMin= 8 ErrMin= 1.96D-05
 ErrMax= 1.96D-05  0.00D+00 EMaxC= 1.00D-01 BMatC= 2.24D-08 BMatP= 2.98D-07
 IDIUse=1 WtCom= 1.00D+00 WtEn= 0.00D+00
 Coeff-Com:  0.236D-04 0.681D-03 0.248D-02 0.123D-02-0.537D-02-0.109D+00
 Coeff-Com:  0.801D-02 0.110D+01
 Coeff:      0.236D-04 0.681D-03 0.248D-02 0.123D-02-0.537D-02-0.109D+00
 Coeff:      0.801D-02 0.110D+01
 Gap=     0.414 Goal=   None    Shift=    0.000
 RMSDP=9.51D-06 MaxDP=6.89D-05 DE=-5.00D-07 OVMax= 1.80D-04

 Cycle   9  Pass 1  IDiag  1:
 E= -268.205107333692     Delta-E=       -0.000000060366 Rises=F Damp=F
 DIIS: error= 5.33D-06 at cycle   9 NSaved=   9.
 NSaved= 9 IEnMin= 9 EnMin= -268.205107333692     IErMin= 9 ErrMin= 5.33D-06
 ErrMax= 5.33D-06  0.00D+00 EMaxC= 1.00D-01 BMatC= 7.29D-10 BMatP= 2.24D-08
 IDIUse=1 WtCom= 1.00D+00 WtEn= 0.00D+00
 Coeff-Com: -0.227D-04 0.164D-03 0.111D-02 0.207D-02 0.192D-02-0.116D-01
 Coeff-Com: -0.474D-01-0.642D-01 0.112D+01
 Coeff:     -0.227D-04 0.164D-03 0.111D-02 0.207D-02 0.192D-02-0.116D-01
 Coeff:     -0.474D-01-0.642D-01 0.112D+01
 Gap=     0.414 Goal=   None    Shift=    0.000
 RMSDP=3.56D-06 MaxDP=5.53D-05 DE=-6.04D-08 OVMax= 4.07D-05

 Cycle  10  Pass 1  IDiag  1:
 E= -268.205107336451     Delta-E=       -0.000000002759 Rises=F Damp=F
 DIIS: error= 1.28D-06 at cycle  10 NSaved=  10.
 NSaved=10 IEnMin=10 EnMin= -268.205107336451     IErMin=10 ErrMin= 1.28D-06
 ErrMax= 1.28D-06  0.00D+00 EMaxC= 1.00D-01 BMatC= 5.14D-11 BMatP= 7.29D-10
 IDIUse=1 WtCom= 1.00D+00 WtEn= 0.00D+00
 Coeff-Com: -0.240D-05-0.210D-04-0.280D-04 0.753D-04 0.521D-03 0.474D-02
 Coeff-Com: -0.500D-02-0.592D-01 0.109D+00 0.950D+00
 Coeff:     -0.240D-05-0.210D-04-0.280D-04 0.753D-04 0.521D-03 0.474D-02
 Coeff:     -0.500D-02-0.592D-01 0.109D+00 0.950D+00
 Gap=     0.414 Goal=   None    Shift=    0.000
 RMSDP=7.39D-07 MaxDP=1.25D-05 DE=-2.76D-09 OVMax= 6.65D-06

 Cycle  11  Pass 1  IDiag  1:
 E= -268.205107336593     Delta-E=       -0.000000000142 Rises=F Damp=F
 DIIS: error= 4.09D-07 at cycle  11 NSaved=  11.
 NSaved=11 IEnMin=11 EnMin= -268.205107336593     IErMin=11 ErrMin= 4.09D-07
 ErrMax= 4.09D-07  0.00D+00 EMaxC= 1.00D-01 BMatC= 1.04D-11 BMatP= 5.14D-11
 IDIUse=1 WtCom= 1.00D+00 WtEn= 0.00D+00
 Coeff-Com:  0.171D-05-0.264D-04-0.141D-03-0.232D-03-0.869D-04 0.287D-02
 Coeff-Com:  0.399D-02-0.989D-02-0.103D+00 0.297D+00 0.809D+00
 Coeff:      0.171D-05-0.264D-04-0.141D-03-0.232D-03-0.869D-04 0.287D-02
 Coeff:      0.399D-02-0.989D-02-0.103D+00 0.297D+00 0.809D+00
 Gap=     0.414 Goal=   None    Shift=    0.000
 RMSDP=1.69D-07 MaxDP=2.29D-06 DE=-1.42D-10 OVMax= 2.82D-06

 Cycle  12  Pass 1  IDiag  1:
 E= -268.205107336621     Delta-E=       -0.000000000028 Rises=F Damp=F
 DIIS: error= 1.78D-07 at cycle  12 NSaved=  12.
 NSaved=12 IEnMin=12 EnMin= -268.205107336621     IErMin=12 ErrMin= 1.78D-07
 ErrMax= 1.78D-07  0.00D+00 EMaxC= 1.00D-01 BMatC= 5.43D-13 BMatP= 1.04D-11
 IDIUse=1 WtCom= 1.00D+00 WtEn= 0.00D+00
 Coeff-Com: -0.142D-06 0.679D-05 0.283D-04 0.351D-04-0.646D-04-0.972D-03
 Coeff-Com: -0.375D-03 0.717D-02 0.102D-01-0.151D+00-0.166D+00 0.130D+01
 Coeff:     -0.142D-06 0.679D-05 0.283D-04 0.351D-04-0.646D-04-0.972D-03
 Coeff:     -0.375D-03 0.717D-02 0.102D-01-0.151D+00-0.166D+00 0.130D+01
 Gap=     0.414 Goal=   None    Shift=    0.000
 RMSDP=6.53D-08 MaxDP=7.68D-07 DE=-2.76D-11 OVMax= 1.87D-06

 Cycle  13  Pass 1  IDiag  1:
 E= -268.205107336624     Delta-E=       -0.000000000003 Rises=F Damp=F
 DIIS: error= 4.52D-08 at cycle  13 NSaved=  13.
 NSaved=13 IEnMin=13 EnMin= -268.205107336624     IErMin=13 ErrMin= 4.52D-08
 ErrMax= 4.52D-08  0.00D+00 EMaxC= 1.00D-01 BMatC= 3.18D-14 BMatP= 5.43D-13
 IDIUse=1 WtCom= 1.00D+00 WtEn= 0.00D+00
 Coeff-Com: -0.741D-07-0.334D-06 0.170D-05 0.752D-05 0.226D-04 0.119D-03
 Coeff-Com: -0.150D-03-0.159D-02 0.419D-02 0.259D-01-0.332D-02-0.379D+00
 Coeff-Com:  0.135D+01
 Coeff:     -0.741D-07-0.334D-06 0.170D-05 0.752D-05 0.226D-04 0.119D-03
 Coeff:     -0.150D-03-0.159D-02 0.419D-02 0.259D-01-0.332D-02-0.379D+00
 Coeff:      0.135D+01
 Gap=     0.414 Goal=   None    Shift=    0.000
 RMSDP=2.31D-08 MaxDP=3.15D-07 DE=-3.41D-12 OVMax= 5.37D-07

 Cycle  14  Pass 1  IDiag  1:
 E= -268.205107336623     Delta-E=        0.000000000001 Rises=F Damp=F
 DIIS: error= 8.37D-09 at cycle  14 NSaved=  14.
 NSaved=14 IEnMin=13 EnMin= -268.205107336624     IErMin=14 ErrMin= 8.37D-09
 ErrMax= 8.37D-09  0.00D+00 EMaxC= 1.00D-01 BMatC= 1.56D-15 BMatP= 3.18D-14
 IDIUse=1 WtCom= 1.00D+00 WtEn= 0.00D+00
 Coeff-Com:  0.306D-07-0.996D-07-0.163D-05-0.372D-05-0.403D-05-0.569D-05
 Coeff-Com:  0.660D-04 0.225D-03-0.165D-02-0.251D-02 0.726D-02 0.775D-01
 Coeff-Com: -0.506D+00 0.143D+01
 Coeff:      0.306D-07-0.996D-07-0.163D-05-0.372D-05-0.403D-05-0.569D-05
 Coeff:      0.660D-04 0.225D-03-0.165D-02-0.251D-02 0.726D-02 0.775D-01
 Coeff:     -0.506D+00 0.143D+01
 Gap=     0.414 Goal=   None    Shift=    0.000
 RMSDP=3.52D-09 MaxDP=3.87D-08 DE= 1.31D-12 OVMax= 1.25D-07

 SCF Done:  E(RwB97XD) =  -268.205107337     A.U. after   14 cycles
            NFock= 14  Conv=0.35D-08     -V/T= 2.0057
 KE= 2.666778625221D+02 PE=-9.852712115409D+02 EE= 2.714835890750D+02
 Leave Link  502 at Wed May 26 09:01:16 2021, MaxMem=  2147483648 cpu:        15.4
 (Enter /opt/cluster/programs/g09_d.01/g09/l601.exe)
 Copying SCF densities to generalized density rwf, IOpCl= 0 IROHF=0.

 **********************************************************************

            Population analysis using the SCF density.

 **********************************************************************

 Orbital symmetries:
       Occupied  (A) (A) (A) (A) (A) (A) (A) (A) (A) (A) (A) (A)
                 (A) (A) (A) (A) (A) (A) (A) (A)
       Virtual   (A) (A) (A) (A) (A) (A) (A) (A) (A) (A) (A) (A)
                 (A) (A) (A) (A) (A) (A) (A) (A) (A) (A) (A) (A)
                 (A) (A) (A) (A) (A) (A) (A) (A) (A) (A) (A) (A)
                 (A) (A) (A) (A) (A) (A) (A) (A) (A) (A) (A) (A)
                 (A) (A) (A) (A) (A) (A) (A) (A) (A)
 The electronic state is 1-A.
 Alpha  occ. eigenvalues --  -19.31813 -19.27629 -10.45249 -10.36972 -10.32118
 Alpha  occ. eigenvalues --   -1.21678  -1.14003  -0.87211  -0.83680  -0.67100
 Alpha  occ. eigenvalues --   -0.60434  -0.58988  -0.57573  -0.53788  -0.51812
 Alpha  occ. eigenvalues --   -0.50819  -0.47692  -0.42844  -0.38652  -0.36384
 Alpha virt. eigenvalues --    0.05055   0.06368   0.07673   0.09172   0.09518
 Alpha virt. eigenvalues --    0.11982   0.12550   0.12903   0.14400   0.14825
 Alpha virt. eigenvalues --    0.16685   0.17110   0.19345   0.21157   0.23532
 Alpha virt. eigenvalues --    0.26525   0.27117   0.29376   0.29838   0.31407
 Alpha virt. eigenvalues --    0.33669   0.34948   0.36507   0.37126   0.39124
 Alpha virt. eigenvalues --    0.39642   0.41407   0.43344   0.44614   0.45650
 Alpha virt. eigenvalues --    0.56290   0.67396   0.72527   0.73813   0.74133
 Alpha virt. eigenvalues --    0.78367   0.80680   0.85281   0.93360   0.94960
 Alpha virt. eigenvalues --    1.07754   1.09013   1.11244   1.15938   1.16362
 Alpha virt. eigenvalues --    1.21435   1.24670   1.27757   1.33991   1.37421
 Alpha virt. eigenvalues --    1.40209   1.44395   1.46256   1.50441   1.65265
 Alpha virt. eigenvalues --    1.91483   2.02135
          Condensed to atoms (all electrons):
               1          2          3          4          5          6
     1  C    6.686774  -0.361749   0.392465   0.347966   0.325795  -0.444675
     2  C   -0.361749   5.620182  -0.065496  -0.007783  -0.006236   0.124299
     3  H    0.392465  -0.065496   0.462099  -0.019870  -0.026396   0.012775
     4  H    0.347966  -0.007783  -0.019870   0.439569  -0.020085   0.008686
     5  H    0.325795  -0.006236  -0.026396  -0.020085   0.485907  -0.000915
     6  O   -0.444675   0.124299   0.012775   0.008686  -0.000915   8.888347
     7  O   -0.175793   0.344571   0.002275  -0.003847   0.002452  -0.183387
     8  C   -0.087099  -0.051275  -0.006387   0.000229   0.010297   0.043468
     9  H    0.008380  -0.010706   0.000072  -0.000017  -0.000114  -0.046863
    10  H   -0.006393   0.003742  -0.000019  -0.000001   0.000157  -0.057976
    11  H    0.008516  -0.007644   0.000809   0.000018  -0.002318  -0.032825
               7          8          9         10         11
     1  C   -0.175793  -0.087099   0.008380  -0.006393   0.008516
     2  C    0.344571  -0.051275  -0.010706   0.003742  -0.007644
     3  H    0.002275  -0.006387   0.000072  -0.000019   0.000809
     4  H   -0.003847   0.000229  -0.000017  -0.000001   0.000018
     5  H    0.002452   0.010297  -0.000114   0.000157  -0.002318
     6  O   -0.183387   0.043468  -0.046863  -0.057976  -0.032825
     7  O    8.397863   0.013593   0.003462  -0.000022  -0.002230
     8  C    0.013593   5.313774   0.382784   0.410243   0.366712
     9  H    0.003462   0.382784   0.517138  -0.026794  -0.041220
    10  H   -0.000022   0.410243  -0.026794   0.469469  -0.026845
    11  H   -0.002230   0.366712  -0.041220  -0.026845   0.537302
 Mulliken charges:
               1
     1  C   -0.694188
     2  C    0.418095
     3  H    0.247672
     4  H    0.255135
     5  H    0.231456
     6  O   -0.310935
     7  O   -0.398936
     8  C   -0.396339
     9  H    0.213877
    10  H    0.234438
    11  H    0.199723
 Sum of Mulliken charges =   0.00000
 Mulliken charges with hydrogens summed into heavy atoms:
               1
     1  C    0.040076
     2  C    0.418095
     6  O   -0.310935
     7  O   -0.398936
     8  C    0.251699
 Electronic spatial extent (au):  <R**2>=            433.6103
 Charge=              0.0000 electrons
 Dipole moment (field-independent basis, Debye):
    X=             -2.9971    Y=              4.1250    Z=              0.5785  Tot=              5.1315
 Quadrupole moment (field-independent basis, Debye-Ang):
   XX=            -29.9875   YY=            -33.0203   ZZ=            -30.0416
   XY=              3.2880   XZ=             -1.6418   YZ=             -0.4246
 Traceless Quadrupole moment (field-independent basis, Debye-Ang):
   XX=              1.0290   YY=             -2.0038   ZZ=              0.9748
   XY=              3.2880   XZ=             -1.6418   YZ=             -0.4246
 Octapole moment (field-independent basis, Debye-Ang**2):
  XXX=            -16.5836  YYY=              2.8144  ZZZ=              0.5284  XYY=             -2.1335
  XXY=              4.8024  XXZ=             -0.8063  XZZ=             -0.0870  YZZ=              0.1005
  YYZ=             -0.4583  XYZ=              1.0700
 Hexadecapole moment (field-independent basis, Debye-Ang**3):
 XXXX=           -314.9980 YYYY=           -181.8396 ZZZZ=            -46.7759 XXXY=             15.9636
 XXXZ=              0.6000 YYYX=              1.7818 YYYZ=             -0.2624 ZZZX=             -1.3640
 ZZZY=             -0.8924 XXYY=            -86.2167 XXZZ=            -63.1351 YYZZ=            -36.0517
 XXYZ=              1.6260 YYXZ=              0.0524 ZZXY=             -1.3991
 N-N= 1.789046526071D+02 E-N=-9.852712116415D+02  KE= 2.666778625221D+02
 No NMR shielding tensors so no spin-rotation constants.
 Leave Link  601 at Wed May 26 09:01:16 2021, MaxMem=  2147483648 cpu:         0.6
 (Enter /opt/cluster/programs/g09_d.01/g09/l701.exe)
 Compute integral first derivatives.
 ... and contract with generalized density number  0.
 R6Disp: Adding Grimme-D2 dispersion energy 1st derivatives to the gradient.
 Leave Link  701 at Wed May 26 09:01:16 2021, MaxMem=  2147483648 cpu:         0.6
 (Enter /opt/cluster/programs/g09_d.01/g09/l702.exe)
 L702 exits ... SP integral derivatives will be done elsewhere.
 Leave Link  702 at Wed May 26 09:01:16 2021, MaxMem=  2147483648 cpu:         0.2
 (Enter /opt/cluster/programs/g09_d.01/g09/l703.exe)
 Compute integral first derivatives, UseDBF=F ICtDFT=           0.
 Integral derivatives from FoFJK, PRISM(SPDF).
 Calling FoFJK, ICntrl=      2127 FMM=F ISym2X=0 I1Cent= 0 IOpClX= 0 NMat=1 NMatS=1 NMatT=0.
 FoFJK:  IHMeth= 1 ICntrl=    2127 DoSepK=T KAlg= 0 I1Cent=   0 FoldK=F
 IRaf=         1 NMat=   1 IRICut=       1 DoRegI=T DoRafI=F ISym2E= 0.
 FoFCou: FMM=F IPFlag=           0 FMFlag=      100000 FMFlg1=         800
         NFxFlg=           0 DoJE=F BraDBF=F KetDBF=F FulRan=T
         wScrn=  0.000000 ICntrl=    2527 IOpCl=  0 I1Cent=           0 NGrid=           0
         NMat0=    1 NMatS0=      1 NMatT0=    0 NMatD0=    1 NMtDS0=    0 NMtDT0=    0
 Symmetry not used in FoFCou.
 Leave Link  703 at Wed May 26 09:01:17 2021, MaxMem=  2147483648 cpu:         3.6
 (Enter /opt/cluster/programs/g09_d.01/g09/l716.exe)
 Dipole        =-1.17914420D+00 1.62288706D+00 2.27582126D-01
 ***** Axes restored to original set *****
 -------------------------------------------------------------------
 Center     Atomic                   Forces (Hartrees/Bohr)
 Number     Number              X              Y              Z
 -------------------------------------------------------------------
      1        6          -0.000999363   -0.000185248   -0.003827900
      2        6           0.001469103   -0.000993621    0.007538631
      3        1          -0.000006852   -0.000002133    0.000010586
      4        1          -0.000001677    0.000010707    0.000006085
      5        1           0.000007267    0.000005827   -0.000001503
      6        8          -0.000432432    0.003634866   -0.007176409
      7        8           0.000005950   -0.000000095    0.000005527
      8        6          -0.000027754   -0.002450611    0.003456200
      9        1          -0.000000046   -0.000003185   -0.000003097
     10        1          -0.000005007   -0.000011675   -0.000003804
     11        1          -0.000009189   -0.000004832   -0.000004317
 -------------------------------------------------------------------
 Cartesian Forces:  Max     0.007538631 RMS     0.002191684
 Leave Link  716 at Wed May 26 09:01:17 2021, MaxMem=  2147483648 cpu:         0.2
 (Enter /opt/cluster/programs/g09_d.01/g09/l103.exe)

 GradGradGradGradGradGradGradGradGradGradGradGradGradGradGradGradGradGrad
 Berny optimization.
 FormGI is forming the generalized inverse of G from B-inverse, IUseBI=4.
 Internal  Forces:  Max     0.006206998 RMS     0.001300212
 Search for a local minimum.
 Step number   1 out of a maximum of   47
 All quantities printed in internal units (Hartrees-Bohrs-Radians)
 RMS Force = .61893D-05 SwitMx=.10000D-02 MixMth= 2
 Mixed Optimization -- En-DIIS/RFO-DIIS
 Second derivative matrix not updated -- first step.
 ITU=  0
     Eigenvalues ---    0.00670   0.00945   0.01178   0.07223   0.07457
     Eigenvalues ---    0.09932   0.10635   0.16000   0.16000   0.16000
     Eigenvalues ---    0.16000   0.16000   0.16000   0.24878   0.25000
     Eigenvalues ---    0.25000   0.31629   0.34200   0.34303   0.34320
     Eigenvalues ---    0.34435   0.34880   0.35102   0.37409   0.49035
     Eigenvalues ---    0.939761000.000001000.000001000.000001000.00000
     Eigenvalues --- 1000.000001000.000001000.000001000.000001000.00000
     Eigenvalues --- 1000.000001000.00000
 RFO step:  Lambda= 0.00000000D+00 EMin= 6.70066498D-03
 Linear search not attempted -- first point.
 Iteration  1 RMS(Cart)=  0.00018825 RMS(Int)=  0.00000002
 Iteration  2 RMS(Cart)=  0.00000002 RMS(Int)=  0.00000000
 Iteration  1 RMS(Cart)=  0.00000000 RMS(Int)=  0.00000000
 ITry= 1 IFail=0 DXMaxC= 4.30D-04 DCOld= 1.00D+10 DXMaxT= 3.00D-01 DXLimC= 3.00D+00 Rises=F
 Variable       Old X    -DE/DX   Delta X   Delta X   Delta X     New X
                                 (Linear)    (Quad)   (Total)
    R1        2.84829  -0.00001   0.00000  -0.00002  -0.00002   2.84827
    R2        2.06821   0.00001   0.00000   0.00004   0.00004   2.06825
    R3        2.05870  -0.00001   0.00000  -0.00002  -0.00002   2.05868
    R4        2.06994   0.00000   0.00000   0.00000   0.00000   2.06994
    R5        2.60852  -0.00002   0.00000  -0.00003  -0.00003   2.60848
    R6        2.31153   0.00000   0.00000   0.00000   0.00000   2.31153
    R7        2.75234   0.00001   0.00000   0.00002   0.00002   2.75236
    R8        2.06603   0.00000   0.00000   0.00000   0.00000   2.06602
    R9        2.05510   0.00000   0.00000   0.00000   0.00000   2.05510
   R10        2.06793   0.00000   0.00000   0.00000   0.00000   2.06793
    A1        1.92311   0.00000   0.00000  -0.00002  -0.00002   1.92310
    A2        1.89738   0.00000   0.00000   0.00000   0.00000   1.89738
    A3        1.94886   0.00000   0.00000  -0.00002  -0.00002   1.94883
    A4        1.91355   0.00000   0.00000   0.00003   0.00003   1.91358
    A5        1.88472   0.00000   0.00000   0.00000   0.00000   1.88472
    A6        1.89590   0.00000   0.00000   0.00001   0.00001   1.89592
    A7        2.03546   0.00006   0.00000   0.00000   0.00000   2.03546
    A8        2.16627   0.00032   0.00000  -0.00006  -0.00006   2.16621
    A9        2.07632  -0.00015   0.00000   0.00005   0.00005   2.07637
   A10        2.09914   0.00000   0.00000   0.00000   0.00000   2.09914
   A11        1.92533   0.00000   0.00000   0.00003   0.00003   1.92536
   A12        1.83013   0.00000   0.00000  -0.00003  -0.00003   1.83010
   A13        1.94549   0.00001   0.00000   0.00007   0.00007   1.94556
   A14        1.91764   0.00000   0.00000  -0.00002  -0.00002   1.91763
   A15        1.92852   0.00000   0.00000   0.00001   0.00001   1.92853
   A16        1.91438  -0.00001   0.00000  -0.00007  -0.00007   1.91431
    D1       -0.88183  -0.00122   0.00000   0.00031   0.00031  -0.88152
    D2        2.14963   0.00122   0.00000   0.00019   0.00019   2.14983
    D3       -2.97922  -0.00122   0.00000   0.00029   0.00029  -2.97893
    D4        0.05224   0.00122   0.00000   0.00017   0.00017   0.05242
    D5        1.21259  -0.00122   0.00000   0.00029   0.00029   1.21287
    D6       -2.03914   0.00122   0.00000   0.00017   0.00017  -2.03896
    D7       -0.70886   0.00621   0.00000   0.00000   0.00000  -0.70886
    D8        2.53692   0.00387   0.00000   0.00012   0.00012   2.53704
    D9       -1.00755   0.00000   0.00000   0.00017   0.00017  -1.00737
   D10       -3.07130   0.00000   0.00000   0.00019   0.00019  -3.07110
   D11        1.14176   0.00001   0.00000   0.00026   0.00026   1.14202
         Item               Value     Threshold  Converged?
 Maximum Force            0.000017     0.000450     YES
 RMS     Force            0.000006     0.000300     YES
 Maximum Displacement     0.000430     0.001800     YES
 RMS     Displacement     0.000188     0.001200     YES
 Predicted change in Energy=-4.757847D-09
 Optimization completed.
    -- Stationary point found.
                           ----------------------------
                           !   Optimized Parameters   !
                           ! (Angstroms and Degrees)  !
 --------------------------                            --------------------------
 ! Name  Definition              Value          Derivative Info.                !
 --------------------------------------------------------------------------------
 ! R1    R(1,2)                  1.5072         -DE/DX =    0.0                 !
 ! R2    R(1,3)                  1.0945         -DE/DX =    0.0                 !
 ! R3    R(1,4)                  1.0894         -DE/DX =    0.0                 !
 ! R4    R(1,5)                  1.0954         -DE/DX =    0.0                 !
 ! R5    R(2,6)                  1.3804         -DE/DX =    0.0                 !
 ! R6    R(2,7)                  1.2232         -DE/DX =    0.0                 !
 ! R7    R(6,8)                  1.4565         -DE/DX =    0.0                 !
 ! R8    R(8,9)                  1.0933         -DE/DX =    0.0                 !
 ! R9    R(8,10)                 1.0875         -DE/DX =    0.0                 !
 ! R10   R(8,11)                 1.0943         -DE/DX =    0.0                 !
 ! A1    A(2,1,3)              110.1863         -DE/DX =    0.0                 !
 ! A2    A(2,1,4)              108.7121         -DE/DX =    0.0                 !
 ! A3    A(2,1,5)              111.6613         -DE/DX =    0.0                 !
 ! A4    A(3,1,4)              109.6383         -DE/DX =    0.0                 !
 ! A5    A(3,1,5)              107.9863         -DE/DX =    0.0                 !
 ! A6    A(4,1,5)              108.6272         -DE/DX =    0.0                 !
 ! A7    A(1,2,6)              116.6233         -DE/DX =    0.0001              !
 ! A8    A(1,2,7)              124.1183         -DE/DX =    0.0003              !
 ! A9    A(6,2,7)              118.9644         -DE/DX =   -0.0002              !
 ! A10   A(2,6,8)              120.2718         -DE/DX =    0.0                 !
 ! A11   A(6,8,9)              110.3134         -DE/DX =    0.0                 !
 ! A12   A(6,8,10)             104.8588         -DE/DX =    0.0                 !
 ! A13   A(6,8,11)             111.4685         -DE/DX =    0.0                 !
 ! A14   A(9,8,10)             109.8729         -DE/DX =    0.0                 !
 ! A15   A(9,8,11)             110.4958         -DE/DX =    0.0                 !
 ! A16   A(10,8,11)            109.686          -DE/DX =    0.0                 !
 ! D1    D(3,1,2,6)            -50.525          -DE/DX =   -0.0012              !
 ! D2    D(3,1,2,7)            123.165          -DE/DX =    0.0012              !
 ! D3    D(4,1,2,6)           -170.6966         -DE/DX =   -0.0012              !
 ! D4    D(4,1,2,7)              2.9934         -DE/DX =    0.0012              !
 ! D5    D(5,1,2,6)             69.4762         -DE/DX =   -0.0012              !
 ! D6    D(5,1,2,7)           -116.8338         -DE/DX =    0.0012              !
 ! D7    D(1,2,6,8)            -40.6146         -DE/DX =    0.0062              !
 ! D8    D(7,2,6,8)            145.3549         -DE/DX =    0.0039              !
 ! D9    D(2,6,8,9)            -57.7282         -DE/DX =    0.0                 !
 ! D10   D(2,6,8,10)          -175.9723         -DE/DX =    0.0                 !
 ! D11   D(2,6,8,11)            65.4179         -DE/DX =    0.0                 !
 --------------------------------------------------------------------------------
 Lowest energy point so far.  Saving SCF results.
 GradGradGradGradGradGradGradGradGradGradGradGradGradGradGradGradGradGrad

 Largest change from initial coordinates is atom   10       0.000 Angstoms.
 Leave Link  103 at Wed May 26 09:01:17 2021, MaxMem=  2147483648 cpu:         0.0
 (Enter /opt/cluster/programs/g09_d.01/g09/l202.exe)
                          Input orientation:                          
 ---------------------------------------------------------------------
 Center     Atomic      Atomic             Coordinates (Angstroms)
 Number     Number       Type             X           Y           Z
 ---------------------------------------------------------------------
      1          6           0        0.790683   -1.322575    0.038143
      2          6           0        0.596142    0.171880    0.014575
      3          1           0        0.418858   -1.737017    0.980377
      4          1           0        1.853781   -1.538264   -0.062488
      5          1           0        0.255031   -1.813016   -0.781836
      6          8           0       -0.665195    0.636506    0.328530
      7          8           0        1.500021    0.978878   -0.152732
      8          6           0       -1.846984   -0.054272   -0.168986
      9          1           0       -1.827871   -0.100630   -1.261130
     10          1           0       -2.685462    0.554855    0.160556
     11          1           0       -1.931984   -1.059200    0.255744
 ---------------------------------------------------------------------
                    Distance matrix (angstroms):
                    1          2          3          4          5
     1  C    0.000000
     2  C    1.507248   0.000000
     3  H    1.094450   2.146646   0.000000
     4  H    1.089415   2.124191   1.784958   0.000000
     5  H    1.095363   2.165742   1.771443   1.774529   0.000000
     6  O    2.458028   1.380368   2.689551   3.350785   2.842514
     7  O    2.415839   1.223207   3.135113   2.543481   3.120968
     8  C    2.934073   2.460428   3.047410   3.988638   2.808422
     9  H    3.168294   2.752730   3.570701   4.130145   2.738698
    10  H    3.952634   3.307099   3.944818   5.003561   3.891197
    11  H    2.744018   2.822258   2.551664   3.829202   2.535320
                    6          7          8          9         10
     6  O    0.000000
     7  O    2.244324   0.000000
     8  C    1.456476   3.502871   0.000000
     9  H    2.102904   3.669979   1.093295   0.000000
    10  H    2.028882   4.218556   1.087510   1.785025   0.000000
    11  H    2.117893   4.012390   1.094304   1.797388   1.783806
                   11
    11  H    0.000000
 Stoichiometry    C3H6O2
 Framework group  C1[X(C3H6O2)]
 Deg. of freedom    27
 Full point group                 C1      NOp   1
 RotChk:  IX=0 Diff= 1.96D-16
 Largest Abelian subgroup         C1      NOp   1
 Largest concise Abelian subgroup C1      NOp   1
                         Standard orientation:                         
 ---------------------------------------------------------------------
 Center     Atomic      Atomic             Coordinates (Angstroms)
 Number     Number       Type             X           Y           Z
 ---------------------------------------------------------------------
      1          6           0        0.790683    1.322575   -0.038143
      2          6           0        0.596142   -0.171880   -0.014575
      3          1           0        0.418857    1.737017   -0.980377
      4          1           0        1.853780    1.538264    0.062488
      5          1           0        0.255030    1.813016    0.781836
      6          8           0       -0.665195   -0.636506   -0.328530
      7          8           0        1.500021   -0.978878    0.152732
      8          6           0       -1.846984    0.054272    0.168986
      9          1           0       -1.827871    0.100630    1.261130
     10          1           0       -2.685462   -0.554856   -0.160556
     11          1           0       -1.931984    1.059200   -0.255744
 ---------------------------------------------------------------------
 Rotational constants (GHZ):      8.6360378      4.2272676      3.0327973
 Leave Link  202 at Wed May 26 09:01:17 2021, MaxMem=  2147483648 cpu:         0.0
 (Enter /opt/cluster/programs/g09_d.01/g09/l9999.exe)
 1\1\GINC-NODE08\FOpt\RwB97XD\6-31+G\C3H6O2\BOITTIER\26-May-2021\0\\#p 
 wB97XD/6-31+G Opt=ModRedun\\O.pdb\\0,1\C,0.790683,-1.322575,0.038143\C
 ,0.596142,0.17188,0.014575\H,0.418858,-1.737017,0.980377\H,1.853781,-1
 .538264,-0.062488\H,0.255031,-1.813016,-0.781836\O,-0.665195,0.636506,
 0.32853\O,1.500021,0.978878,-0.152732\C,-1.846984,-0.054272,-0.168986\
 H,-1.827871,-0.10063,-1.26113\H,-2.685462,0.554855,0.160556\H,-1.93198
 4,-1.0592,0.255744\\Version=ES64L-G09RevD.01\State=1-A\HF=-268.2051073
 \RMSD=3.521e-09\RMSF=2.192e-03\Dipole=-1.1791439,-1.6228873,-0.2275821
 \Quadrupole=0.7650327,-1.4897863,0.7247536,-2.444543,1.2206312,-0.3156
 758\PG=C01 [X(C3H6O2)]\\@


 TELEVISION IS CALLED A MEDIUM BECAUSE IT ISN'T
 RARE, AND IT ISN'T WELL DONE.
 Job cpu time:       0 days  0 hours  0 minutes 28.5 seconds.
 File lengths (MBytes):  RWF=      5 Int=      0 D2E=      0 Chk=      2 Scr=      1
 Normal termination of Gaussian 09 at Wed May 26 09:01:17 2021.
