 Entering Gaussian System, Link 0=/opt/cluster/programs/g09_d.01/g09//g09
 Input=/home/unibas/boittier/RDKit_G2/B.pdb/SCAN_1_2_3_4_S_17_20.0/0_SCAN_1_2_3_4_F/0_SCAN_B.pdb.com
 Output=/scratch/boittier/0_SCAN_B.pdb/0_SCAN_B.pdb.out
 Initial command:
 /opt/cluster/programs/g09_d.01/g09/l1.exe "/scratch/boittier/0_SCAN_B.pdb/Gau-162559.inp" -scrdir="/scratch/boittier/0_SCAN_B.pdb/"
 Entering Link 1 = /opt/cluster/programs/g09_d.01/g09/l1.exe PID=    162560.
  
 Copyright (c) 1988,1990,1992,1993,1995,1998,2003,2009,2013,
            Gaussian, Inc.  All Rights Reserved.
  
 This is part of the Gaussian(R) 09 program.  It is based on
 the Gaussian(R) 03 system (copyright 2003, Gaussian, Inc.),
 the Gaussian(R) 98 system (copyright 1998, Gaussian, Inc.),
 the Gaussian(R) 94 system (copyright 1995, Gaussian, Inc.),
 the Gaussian 92(TM) system (copyright 1992, Gaussian, Inc.),
 the Gaussian 90(TM) system (copyright 1990, Gaussian, Inc.),
 the Gaussian 88(TM) system (copyright 1988, Gaussian, Inc.),
 the Gaussian 86(TM) system (copyright 1986, Carnegie Mellon
 University), and the Gaussian 82(TM) system (copyright 1983,
 Carnegie Mellon University). Gaussian is a federally registered
 trademark of Gaussian, Inc.
  
 This software contains proprietary and confidential information,
 including trade secrets, belonging to Gaussian, Inc.
  
 This software is provided under written license and may be
 used, copied, transmitted, or stored only in accord with that
 written license.
  
 The following legend is applicable only to US Government
 contracts under FAR:
  
                    RESTRICTED RIGHTS LEGEND
  
 Use, reproduction and disclosure by the US Government is
 subject to restrictions as set forth in subparagraphs (a)
 and (c) of the Commercial Computer Software - Restricted
 Rights clause in FAR 52.227-19.
  
 Gaussian, Inc.
 340 Quinnipiac St., Bldg. 40, Wallingford CT 06492
  
  
 ---------------------------------------------------------------
 Warning -- This program may not be used in any manner that
 competes with the business of Gaussian, Inc. or will provide
 assistance to any competitor of Gaussian, Inc.  The licensee
 of this program is prohibited from giving any competitor of
 Gaussian, Inc. access to this program.  By using this program,
 the user acknowledges that Gaussian, Inc. is engaged in the
 business of creating and licensing software in the field of
 computational chemistry and represents and warrants to the
 licensee that it is not a competitor of Gaussian, Inc. and that
 it will not use this program in any manner prohibited above.
 ---------------------------------------------------------------
  

 Cite this work as:
 Gaussian 09, Revision D.01,
 M. J. Frisch, G. W. Trucks, H. B. Schlegel, G. E. Scuseria, 
 M. A. Robb, J. R. Cheeseman, G. Scalmani, V. Barone, B. Mennucci, 
 G. A. Petersson, H. Nakatsuji, M. Caricato, X. Li, H. P. Hratchian, 
 A. F. Izmaylov, J. Bloino, G. Zheng, J. L. Sonnenberg, M. Hada, 
 M. Ehara, K. Toyota, R. Fukuda, J. Hasegawa, M. Ishida, T. Nakajima, 
 Y. Honda, O. Kitao, H. Nakai, T. Vreven, J. A. Montgomery, Jr., 
 J. E. Peralta, F. Ogliaro, M. Bearpark, J. J. Heyd, E. Brothers, 
 K. N. Kudin, V. N. Staroverov, T. Keith, R. Kobayashi, J. Normand, 
 K. Raghavachari, A. Rendell, J. C. Burant, S. S. Iyengar, J. Tomasi, 
 M. Cossi, N. Rega, J. M. Millam, M. Klene, J. E. Knox, J. B. Cross, 
 V. Bakken, C. Adamo, J. Jaramillo, R. Gomperts, R. E. Stratmann, 
 O. Yazyev, A. J. Austin, R. Cammi, C. Pomelli, J. W. Ochterski, 
 R. L. Martin, K. Morokuma, V. G. Zakrzewski, G. A. Voth, 
 P. Salvador, J. J. Dannenberg, S. Dapprich, A. D. Daniels, 
 O. Farkas, J. B. Foresman, J. V. Ortiz, J. Cioslowski, 
 and D. J. Fox, Gaussian, Inc., Wallingford CT, 2013.
 
 ******************************************
 Gaussian 09:  ES64L-G09RevD.01 24-Apr-2013
                12-May-2021 
 ******************************************
 %chk=/home/unibas/boittier/RDKit_G2/B.pdb/SCAN_1_2_3_4_S_17_20.0/0_SCAN_1_2_3_4_
 F/B.pdb.chk
 %nproc=8
 Will use up to    8 processors via shared memory.
 %mem=16GB
 -----------------------------
 #p wB97XD/6-31+G Opt=ModRedun
 -----------------------------
 1/14=-1,18=120,19=15,26=3,38=1/1,3;
 2/9=110,12=2,17=6,18=5,40=1/2;
 3/5=1,6=6,7=10,11=2,16=1,25=1,30=1,71=1,74=-58/1,2,3;
 4//1;
 5/5=2,38=5/2;
 6/7=2,8=2,9=2,10=2,28=1/1;
 7//1,2,3,16;
 1/14=-1,18=20,19=15,26=3/3(2);
 2/9=110/2;
 99//99;
 2/9=110/2;
 3/5=1,6=6,7=10,11=2,16=1,25=1,30=1,71=1,74=-58/1,2,3;
 4/5=5,16=3,69=1/1;
 5/5=2,38=5/2;
 7//1,2,3,16;
 1/14=-1,18=20,19=15,26=3/3(-5);
 2/9=110/2;
 6/7=2,8=2,9=2,10=2,19=2,28=1/1;
 99/9=1/99;
 Leave Link    1 at Wed May 12 11:55:58 2021, MaxMem=  2147483648 cpu:         0.2
 (Enter /opt/cluster/programs/g09_d.01/g09/l101.exe)
 -----
 B.pdb
 -----
 Symbolic Z-matrix:
 Charge =  0 Multiplicity = 1
 C                    -1.72383  -0.66617   0.00004 
 C                    -0.52039  -0.08201  -0.00005 
 C                     0.79547  -0.70136  -0.00005 
 C                     1.96382  -0.03494   0.00006 
 H                    -2.63487  -0.08161   0.00011 
 H                    -1.8061   -1.74668   0.00009 
 F                    -0.48259   1.33804  -0.00003 
 H                     0.7812   -1.78908  -0.00017 
 H                     2.00368   1.04907   0.00012 
 H                     2.90898  -0.56711   0.00002 
 
 The following ModRedundant input section has been read:
 D       1       2       3       4 F                                           
 
 NAtoms=     10 NQM=       10 NQMF=       0 NMMI=      0 NMMIF=      0
                NMic=       0 NMicF=      0.
                    Isotopes and Nuclear Properties:
 (Nuclear quadrupole moments (NQMom) in fm**2, nuclear magnetic moments (NMagM)
  in nuclear magnetons)

  Atom         1           2           3           4           5           6           7           8           9          10
 IAtWgt=          12          12          12          12           1           1          19           1           1           1
 AtmWgt=  12.0000000  12.0000000  12.0000000  12.0000000   1.0078250   1.0078250  18.9984033   1.0078250   1.0078250   1.0078250
 NucSpn=           0           0           0           0           1           1           1           1           1           1
 AtZEff=   0.0000000   0.0000000   0.0000000   0.0000000   0.0000000   0.0000000   0.0000000   0.0000000   0.0000000   0.0000000
 NQMom=    0.0000000   0.0000000   0.0000000   0.0000000   0.0000000   0.0000000   0.0000000   0.0000000   0.0000000   0.0000000
 NMagM=    0.0000000   0.0000000   0.0000000   0.0000000   2.7928460   2.7928460   2.6288670   2.7928460   2.7928460   2.7928460
 AtZNuc=   6.0000000   6.0000000   6.0000000   6.0000000   1.0000000   1.0000000   9.0000000   1.0000000   1.0000000   1.0000000
 Leave Link  101 at Wed May 12 11:55:58 2021, MaxMem=  2147483648 cpu:         4.1
 (Enter /opt/cluster/programs/g09_d.01/g09/l103.exe)

 GradGradGradGradGradGradGradGradGradGradGradGradGradGradGradGradGradGrad
 Berny optimization.
 Initialization pass.
                           ----------------------------
                           !    Initial Parameters    !
                           ! (Angstroms and Degrees)  !
 --------------------------                            --------------------------
 ! Name  Definition              Value          Derivative Info.                !
 --------------------------------------------------------------------------------
 ! R1    R(1,2)                  1.3377         estimate D2E/DX2                !
 ! R2    R(1,5)                  1.0825         estimate D2E/DX2                !
 ! R3    R(1,6)                  1.0836         estimate D2E/DX2                !
 ! R4    R(2,3)                  1.4543         estimate D2E/DX2                !
 ! R5    R(2,7)                  1.4206         estimate D2E/DX2                !
 ! R6    R(3,4)                  1.3451         estimate D2E/DX2                !
 ! R7    R(3,8)                  1.0878         estimate D2E/DX2                !
 ! R8    R(4,9)                  1.0847         estimate D2E/DX2                !
 ! R9    R(4,10)                 1.0847         estimate D2E/DX2                !
 ! A1    A(2,1,5)              121.4217         estimate D2E/DX2                !
 ! A2    A(2,1,6)              120.2468         estimate D2E/DX2                !
 ! A3    A(5,1,6)              118.3315         estimate D2E/DX2                !
 ! A4    A(1,2,3)              128.9019         estimate D2E/DX2                !
 ! A5    A(1,2,7)              117.4174         estimate D2E/DX2                !
 ! A6    A(3,2,7)              113.6806         estimate D2E/DX2                !
 ! A7    A(2,3,4)              125.0942         estimate D2E/DX2                !
 ! A8    A(2,3,8)              114.4538         estimate D2E/DX2                !
 ! A9    A(4,3,8)              120.4521         estimate D2E/DX2                !
 ! A10   A(3,4,9)              121.8063         estimate D2E/DX2                !
 ! A11   A(3,4,10)             120.9181         estimate D2E/DX2                !
 ! A12   A(9,4,10)             117.2756         estimate D2E/DX2                !
 ! D1    D(5,1,2,3)            179.9956         estimate D2E/DX2                !
 ! D2    D(5,1,2,7)              0.0011         estimate D2E/DX2                !
 ! D3    D(6,1,2,3)             -0.0018         estimate D2E/DX2                !
 ! D4    D(6,1,2,7)           -179.9963         estimate D2E/DX2                !
 ! D5    D(1,2,3,4)           -179.989          Frozen                          !
 ! D6    D(1,2,3,8)              0.0114         estimate D2E/DX2                !
 ! D7    D(7,2,3,4)              0.0056         estimate D2E/DX2                !
 ! D8    D(7,2,3,8)           -179.9939         estimate D2E/DX2                !
 ! D9    D(2,3,4,9)             -0.0034         estimate D2E/DX2                !
 ! D10   D(2,3,4,10)          -179.9981         estimate D2E/DX2                !
 ! D11   D(8,3,4,9)            179.9961         estimate D2E/DX2                !
 ! D12   D(8,3,4,10)             0.0014         estimate D2E/DX2                !
 --------------------------------------------------------------------------------
 Trust Radius=3.00D-01 FncErr=1.00D-07 GrdErr=1.00D-06
 Number of steps in this run=     43 maximum allowed number of steps=    100.
 GradGradGradGradGradGradGradGradGradGradGradGradGradGradGradGradGradGrad

 Leave Link  103 at Wed May 12 11:55:58 2021, MaxMem=  2147483648 cpu:         0.1
 (Enter /opt/cluster/programs/g09_d.01/g09/l202.exe)
                          Input orientation:                          
 ---------------------------------------------------------------------
 Center     Atomic      Atomic             Coordinates (Angstroms)
 Number     Number       Type             X           Y           Z
 ---------------------------------------------------------------------
      1          6           0       -1.723826   -0.666174    0.000044
      2          6           0       -0.520393   -0.082012   -0.000045
      3          6           0        0.795468   -0.701364   -0.000053
      4          6           0        1.963820   -0.034939    0.000064
      5          1           0       -2.634870   -0.081614    0.000110
      6          1           0       -1.806098   -1.746680    0.000094
      7          9           0       -0.482590    1.338038   -0.000026
      8          1           0        0.781196   -1.789080   -0.000173
      9          1           0        2.003682    1.049072    0.000121
     10          1           0        2.908983   -0.567110    0.000018
 ---------------------------------------------------------------------
                    Distance matrix (angstroms):
                    1          2          3          4          5
     1  C    0.000000
     2  C    1.337721   0.000000
     3  C    2.519540   1.454334   0.000000
     4  C    3.741282   2.484659   1.345053   0.000000
     5  H    1.082456   2.114477   3.485873   4.598927   0.000000
     6  H    1.083634   2.103368   2.803717   4.140331   1.859921
     7  F    2.357442   1.420553   2.406781   2.805350   2.578317
     8  H    2.745187   2.146675   1.087810   2.115564   3.819024
     9  H    4.103216   2.765919   2.126924   1.084744   4.774371
    10  H    4.633868   3.463516   2.117775   1.084684   5.565071
                    6          7          8          9         10
     6  H    0.000000
     7  F    3.356659   0.000000
     8  H    2.587641   3.372836   0.000000
     9  H    4.725532   2.503008   3.090239   0.000000
    10  H    4.860388   3.890033   2.453709   1.852462   0.000000
 Stoichiometry    C4H5F
 Framework group  C1[X(C4H5F)]
 Deg. of freedom    24
 Full point group                 C1      NOp   1
 Largest Abelian subgroup         C1      NOp   1
 Largest concise Abelian subgroup C1      NOp   1
                         Standard orientation:                         
 ---------------------------------------------------------------------
 Center     Atomic      Atomic             Coordinates (Angstroms)
 Number     Number       Type             X           Y           Z
 ---------------------------------------------------------------------
      1          6           0       -1.723826   -0.666174    0.000044
      2          6           0       -0.520393   -0.082012   -0.000045
      3          6           0        0.795468   -0.701364   -0.000053
      4          6           0        1.963820   -0.034939    0.000064
      5          1           0       -2.634870   -0.081614    0.000110
      6          1           0       -1.806098   -1.746680    0.000094
      7          9           0       -0.482590    1.338038   -0.000026
      8          1           0        0.781196   -1.789080   -0.000173
      9          1           0        2.003682    1.049072    0.000121
     10          1           0        2.908983   -0.567110    0.000018
 ---------------------------------------------------------------------
 Rotational constants (GHZ):      9.5940862      4.1847896      2.9138249
 Leave Link  202 at Wed May 12 11:55:58 2021, MaxMem=  2147483648 cpu:         0.0
 (Enter /opt/cluster/programs/g09_d.01/g09/l301.exe)
 Standard basis: 6-31+G (6D, 7F)
 Ernie: Thresh=  0.10000D-02 Tol=  0.10000D-05 Strict=F.
 There are    75 symmetry adapted cartesian basis functions of A   symmetry.
 There are    75 symmetry adapted basis functions of A   symmetry.
    75 basis functions,   150 primitive gaussians,    75 cartesian basis functions
    19 alpha electrons       19 beta electrons
       nuclear repulsion energy       157.4517314714 Hartrees.
 IExCor= 4639 DFT=T Ex+Corr=wB97XD ExCW=0 ScaHFX=  1.000000
 ScaDFX=  1.000000  1.000000  1.000000  1.000000 ScalE2=  1.000000  1.000000
 IRadAn=      0 IRanWt=     -1 IRanGd=            0 ICorTp=0 IEmpDi=121
  HFx wShort=  0.000000 wLong=  0.200000 cFull=  0.222036 cShort=  0.000000 cLong=  0.777964
  DFx wShort=  0.000000 wLong=  0.200000 cFull=  0.000000 cShort=  0.000000 cLong=  1.000000
 NAtoms=   10 NActive=   10 NUniq=   10 SFac= 1.00D+00 NAtFMM=   60 NAOKFM=F Big=F
 Integral buffers will be    131072 words long.
 Raffenetti 2 integral format.
 Two-electron integral symmetry is turned on.
 R6Disp:  Grimme-D2 Dispersion energy=       -0.0029330946 Hartrees.
 Nuclear repulsion after empirical dispersion term =      157.4487983768 Hartrees.
 Leave Link  301 at Wed May 12 11:55:58 2021, MaxMem=  2147483648 cpu:         0.3
 (Enter /opt/cluster/programs/g09_d.01/g09/l302.exe)
 NPDir=0 NMtPBC=     1 NCelOv=     1 NCel=       1 NClECP=     1 NCelD=      1
         NCelK=      1 NCelE2=     1 NClLst=     1 CellRange=     0.0.
 One-electron integrals computed using PRISM.
 NBasis=    75 RedAO= T EigKep=  2.34D-05  NBF=    75
 NBsUse=    75 1.00D-06 EigRej= -1.00D+00 NBFU=    75
 Precomputing XC quadrature grid using
 IXCGrd= 4 IRadAn=           0 IRanWt=          -1 IRanGd=           0 AccXCQ= 0.00D+00.
 Generated NRdTot=       0 NPtTot=           0 NUsed=           0 NTot=          32
 NSgBfM=    75    75    75    75    75 MxSgAt=    10 MxSgA2=    10.
 Leave Link  302 at Wed May 12 11:55:59 2021, MaxMem=  2147483648 cpu:         0.9
 (Enter /opt/cluster/programs/g09_d.01/g09/l303.exe)
 DipDrv:  MaxL=1.
 Leave Link  303 at Wed May 12 11:55:59 2021, MaxMem=  2147483648 cpu:         0.2
 (Enter /opt/cluster/programs/g09_d.01/g09/l401.exe)
 ExpMin= 4.38D-02 ExpMax= 7.00D+03 ExpMxC= 1.05D+03 IAcc=2 IRadAn=         4 AccDes= 0.00D+00
 Harris functional with IExCor= 4639 and IRadAn=       4 diagonalized for initial guess.
 HarFok:  IExCor= 4639 AccDes= 0.00D+00 IRadAn=         4 IDoV= 1 UseB2=F ITyADJ=14
 ICtDFT=  3500011 ScaDFX=  1.000000  1.000000  1.000000  1.000000
 FoFCou: FMM=F IPFlag=           0 FMFlag=      100000 FMFlg1=           0
         NFxFlg=           0 DoJE=T BraDBF=F KetDBF=T FulRan=T
         wScrn=  0.000000 ICntrl=     500 IOpCl=  0 I1Cent=   200000004 NGrid=           0
         NMat0=    1 NMatS0=      1 NMatT0=    0 NMatD0=    1 NMtDS0=    0 NMtDT0=    0
 Petite list used in FoFCou.
 Harris En= -244.789218601554    
 JPrj=0 DoOrth=F DoCkMO=F.
 Leave Link  401 at Wed May 12 11:55:59 2021, MaxMem=  2147483648 cpu:         1.3
 (Enter /opt/cluster/programs/g09_d.01/g09/l502.exe)
 Closed shell SCF:
 Using DIIS extrapolation, IDIIS=  1040.
 Integral symmetry usage will be decided dynamically.
 Keep R1 ints in memory in canonical form, NReq=9056162.
 IVT=       36600 IEndB=       36600 NGot=  2147483648 MDV=  2139321699
 LenX=  2139321699 LenY=  2139315633
 Requested convergence on RMS density matrix=1.00D-08 within 128 cycles.
 Requested convergence on MAX density matrix=1.00D-06.
 Requested convergence on             energy=1.00D-06.
 No special actions if energy rises.
 FoFCou: FMM=F IPFlag=           0 FMFlag=           0 FMFlg1=           0
         NFxFlg=           0 DoJE=F BraDBF=F KetDBF=F FulRan=T
         wScrn=  0.000000 ICntrl=     600 IOpCl=  0 I1Cent=           0 NGrid=           0
         NMat0=    1 NMatS0=   2850 NMatT0=    0 NMatD0=    1 NMtDS0=    0 NMtDT0=    0
 Symmetry not used in FoFCou.

 Cycle   1  Pass 1  IDiag  1:
 E= -254.941805286610    
 DIIS: error= 6.50D-02 at cycle   1 NSaved=   1.
 NSaved= 1 IEnMin= 1 EnMin= -254.941805286610     IErMin= 1 ErrMin= 6.50D-02
 ErrMax= 6.50D-02  0.00D+00 EMaxC= 1.00D-01 BMatC= 2.54D-01 BMatP= 2.54D-01
 IDIUse=3 WtCom= 3.50D-01 WtEn= 6.50D-01
 Coeff-Com:  0.100D+01
 Coeff-En:   0.100D+01
 Coeff:      0.100D+01
 Gap=     0.431 Goal=   None    Shift=    0.000
 GapD=    0.431 DampG=2.000 DampE=0.500 DampFc=1.0000 IDamp=-1.
 RMSDP=1.94D-02 MaxDP=5.36D-01              OVMax= 1.68D-01

 Cycle   2  Pass 1  IDiag  1:
 E= -254.909192058446     Delta-E=        0.032613228164 Rises=F Damp=F
 DIIS: error= 5.88D-02 at cycle   2 NSaved=   2.
 NSaved= 2 IEnMin= 1 EnMin= -254.941805286610     IErMin= 2 ErrMin= 5.88D-02
 ErrMax= 5.88D-02  0.00D+00 EMaxC= 1.00D-01 BMatC= 2.85D-01 BMatP= 2.54D-01
 IDIUse=2 WtCom= 0.00D+00 WtEn= 1.00D+00
 Coeff-En:   0.545D+00 0.455D+00
 Coeff:      0.545D+00 0.455D+00
 Gap=     0.451 Goal=   None    Shift=    0.000
 RMSDP=6.51D-03 MaxDP=9.54D-02 DE= 3.26D-02 OVMax= 8.71D-02

 Cycle   3  Pass 1  IDiag  1:
 E= -255.101082803887     Delta-E=       -0.191890745441 Rises=F Damp=F
 DIIS: error= 2.56D-03 at cycle   3 NSaved=   3.
 NSaved= 3 IEnMin= 3 EnMin= -255.101082803887     IErMin= 3 ErrMin= 2.56D-03
 ErrMax= 2.56D-03  0.00D+00 EMaxC= 1.00D-01 BMatC= 5.91D-04 BMatP= 2.54D-01
 IDIUse=3 WtCom= 9.74D-01 WtEn= 2.56D-02
 Coeff-Com:  0.229D-03-0.285D-01 0.103D+01
 Coeff-En:   0.000D+00 0.000D+00 0.100D+01
 Coeff:      0.223D-03-0.277D-01 0.103D+01
 Gap=     0.342 Goal=   None    Shift=    0.000
 RMSDP=2.84D-03 MaxDP=7.17D-02 DE=-1.92D-01 OVMax= 1.48D-02

 Cycle   4  Pass 1  IDiag  1:
 E= -255.101521666828     Delta-E=       -0.000438862941 Rises=F Damp=F
 DIIS: error= 2.62D-03 at cycle   4 NSaved=   4.
 NSaved= 4 IEnMin= 4 EnMin= -255.101521666828     IErMin= 3 ErrMin= 2.56D-03
 ErrMax= 2.62D-03  0.00D+00 EMaxC= 1.00D-01 BMatC= 2.87D-04 BMatP= 5.91D-04
 IDIUse=3 WtCom= 9.74D-01 WtEn= 2.62D-02
 Coeff-Com: -0.929D-02-0.260D-01 0.478D+00 0.557D+00
 Coeff-En:   0.000D+00 0.000D+00 0.703D-01 0.930D+00
 Coeff:     -0.904D-02-0.253D-01 0.467D+00 0.567D+00
 Gap=     0.342 Goal=   None    Shift=    0.000
 RMSDP=4.03D-04 MaxDP=7.18D-03 DE=-4.39D-04 OVMax= 8.08D-03

 Cycle   5  Pass 1  IDiag  1:
 E= -255.101834015277     Delta-E=       -0.000312348449 Rises=F Damp=F
 DIIS: error= 3.84D-04 at cycle   5 NSaved=   5.
 NSaved= 5 IEnMin= 5 EnMin= -255.101834015277     IErMin= 5 ErrMin= 3.84D-04
 ErrMax= 3.84D-04  0.00D+00 EMaxC= 1.00D-01 BMatC= 8.75D-06 BMatP= 2.87D-04
 IDIUse=3 WtCom= 9.96D-01 WtEn= 3.84D-03
 Coeff-Com: -0.230D-02-0.528D-02 0.200D-01 0.106D+00 0.882D+00
 Coeff-En:   0.000D+00 0.000D+00 0.000D+00 0.000D+00 0.100D+01
 Coeff:     -0.229D-02-0.526D-02 0.199D-01 0.105D+00 0.882D+00
 Gap=     0.342 Goal=   None    Shift=    0.000
 RMSDP=2.86D-04 MaxDP=7.16D-03 DE=-3.12D-04 OVMax= 1.68D-03

 Cycle   6  Pass 1  IDiag  1:
 E= -255.101846984800     Delta-E=       -0.000012969523 Rises=F Damp=F
 DIIS: error= 2.00D-04 at cycle   6 NSaved=   6.
 NSaved= 6 IEnMin= 6 EnMin= -255.101846984800     IErMin= 6 ErrMin= 2.00D-04
 ErrMax= 2.00D-04  0.00D+00 EMaxC= 1.00D-01 BMatC= 2.25D-06 BMatP= 8.75D-06
 IDIUse=3 WtCom= 9.98D-01 WtEn= 2.00D-03
 Coeff-Com:  0.708D-03 0.203D-02-0.808D-01-0.606D-01 0.378D+00 0.761D+00
 Coeff-En:   0.000D+00 0.000D+00 0.000D+00 0.000D+00 0.000D+00 0.100D+01
 Coeff:      0.706D-03 0.203D-02-0.806D-01-0.605D-01 0.377D+00 0.761D+00
 Gap=     0.342 Goal=   None    Shift=    0.000
 RMSDP=1.10D-04 MaxDP=2.35D-03 DE=-1.30D-05 OVMax= 8.94D-04

 Cycle   7  Pass 1  IDiag  1:
 E= -255.101850165649     Delta-E=       -0.000003180849 Rises=F Damp=F
 DIIS: error= 2.77D-05 at cycle   7 NSaved=   7.
 NSaved= 7 IEnMin= 7 EnMin= -255.101850165649     IErMin= 7 ErrMin= 2.77D-05
 ErrMax= 2.77D-05  0.00D+00 EMaxC= 1.00D-01 BMatC= 4.32D-08 BMatP= 2.25D-06
 IDIUse=1 WtCom= 1.00D+00 WtEn= 0.00D+00
 Coeff-Com:  0.202D-03 0.410D-03-0.934D-02-0.103D-01 0.293D-02 0.782D-01
 Coeff-Com:  0.938D+00
 Coeff:      0.202D-03 0.410D-03-0.934D-02-0.103D-01 0.293D-02 0.782D-01
 Coeff:      0.938D+00
 Gap=     0.342 Goal=   None    Shift=    0.000
 RMSDP=1.22D-05 MaxDP=2.17D-04 DE=-3.18D-06 OVMax= 1.49D-04

 Cycle   8  Pass 1  IDiag  1:
 E= -255.101850233347     Delta-E=       -0.000000067698 Rises=F Damp=F
 DIIS: error= 1.93D-05 at cycle   8 NSaved=   8.
 NSaved= 8 IEnMin= 8 EnMin= -255.101850233347     IErMin= 8 ErrMin= 1.93D-05
 ErrMax= 1.93D-05  0.00D+00 EMaxC= 1.00D-01 BMatC= 1.63D-08 BMatP= 4.32D-08
 IDIUse=1 WtCom= 1.00D+00 WtEn= 0.00D+00
 Coeff-Com: -0.287D-04-0.167D-03 0.805D-02 0.488D-02-0.503D-01-0.744D-01
 Coeff-Com:  0.438D+00 0.674D+00
 Coeff:     -0.287D-04-0.167D-03 0.805D-02 0.488D-02-0.503D-01-0.744D-01
 Coeff:      0.438D+00 0.674D+00
 Gap=     0.342 Goal=   None    Shift=    0.000
 RMSDP=8.14D-06 MaxDP=1.94D-04 DE=-6.77D-08 OVMax= 9.40D-05

 Cycle   9  Pass 1  IDiag  1:
 E= -255.101850254466     Delta-E=       -0.000000021118 Rises=F Damp=F
 DIIS: error= 3.89D-06 at cycle   9 NSaved=   9.
 NSaved= 9 IEnMin= 9 EnMin= -255.101850254466     IErMin= 9 ErrMin= 3.89D-06
 ErrMax= 3.89D-06  0.00D+00 EMaxC= 1.00D-01 BMatC= 7.72D-10 BMatP= 1.63D-08
 IDIUse=1 WtCom= 1.00D+00 WtEn= 0.00D+00
 Coeff-Com: -0.167D-04-0.540D-04 0.222D-02 0.137D-02-0.983D-02-0.224D-01
 Coeff-Com:  0.103D-01 0.169D+00 0.850D+00
 Coeff:     -0.167D-04-0.540D-04 0.222D-02 0.137D-02-0.983D-02-0.224D-01
 Coeff:      0.103D-01 0.169D+00 0.850D+00
 Gap=     0.342 Goal=   None    Shift=    0.000
 RMSDP=2.28D-06 MaxDP=4.93D-05 DE=-2.11D-08 OVMax= 1.49D-05

 Cycle  10  Pass 1  IDiag  1:
 E= -255.101850255464     Delta-E=       -0.000000000998 Rises=F Damp=F
 DIIS: error= 5.98D-07 at cycle  10 NSaved=  10.
 NSaved=10 IEnMin=10 EnMin= -255.101850255464     IErMin=10 ErrMin= 5.98D-07
 ErrMax= 5.98D-07  0.00D+00 EMaxC= 1.00D-01 BMatC= 4.55D-11 BMatP= 7.72D-10
 IDIUse=1 WtCom= 1.00D+00 WtEn= 0.00D+00
 Coeff-Com:  0.185D-05 0.117D-04-0.413D-03-0.333D-03 0.343D-02 0.271D-02
 Coeff-Com: -0.450D-01-0.137D-01 0.178D+00 0.875D+00
 Coeff:      0.185D-05 0.117D-04-0.413D-03-0.333D-03 0.343D-02 0.271D-02
 Coeff:     -0.450D-01-0.137D-01 0.178D+00 0.875D+00
 Gap=     0.342 Goal=   None    Shift=    0.000
 RMSDP=6.28D-07 MaxDP=1.30D-05 DE=-9.98D-10 OVMax= 5.38D-06

 Cycle  11  Pass 1  IDiag  1:
 E= -255.101850255545     Delta-E=       -0.000000000082 Rises=F Damp=F
 DIIS: error= 1.40D-07 at cycle  11 NSaved=  11.
 NSaved=11 IEnMin=11 EnMin= -255.101850255545     IErMin=11 ErrMin= 1.40D-07
 ErrMax= 1.40D-07  0.00D+00 EMaxC= 1.00D-01 BMatC= 1.24D-12 BMatP= 4.55D-11
 IDIUse=1 WtCom= 1.00D+00 WtEn= 0.00D+00
 Coeff-Com:  0.585D-06 0.122D-05-0.711D-04-0.454D-04 0.316D-03 0.658D-03
 Coeff-Com:  0.152D-02-0.386D-02-0.515D-01-0.538D-01 0.111D+01
 Coeff:      0.585D-06 0.122D-05-0.711D-04-0.454D-04 0.316D-03 0.658D-03
 Coeff:      0.152D-02-0.386D-02-0.515D-01-0.538D-01 0.111D+01
 Gap=     0.342 Goal=   None    Shift=    0.000
 RMSDP=1.39D-07 MaxDP=2.40D-06 DE=-8.17D-11 OVMax= 1.57D-06

 Cycle  12  Pass 1  IDiag  1:
 E= -255.101850255548     Delta-E=       -0.000000000002 Rises=F Damp=F
 DIIS: error= 5.26D-08 at cycle  12 NSaved=  12.
 NSaved=12 IEnMin=12 EnMin= -255.101850255548     IErMin=12 ErrMin= 5.26D-08
 ErrMax= 5.26D-08  0.00D+00 EMaxC= 1.00D-01 BMatC= 9.45D-14 BMatP= 1.24D-12
 IDIUse=1 WtCom= 1.00D+00 WtEn= 0.00D+00
 Coeff-Com: -0.714D-07-0.799D-06 0.214D-04 0.116D-04-0.121D-03-0.214D-03
 Coeff-Com:  0.172D-02 0.107D-02-0.419D-02-0.338D-01-0.107D+00 0.114D+01
 Coeff:     -0.714D-07-0.799D-06 0.214D-04 0.116D-04-0.121D-03-0.214D-03
 Coeff:      0.172D-02 0.107D-02-0.419D-02-0.338D-01-0.107D+00 0.114D+01
 Gap=     0.342 Goal=   None    Shift=    0.000
 RMSDP=3.33D-08 MaxDP=5.79D-07 DE=-2.10D-12 OVMax= 3.39D-07

 Cycle  13  Pass 1  IDiag  1:
 E= -255.101850255548     Delta-E=        0.000000000000 Rises=F Damp=F
 DIIS: error= 6.24D-09 at cycle  13 NSaved=  13.
 NSaved=13 IEnMin=13 EnMin= -255.101850255548     IErMin=13 ErrMin= 6.24D-09
 ErrMax= 6.24D-09  0.00D+00 EMaxC= 1.00D-01 BMatC= 1.68D-15 BMatP= 9.45D-14
 IDIUse=1 WtCom= 1.00D+00 WtEn= 0.00D+00
 Coeff-Com: -0.116D-07 0.601D-07 0.798D-06-0.497D-06-0.710D-06-0.140D-04
 Coeff-Com: -0.160D-03 0.123D-03 0.166D-02 0.536D-02-0.234D-01-0.116D+00
 Coeff-Com:  0.113D+01
 Coeff:     -0.116D-07 0.601D-07 0.798D-06-0.497D-06-0.710D-06-0.140D-04
 Coeff:     -0.160D-03 0.123D-03 0.166D-02 0.536D-02-0.234D-01-0.116D+00
 Coeff:      0.113D+01
 Gap=     0.342 Goal=   None    Shift=    0.000
 RMSDP=5.36D-09 MaxDP=6.42D-08 DE=-1.71D-13 OVMax= 4.89D-08

 SCF Done:  E(RwB97XD) =  -255.101850256     A.U. after   13 cycles
            NFock= 13  Conv=0.54D-08     -V/T= 2.0058
 KE= 2.536226086536D+02 PE=-9.125262106904D+02 EE= 2.463529534044D+02
 Leave Link  502 at Wed May 12 11:56:00 2021, MaxMem=  2147483648 cpu:        12.8
 (Enter /opt/cluster/programs/g09_d.01/g09/l601.exe)
 Copying SCF densities to generalized density rwf, IOpCl= 0 IROHF=0.

 **********************************************************************

            Population analysis using the SCF density.

 **********************************************************************

 Orbital symmetries:
       Occupied  (A) (A) (A) (A) (A) (A) (A) (A) (A) (A) (A) (A)
                 (A) (A) (A) (A) (A) (A) (A)
       Virtual   (A) (A) (A) (A) (A) (A) (A) (A) (A) (A) (A) (A)
                 (A) (A) (A) (A) (A) (A) (A) (A) (A) (A) (A) (A)
                 (A) (A) (A) (A) (A) (A) (A) (A) (A) (A) (A) (A)
                 (A) (A) (A) (A) (A) (A) (A) (A) (A) (A) (A) (A)
                 (A) (A) (A) (A) (A) (A) (A) (A)
 The electronic state is 1-A.
 Alpha  occ. eigenvalues --  -24.83125 -10.40495 -10.33033 -10.31518 -10.31384
 Alpha  occ. eigenvalues --   -1.30863  -0.92828  -0.86418  -0.73325  -0.66479
 Alpha  occ. eigenvalues --   -0.60218  -0.58688  -0.53998  -0.53474  -0.50400
 Alpha  occ. eigenvalues --   -0.48050  -0.45923  -0.41267  -0.32719
 Alpha virt. eigenvalues --    0.01509   0.06731   0.07922   0.09881   0.10358
 Alpha virt. eigenvalues --    0.11354   0.12086   0.12859   0.14497   0.15199
 Alpha virt. eigenvalues --    0.16217   0.16547   0.19015   0.19797   0.19982
 Alpha virt. eigenvalues --    0.21422   0.22304   0.24504   0.27211   0.28996
 Alpha virt. eigenvalues --    0.30341   0.30662   0.32804   0.38735   0.41044
 Alpha virt. eigenvalues --    0.41973   0.43810   0.45145   0.49669   0.50090
 Alpha virt. eigenvalues --    0.54056   0.72379   0.74027   0.76839   0.78511
 Alpha virt. eigenvalues --    0.82509   0.83254   0.83544   0.88419   0.92245
 Alpha virt. eigenvalues --    1.00216   1.03228   1.03866   1.11302   1.14281
 Alpha virt. eigenvalues --    1.16030   1.20982   1.24792   1.29871   1.36335
 Alpha virt. eigenvalues --    1.43274   1.51105   1.66029   1.83249   1.86647
 Alpha virt. eigenvalues --    2.39633
          Condensed to atoms (all electrons):
               1          2          3          4          5          6
     1  C    6.510146  -0.401053  -0.149746  -0.095604   0.408803   0.339354
     2  C   -0.401053   6.106506  -0.305309   0.171301  -0.077193  -0.017894
     3  C   -0.149746  -0.305309   6.100304   0.344018   0.023794   0.015067
     4  C   -0.095604   0.171301   0.344018   5.227662  -0.002647   0.000845
     5  H    0.408803  -0.077193   0.023794  -0.002647   0.446449  -0.019604
     6  H    0.339354  -0.017894   0.015067   0.000845  -0.019604   0.469509
     7  F   -0.187564   0.323761  -0.150864   0.001606  -0.001801   0.004073
     8  H   -0.054785   0.068004   0.250343   0.039802   0.000114   0.000871
     9  H   -0.014469   0.015926  -0.088026   0.432406   0.000004  -0.000002
    10  H    0.003590   0.020557  -0.042133   0.365326   0.000001  -0.000002
               7          8          9         10
     1  C   -0.187564  -0.054785  -0.014469   0.003590
     2  C    0.323761   0.068004   0.015926   0.020557
     3  C   -0.150864   0.250343  -0.088026  -0.042133
     4  C    0.001606   0.039802   0.432406   0.365326
     5  H   -0.001801   0.000114   0.000004   0.000001
     6  H    0.004073   0.000871  -0.000002  -0.000002
     7  F    9.329300   0.003337   0.000435   0.000547
     8  H    0.003337   0.477012   0.002432  -0.003189
     9  H    0.000435   0.002432   0.450128  -0.023606
    10  H    0.000547  -0.003189  -0.023606   0.481334
 Mulliken charges:
               1
     1  C   -0.358674
     2  C    0.095394
     3  C    0.002552
     4  C   -0.484714
     5  H    0.222081
     6  H    0.207783
     7  F   -0.322829
     8  H    0.216059
     9  H    0.224773
    10  H    0.197576
 Sum of Mulliken charges =   0.00000
 Mulliken charges with hydrogens summed into heavy atoms:
               1
     1  C    0.071189
     2  C    0.095394
     3  C    0.218611
     4  C   -0.062365
     7  F   -0.322829
 Electronic spatial extent (au):  <R**2>=            426.2755
 Charge=              0.0000 electrons
 Dipole moment (field-independent basis, Debye):
    X=              0.3384    Y=             -2.1252    Z=              0.0000  Tot=              2.1520
 Quadrupole moment (field-independent basis, Debye-Ang):
   XX=            -24.7630   YY=            -29.4431   ZZ=            -32.9028
   XY=              1.3507   XZ=             -0.0004   YZ=              0.0003
 Traceless Quadrupole moment (field-independent basis, Debye-Ang):
   XX=              4.2733   YY=             -0.4068   ZZ=             -3.8665
   XY=              1.3507   XZ=             -0.0004   YZ=              0.0003
 Octapole moment (field-independent basis, Debye-Ang**2):
  XXX=             -2.9301  YYY=              1.1528  ZZZ=             -0.0003  XYY=              0.7436
  XXY=              2.0352  XXZ=              0.0009  XZZ=             -1.7188  YZZ=              4.9878
  YYZ=             -0.0001  XYZ=              0.0007
 Hexadecapole moment (field-independent basis, Debye-Ang**3):
 XXXX=           -332.5328 YYYY=           -137.6687 ZZZZ=            -37.3996 XXXY=             -8.0608
 XXXZ=             -0.0028 YYYX=              2.0973 YYYZ=              0.0007 ZZZX=             -0.0003
 ZZZY=             -0.0001 XXYY=            -81.2148 XXZZ=            -78.9681 YYZZ=            -32.2552
 XXYZ=              0.0001 YYXZ=             -0.0009 ZZXY=             -2.1174
 N-N= 1.574487983768D+02 E-N=-9.125262108477D+02  KE= 2.536226086536D+02
 No NMR shielding tensors so no spin-rotation constants.
 Leave Link  601 at Wed May 12 11:56:01 2021, MaxMem=  2147483648 cpu:         0.6
 (Enter /opt/cluster/programs/g09_d.01/g09/l701.exe)
 Compute integral first derivatives.
 ... and contract with generalized density number  0.
 R6Disp: Adding Grimme-D2 dispersion energy 1st derivatives to the gradient.
 Leave Link  701 at Wed May 12 11:56:01 2021, MaxMem=  2147483648 cpu:         0.6
 (Enter /opt/cluster/programs/g09_d.01/g09/l702.exe)
 L702 exits ... SP integral derivatives will be done elsewhere.
 Leave Link  702 at Wed May 12 11:56:01 2021, MaxMem=  2147483648 cpu:         0.2
 (Enter /opt/cluster/programs/g09_d.01/g09/l703.exe)
 Compute integral first derivatives, UseDBF=F ICtDFT=           0.
 Integral derivatives from FoFJK, PRISM(SPDF).
 Calling FoFJK, ICntrl=      2127 FMM=F ISym2X=0 I1Cent= 0 IOpClX= 0 NMat=1 NMatS=1 NMatT=0.
 FoFJK:  IHMeth= 1 ICntrl=    2127 DoSepK=T KAlg= 0 I1Cent=   0 FoldK=F
 IRaf=         1 NMat=   1 IRICut=       1 DoRegI=T DoRafI=F ISym2E= 0.
 FoFCou: FMM=F IPFlag=           0 FMFlag=      100000 FMFlg1=         800
         NFxFlg=           0 DoJE=F BraDBF=F KetDBF=F FulRan=T
         wScrn=  0.000000 ICntrl=    2527 IOpCl=  0 I1Cent=           0 NGrid=           0
         NMat0=    1 NMatS0=      1 NMatT0=    0 NMatD0=    1 NMtDS0=    0 NMtDT0=    0
 Symmetry not used in FoFCou.
 Leave Link  703 at Wed May 12 11:56:01 2021, MaxMem=  2147483648 cpu:         3.3
 (Enter /opt/cluster/programs/g09_d.01/g09/l716.exe)
 Dipole        = 1.33119268D-01-8.36136888D-01 1.35559194D-05
 ***** Axes restored to original set *****
 -------------------------------------------------------------------
 Center     Atomic                   Forces (Hartrees/Bohr)
 Number     Number              X              Y              Z
 -------------------------------------------------------------------
      1        6           0.005862156    0.002386647   -0.000000320
      2        6          -0.007740986    0.004764080    0.000007946
      3        6           0.007357122    0.001375196   -0.000001828
      4        6          -0.005656097   -0.002740979   -0.000007598
      5        1           0.000588297    0.000131444   -0.000001156
      6        1           0.000458375    0.000348142   -0.000001625
      7        9           0.000035726   -0.006383385   -0.000001975
      8        1           0.000090249    0.000460612    0.000001741
      9        1          -0.000341857   -0.000200455    0.000002692
     10        1          -0.000652985   -0.000141303    0.000002124
 -------------------------------------------------------------------
 Cartesian Forces:  Max     0.007740986 RMS     0.002946583
 Leave Link  716 at Wed May 12 11:56:01 2021, MaxMem=  2147483648 cpu:         0.2
 (Enter /opt/cluster/programs/g09_d.01/g09/l103.exe)

 GradGradGradGradGradGradGradGradGradGradGradGradGradGradGradGradGradGrad
 Berny optimization.
 FormGI is forming the generalized inverse of G from B-inverse, IUseBI=4.
 Internal  Forces:  Max     0.007465204 RMS     0.002168750
 Search for a local minimum.
 Step number   1 out of a maximum of   43
 All quantities printed in internal units (Hartrees-Bohrs-Radians)
 RMS Force = .22024D-02 SwitMx=.10000D-02 MixMth= 1
 Mixed Optimization -- RFO/linear search
 Second derivative matrix not updated -- first step.
 ITU=  0
     Eigenvalues ---    0.01768   0.02149   0.02816   0.02816   0.02913
     Eigenvalues ---    0.02913   0.16000   0.16000   0.16000   0.16000
     Eigenvalues ---    0.16000   0.22000   0.25000   0.25000   0.35067
     Eigenvalues ---    0.35427   0.35434   0.35559   0.35699   0.37683
     Eigenvalues ---    0.42377   0.56087   0.577191000.000001000.00000
     Eigenvalues --- 1000.000001000.000001000.000001000.000001000.00000
     Eigenvalues --- 1000.000001000.000001000.00000
 RFO step:  Lambda=-3.09176076D-04 EMin= 1.76762713D-02
 Linear search not attempted -- first point.
 Iteration  1 RMS(Cart)=  0.00763996 RMS(Int)=  0.00000670
 Iteration  2 RMS(Cart)=  0.00000976 RMS(Int)=  0.00000001
 Iteration  3 RMS(Cart)=  0.00000000 RMS(Int)=  0.00000001
 Iteration  1 RMS(Cart)=  0.00000001 RMS(Int)=  0.00000000
 ITry= 1 IFail=0 DXMaxC= 2.21D-02 DCOld= 1.00D+10 DXMaxT= 3.00D-01 DXLimC= 3.00D+00 Rises=F
 Variable       Old X    -DE/DX   Delta X   Delta X   Delta X     New X
                                 (Linear)    (Quad)   (Total)
    R1        2.52793  -0.00747   0.00000  -0.01293  -0.01293   2.51500
    R2        2.04555  -0.00043   0.00000  -0.00119  -0.00119   2.04435
    R3        2.04777  -0.00038   0.00000  -0.00107  -0.00107   2.04670
    R4        2.74829   0.00125   0.00000   0.00331   0.00331   2.75160
    R5        2.68446  -0.00638   0.00000  -0.01505  -0.01505   2.66941
    R6        2.54178  -0.00730   0.00000  -0.01301  -0.01301   2.52877
    R7        2.05566  -0.00046   0.00000  -0.00132  -0.00132   2.05434
    R8        2.04987  -0.00021   0.00000  -0.00059  -0.00059   2.04927
    R9        2.04976  -0.00050   0.00000  -0.00141  -0.00141   2.04834
    A1        2.11921  -0.00029   0.00000  -0.00178  -0.00178   2.11743
    A2        2.09870  -0.00030   0.00000  -0.00187  -0.00187   2.09683
    A3        2.06527   0.00059   0.00000   0.00365   0.00365   2.06893
    A4        2.24976  -0.00058   0.00000  -0.00231  -0.00231   2.24745
    A5        2.04932   0.00056   0.00000   0.00225   0.00225   2.05157
    A6        1.98410   0.00002   0.00000   0.00006   0.00006   1.98417
    A7        2.18330  -0.00097   0.00000  -0.00442  -0.00442   2.17888
    A8        1.99760   0.00058   0.00000   0.00276   0.00276   2.00036
    A9        2.10229   0.00040   0.00000   0.00166   0.00166   2.10395
   A10        2.12592  -0.00016   0.00000  -0.00099  -0.00099   2.12494
   A11        2.11042  -0.00037   0.00000  -0.00232  -0.00232   2.10810
   A12        2.04684   0.00053   0.00000   0.00331   0.00331   2.05015
    D1        3.14152   0.00000   0.00000   0.00008   0.00008  -3.14159
    D2        0.00002   0.00000   0.00000  -0.00001  -0.00001   0.00001
    D3       -0.00003   0.00000   0.00000   0.00000   0.00000  -0.00003
    D4       -3.14153   0.00000   0.00000  -0.00009  -0.00009   3.14157
    D5       -3.14140   0.00000   0.00000   0.00000   0.00000  -3.14140
    D6        0.00020   0.00000   0.00000  -0.00007  -0.00007   0.00013
    D7        0.00010   0.00000   0.00000   0.00009   0.00009   0.00019
    D8       -3.14149   0.00000   0.00000   0.00002   0.00002  -3.14146
    D9       -0.00006   0.00000   0.00000   0.00005   0.00005  -0.00001
   D10       -3.14156   0.00000   0.00000  -0.00010  -0.00010   3.14153
   D11        3.14152   0.00000   0.00000   0.00012   0.00012  -3.14154
   D12        0.00002   0.00000   0.00000  -0.00003  -0.00003  -0.00001
         Item               Value     Threshold  Converged?
 Maximum Force            0.007465     0.000450     NO 
 RMS     Force            0.002202     0.000300     NO 
 Maximum Displacement     0.022074     0.001800     NO 
 RMS     Displacement     0.007640     0.001200     NO 
 Predicted change in Energy=-1.546899D-04
 Lowest energy point so far.  Saving SCF results.
 GradGradGradGradGradGradGradGradGradGradGradGradGradGradGradGradGradGrad

 Leave Link  103 at Wed May 12 11:56:01 2021, MaxMem=  2147483648 cpu:         0.0
 (Enter /opt/cluster/programs/g09_d.01/g09/l202.exe)
                          Input orientation:                          
 ---------------------------------------------------------------------
 Center     Atomic      Atomic             Coordinates (Angstroms)
 Number     Number       Type             X           Y           Z
 ---------------------------------------------------------------------
      1          6           0       -1.717411   -0.662776    0.000075
      2          6           0       -0.520588   -0.080662   -0.000022
      3          6           0        0.795907   -0.702775   -0.000084
      4          6           0        1.956354   -0.036401    0.000028
      5          1           0       -2.627343   -0.077651    0.000112
      6          1           0       -1.796771   -1.742933    0.000087
      7          9           0       -0.480928    1.331372   -0.000067
      8          1           0        0.782983   -1.789811   -0.000177
      9          1           0        1.992001    1.047442    0.000166
     10          1           0        2.901169   -0.567668    0.000035
 ---------------------------------------------------------------------
                    Distance matrix (angstroms):
                    1          2          3          4          5
     1  C    0.000000
     2  C    1.330880   0.000000
     3  C    2.513636   1.456085   0.000000
     4  C    3.726781   2.477338   1.338168   0.000000
     5  H    1.081826   2.106757   3.479860   4.583883   0.000000
     6  H    1.083069   2.095659   2.793547   4.122887   1.860918
     7  F    2.346383   1.412591   2.401679   2.794844   2.567576
     8  H    2.742659   2.149532   1.087112   2.109797   3.815995
     9  H    4.084676   2.754219   2.119882   1.084429   4.754385
    10  H    4.619559   3.456240   2.109593   1.083936   5.550186
                    6          7          8          9         10
     6  H    0.000000
     7  F    3.344069   0.000000
     8  H    2.580180   3.367381   0.000000
     9  H    4.705421   2.489175   3.084108   0.000000
    10  H    4.842715   3.878780   2.445474   1.853420   0.000000
 Stoichiometry    C4H5F
 Framework group  C1[X(C4H5F)]
 Deg. of freedom    24
 Full point group                 C1      NOp   1
 RotChk:  IX=0 Diff= 3.05D-03
 Largest Abelian subgroup         C1      NOp   1
 Largest concise Abelian subgroup C1      NOp   1
                         Standard orientation:                         
 ---------------------------------------------------------------------
 Center     Atomic      Atomic             Coordinates (Angstroms)
 Number     Number       Type             X           Y           Z
 ---------------------------------------------------------------------
      1          6           0       -1.716225   -0.665320    0.000086
      2          6           0       -0.520659   -0.080628   -0.000012
      3          6           0        0.797174   -0.699902   -0.000074
      4          6           0        1.956182   -0.031028    0.000038
      5          1           0       -2.627416   -0.082158    0.000123
      6          1           0       -1.793256   -1.745646    0.000098
      7          9           0       -0.484043    1.331489   -0.000057
      8          1           0        0.786593   -1.786962   -0.000166
      9          1           0        1.989492    1.052889    0.000176
     10          1           0        2.902140   -0.560257    0.000045
 ---------------------------------------------------------------------
 Rotational constants (GHZ):      9.6645441      4.2122098      2.9336175
 Leave Link  202 at Wed May 12 11:56:01 2021, MaxMem=  2147483648 cpu:         0.0
 (Enter /opt/cluster/programs/g09_d.01/g09/l301.exe)
 Standard basis: 6-31+G (6D, 7F)
 Ernie: Thresh=  0.10000D-02 Tol=  0.10000D-05 Strict=F.
 There are    75 symmetry adapted cartesian basis functions of A   symmetry.
 There are    75 symmetry adapted basis functions of A   symmetry.
    75 basis functions,   150 primitive gaussians,    75 cartesian basis functions
    19 alpha electrons       19 beta electrons
       nuclear repulsion energy       157.9655080906 Hartrees.
 IExCor= 4639 DFT=T Ex+Corr=wB97XD ExCW=0 ScaHFX=  1.000000
 ScaDFX=  1.000000  1.000000  1.000000  1.000000 ScalE2=  1.000000  1.000000
 IRadAn=      0 IRanWt=     -1 IRanGd=            0 ICorTp=0 IEmpDi=121
  HFx wShort=  0.000000 wLong=  0.200000 cFull=  0.222036 cShort=  0.000000 cLong=  0.777964
  DFx wShort=  0.000000 wLong=  0.200000 cFull=  0.000000 cShort=  0.000000 cLong=  1.000000
 NAtoms=   10 NActive=   10 NUniq=   10 SFac= 1.00D+00 NAtFMM=   60 NAOKFM=F Big=F
 Integral buffers will be    131072 words long.
 Raffenetti 2 integral format.
 Two-electron integral symmetry is turned on.
 R6Disp:  Grimme-D2 Dispersion energy=       -0.0029301818 Hartrees.
 Nuclear repulsion after empirical dispersion term =      157.9625779088 Hartrees.
 Leave Link  301 at Wed May 12 11:56:01 2021, MaxMem=  2147483648 cpu:         0.3
 (Enter /opt/cluster/programs/g09_d.01/g09/l302.exe)
 NPDir=0 NMtPBC=     1 NCelOv=     1 NCel=       1 NClECP=     1 NCelD=      1
         NCelK=      1 NCelE2=     1 NClLst=     1 CellRange=     0.0.
 One-electron integrals computed using PRISM.
 NBasis=    75 RedAO= T EigKep=  2.25D-05  NBF=    75
 NBsUse=    75 1.00D-06 EigRej= -1.00D+00 NBFU=    75
 Precomputing XC quadrature grid using
 IXCGrd= 4 IRadAn=           0 IRanWt=          -1 IRanGd=           0 AccXCQ= 0.00D+00.
 Generated NRdTot=       0 NPtTot=           0 NUsed=           0 NTot=          32
 NSgBfM=    75    75    75    75    75 MxSgAt=    10 MxSgA2=    10.
 Leave Link  302 at Wed May 12 11:56:01 2021, MaxMem=  2147483648 cpu:         0.8
 (Enter /opt/cluster/programs/g09_d.01/g09/l303.exe)
 DipDrv:  MaxL=1.
 Leave Link  303 at Wed May 12 11:56:01 2021, MaxMem=  2147483648 cpu:         0.2
 (Enter /opt/cluster/programs/g09_d.01/g09/l401.exe)
 Initial guess from the checkpoint file:  "/home/unibas/boittier/RDKit_G2/B.pdb/SCAN_1_2_3_4_S_17_20.0/0_SCAN_1_2_3_4_F/B.pdb.chk"
 B after Tr=     0.000000    0.000000    0.000000
         Rot=    1.000000    0.000007   -0.000005   -0.000962 Ang=   0.11 deg.
 Guess basis will be translated and rotated to current coordinates.
 JPrj=2 DoOrth=T DoCkMO=T.
 Generating alternative initial guess.
 ExpMin= 4.38D-02 ExpMax= 7.00D+03 ExpMxC= 1.05D+03 IAcc=2 IRadAn=         4 AccDes= 0.00D+00
 Harris functional with IExCor= 4639 and IRadAn=       4 diagonalized for initial guess.
 HarFok:  IExCor= 4639 AccDes= 0.00D+00 IRadAn=         4 IDoV= 1 UseB2=F ITyADJ=14
 ICtDFT=  3500011 ScaDFX=  1.000000  1.000000  1.000000  1.000000
 FoFCou: FMM=F IPFlag=           0 FMFlag=      100000 FMFlg1=           0
         NFxFlg=           0 DoJE=T BraDBF=F KetDBF=T FulRan=T
         wScrn=  0.000000 ICntrl=     500 IOpCl=  0 I1Cent=   200000004 NGrid=           0
         NMat0=    1 NMatS0=      1 NMatT0=    0 NMatD0=    1 NMtDS0=    0 NMtDT0=    0
 Petite list used in FoFCou.
 Harris En= -244.787038906217    
 Leave Link  401 at Wed May 12 11:56:02 2021, MaxMem=  2147483648 cpu:         1.7
 (Enter /opt/cluster/programs/g09_d.01/g09/l502.exe)
 Closed shell SCF:
 Using DIIS extrapolation, IDIIS=  1040.
 Integral symmetry usage will be decided dynamically.
 Keep R1 ints in memory in canonical form, NReq=9056162.
 IVT=       36600 IEndB=       36600 NGot=  2147483648 MDV=  2139321699
 LenX=  2139321699 LenY=  2139315633
 Requested convergence on RMS density matrix=1.00D-08 within 128 cycles.
 Requested convergence on MAX density matrix=1.00D-06.
 Requested convergence on             energy=1.00D-06.
 No special actions if energy rises.
 FoFCou: FMM=F IPFlag=           0 FMFlag=           0 FMFlg1=           0
         NFxFlg=           0 DoJE=F BraDBF=F KetDBF=F FulRan=T
         wScrn=  0.000000 ICntrl=     600 IOpCl=  0 I1Cent=           0 NGrid=           0
         NMat0=    1 NMatS0=   2850 NMatT0=    0 NMatD0=    1 NMtDS0=    0 NMtDT0=    0
 Symmetry not used in FoFCou.

 Cycle   1  Pass 1  IDiag  1:
 E= -255.101945052472    
 DIIS: error= 5.58D-04 at cycle   1 NSaved=   1.
 NSaved= 1 IEnMin= 1 EnMin= -255.101945052472     IErMin= 1 ErrMin= 5.58D-04
 ErrMax= 5.58D-04  0.00D+00 EMaxC= 1.00D-01 BMatC= 4.55D-05 BMatP= 4.55D-05
 IDIUse=3 WtCom= 9.94D-01 WtEn= 5.58D-03
 Coeff-Com:  0.100D+01
 Coeff-En:   0.100D+01
 Coeff:      0.100D+01
 Gap=     0.569 Goal=   None    Shift=    0.000
 RMSDP=1.00D-03 MaxDP=1.84D-02              OVMax= 1.56D-03

 Cycle   2  Pass 1  IDiag  1:
 E= -255.102002131460     Delta-E=       -0.000057078988 Rises=F Damp=F
 DIIS: error= 1.62D-04 at cycle   2 NSaved=   2.
 NSaved= 2 IEnMin= 2 EnMin= -255.102002131460     IErMin= 2 ErrMin= 1.62D-04
 ErrMax= 1.62D-04  0.00D+00 EMaxC= 1.00D-01 BMatC= 3.23D-06 BMatP= 4.55D-05
 IDIUse=3 WtCom= 9.98D-01 WtEn= 1.62D-03
 Coeff-Com:  0.571D-01 0.943D+00
 Coeff-En:   0.000D+00 0.100D+01
 Coeff:      0.571D-01 0.943D+00
 Gap=     0.345 Goal=   None    Shift=    0.000
 RMSDP=9.93D-05 MaxDP=2.73D-03 DE=-5.71D-05 OVMax= 5.77D-04

 Cycle   3  Pass 1  IDiag  1:
 E= -255.102005538311     Delta-E=       -0.000003406850 Rises=F Damp=F
 DIIS: error= 1.11D-04 at cycle   3 NSaved=   3.
 NSaved= 3 IEnMin= 3 EnMin= -255.102005538311     IErMin= 3 ErrMin= 1.11D-04
 ErrMax= 1.11D-04  0.00D+00 EMaxC= 1.00D-01 BMatC= 8.85D-07 BMatP= 3.23D-06
 IDIUse=3 WtCom= 9.99D-01 WtEn= 1.11D-03
 Coeff-Com: -0.499D-01 0.313D+00 0.737D+00
 Coeff-En:   0.000D+00 0.000D+00 0.100D+01
 Coeff:     -0.498D-01 0.313D+00 0.737D+00
 Gap=     0.345 Goal=   None    Shift=    0.000
 RMSDP=3.18D-05 MaxDP=5.94D-04 DE=-3.41D-06 OVMax= 2.61D-04

 Cycle   4  Pass 1  IDiag  1:
 E= -255.102006345483     Delta-E=       -0.000000807173 Rises=F Damp=F
 DIIS: error= 3.52D-05 at cycle   4 NSaved=   4.
 NSaved= 4 IEnMin= 4 EnMin= -255.102006345483     IErMin= 4 ErrMin= 3.52D-05
 ErrMax= 3.52D-05  0.00D+00 EMaxC= 1.00D-01 BMatC= 9.20D-08 BMatP= 8.85D-07
 IDIUse=1 WtCom= 1.00D+00 WtEn= 0.00D+00
 Coeff-Com: -0.227D-01 0.860D-01 0.321D+00 0.616D+00
 Coeff:     -0.227D-01 0.860D-01 0.321D+00 0.616D+00
 Gap=     0.345 Goal=   None    Shift=    0.000
 RMSDP=7.56D-06 MaxDP=1.35D-04 DE=-8.07D-07 OVMax= 9.91D-05

 Cycle   5  Pass 1  IDiag  1:
 E= -255.102006420033     Delta-E=       -0.000000074550 Rises=F Damp=F
 DIIS: error= 8.35D-06 at cycle   5 NSaved=   5.
 NSaved= 5 IEnMin= 5 EnMin= -255.102006420033     IErMin= 5 ErrMin= 8.35D-06
 ErrMax= 8.35D-06  0.00D+00 EMaxC= 1.00D-01 BMatC= 7.75D-09 BMatP= 9.20D-08
 IDIUse=1 WtCom= 1.00D+00 WtEn= 0.00D+00
 Coeff-Com:  0.384D-02-0.386D-01-0.559D-01 0.196D+00 0.894D+00
 Coeff:      0.384D-02-0.386D-01-0.559D-01 0.196D+00 0.894D+00
 Gap=     0.345 Goal=   None    Shift=    0.000
 RMSDP=4.38D-06 MaxDP=1.14D-04 DE=-7.45D-08 OVMax= 5.07D-05

 Cycle   6  Pass 1  IDiag  1:
 E= -255.102006431191     Delta-E=       -0.000000011158 Rises=F Damp=F
 DIIS: error= 2.20D-06 at cycle   6 NSaved=   6.
 NSaved= 6 IEnMin= 6 EnMin= -255.102006431191     IErMin= 6 ErrMin= 2.20D-06
 ErrMax= 2.20D-06  0.00D+00 EMaxC= 1.00D-01 BMatC= 1.19D-10 BMatP= 7.75D-09
 IDIUse=1 WtCom= 1.00D+00 WtEn= 0.00D+00
 Coeff-Com:  0.646D-03-0.269D-02-0.100D-01-0.132D-01-0.268D-01 0.105D+01
 Coeff:      0.646D-03-0.269D-02-0.100D-01-0.132D-01-0.268D-01 0.105D+01
 Gap=     0.345 Goal=   None    Shift=    0.000
 RMSDP=8.54D-07 MaxDP=1.91D-05 DE=-1.12D-08 OVMax= 1.34D-05

 Cycle   7  Pass 1  IDiag  1:
 E= -255.102006431562     Delta-E=       -0.000000000371 Rises=F Damp=F
 DIIS: error= 9.73D-07 at cycle   7 NSaved=   7.
 NSaved= 7 IEnMin= 7 EnMin= -255.102006431562     IErMin= 7 ErrMin= 9.73D-07
 ErrMax= 9.73D-07  0.00D+00 EMaxC= 1.00D-01 BMatC= 6.26D-11 BMatP= 1.19D-10
 IDIUse=1 WtCom= 1.00D+00 WtEn= 0.00D+00
 Coeff-Com: -0.662D-04 0.290D-02 0.115D-02-0.277D-01-0.110D+00 0.508D+00
 Coeff-Com:  0.625D+00
 Coeff:     -0.662D-04 0.290D-02 0.115D-02-0.277D-01-0.110D+00 0.508D+00
 Coeff:      0.625D+00
 Gap=     0.345 Goal=   None    Shift=    0.000
 RMSDP=2.57D-07 MaxDP=6.12D-06 DE=-3.71D-10 OVMax= 4.49D-06

 Cycle   8  Pass 1  IDiag  1:
 E= -255.102006431643     Delta-E=       -0.000000000081 Rises=F Damp=F
 DIIS: error= 2.35D-07 at cycle   8 NSaved=   8.
 NSaved= 8 IEnMin= 8 EnMin= -255.102006431643     IErMin= 8 ErrMin= 2.35D-07
 ErrMax= 2.35D-07  0.00D+00 EMaxC= 1.00D-01 BMatC= 1.40D-12 BMatP= 6.26D-11
 IDIUse=1 WtCom= 1.00D+00 WtEn= 0.00D+00
 Coeff-Com: -0.685D-04 0.543D-03 0.123D-02-0.204D-02-0.966D-02-0.448D-01
 Coeff-Com:  0.634D-01 0.991D+00
 Coeff:     -0.685D-04 0.543D-03 0.123D-02-0.204D-02-0.966D-02-0.448D-01
 Coeff:      0.634D-01 0.991D+00
 Gap=     0.345 Goal=   None    Shift=    0.000
 RMSDP=9.81D-08 MaxDP=2.08D-06 DE=-8.05D-11 OVMax= 1.30D-06

 Cycle   9  Pass 1  IDiag  1:
 E= -255.102006431646     Delta-E=       -0.000000000003 Rises=F Damp=F
 DIIS: error= 4.41D-08 at cycle   9 NSaved=   9.
 NSaved= 9 IEnMin= 9 EnMin= -255.102006431646     IErMin= 9 ErrMin= 4.41D-08
 ErrMax= 4.41D-08  0.00D+00 EMaxC= 1.00D-01 BMatC= 1.65D-13 BMatP= 1.40D-12
 IDIUse=1 WtCom= 1.00D+00 WtEn= 0.00D+00
 Coeff-Com: -0.148D-04-0.205D-04 0.278D-03 0.114D-02 0.379D-02-0.438D-01
 Coeff-Com: -0.177D-01 0.295D+00 0.761D+00
 Coeff:     -0.148D-04-0.205D-04 0.278D-03 0.114D-02 0.379D-02-0.438D-01
 Coeff:     -0.177D-01 0.295D+00 0.761D+00
 Gap=     0.345 Goal=   None    Shift=    0.000
 RMSDP=2.54D-08 MaxDP=6.61D-07 DE=-2.84D-12 OVMax= 3.23D-07

 Cycle  10  Pass 1  IDiag  1:
 E= -255.102006431646     Delta-E=        0.000000000000 Rises=F Damp=F
 DIIS: error= 1.81D-08 at cycle  10 NSaved=  10.
 NSaved=10 IEnMin=10 EnMin= -255.102006431646     IErMin=10 ErrMin= 1.81D-08
 ErrMax= 1.81D-08  0.00D+00 EMaxC= 1.00D-01 BMatC= 1.62D-14 BMatP= 1.65D-13
 IDIUse=1 WtCom= 1.00D+00 WtEn= 0.00D+00
 Coeff-Com:  0.268D-05-0.590D-04-0.540D-04 0.572D-03 0.193D-02-0.744D-02
 Coeff-Com: -0.111D-01-0.371D-01 0.202D+00 0.851D+00
 Coeff:      0.268D-05-0.590D-04-0.540D-04 0.572D-03 0.193D-02-0.744D-02
 Coeff:     -0.111D-01-0.371D-01 0.202D+00 0.851D+00
 Gap=     0.345 Goal=   None    Shift=    0.000
 RMSDP=9.06D-09 MaxDP=2.17D-07 DE=-2.84D-13 OVMax= 1.00D-07

 SCF Done:  E(RwB97XD) =  -255.102006432     A.U. after   10 cycles
            NFock= 10  Conv=0.91D-08     -V/T= 2.0056
 KE= 2.536822966405D+02 PE=-9.135961381614D+02 EE= 2.468492571804D+02
 Leave Link  502 at Wed May 12 11:56:03 2021, MaxMem=  2147483648 cpu:        10.1
 (Enter /opt/cluster/programs/g09_d.01/g09/l701.exe)
 Compute integral first derivatives.
 ... and contract with generalized density number  0.
 R6Disp: Adding Grimme-D2 dispersion energy 1st derivatives to the gradient.
 Leave Link  701 at Wed May 12 11:56:03 2021, MaxMem=  2147483648 cpu:         0.6
 (Enter /opt/cluster/programs/g09_d.01/g09/l702.exe)
 L702 exits ... SP integral derivatives will be done elsewhere.
 Leave Link  702 at Wed May 12 11:56:03 2021, MaxMem=  2147483648 cpu:         0.2
 (Enter /opt/cluster/programs/g09_d.01/g09/l703.exe)
 Compute integral first derivatives, UseDBF=F ICtDFT=           0.
 Integral derivatives from FoFJK, PRISM(SPDF).
 Calling FoFJK, ICntrl=      2127 FMM=F ISym2X=0 I1Cent= 0 IOpClX= 0 NMat=1 NMatS=1 NMatT=0.
 FoFJK:  IHMeth= 1 ICntrl=    2127 DoSepK=T KAlg= 0 I1Cent=   0 FoldK=F
 IRaf=         1 NMat=   1 IRICut=       1 DoRegI=T DoRafI=F ISym2E= 0.
 FoFCou: FMM=F IPFlag=           0 FMFlag=      100000 FMFlg1=         800
         NFxFlg=           0 DoJE=F BraDBF=F KetDBF=F FulRan=T
         wScrn=  0.000000 ICntrl=    2527 IOpCl=  0 I1Cent=           0 NGrid=           0
         NMat0=    1 NMatS0=      1 NMatT0=    0 NMatD0=    1 NMtDS0=    0 NMtDT0=    0
 Symmetry not used in FoFCou.
 Leave Link  703 at Wed May 12 11:56:03 2021, MaxMem=  2147483648 cpu:         3.3
 (Enter /opt/cluster/programs/g09_d.01/g09/l716.exe)
 Dipole        = 1.32694755D-01-8.22186993D-01 6.11360618D-05
 ***** Axes restored to original set *****
 -------------------------------------------------------------------
 Center     Atomic                   Forces (Hartrees/Bohr)
 Number     Number              X              Y              Z
 -------------------------------------------------------------------
      1        6          -0.000653542   -0.001085478   -0.000002824
      2        6          -0.000577756    0.003401912   -0.000001898
      3        6           0.000369366   -0.001246381    0.000003205
      4        6           0.000654564    0.000453849    0.000002230
      5        1          -0.000089202   -0.000047327    0.000000551
      6        1          -0.000089568    0.000038635    0.000001093
      7        9           0.000365710   -0.001662955    0.000001535
      8        1          -0.000201426    0.000022128   -0.000000609
      9        1           0.000088639    0.000024033   -0.000001473
     10        1           0.000133215    0.000101585   -0.000001810
 -------------------------------------------------------------------
 Cartesian Forces:  Max     0.003401912 RMS     0.000792317
 Leave Link  716 at Wed May 12 11:56:03 2021, MaxMem=  2147483648 cpu:         0.2
 (Enter /opt/cluster/programs/g09_d.01/g09/l103.exe)

 GradGradGradGradGradGradGradGradGradGradGradGradGradGradGradGradGradGrad
 Berny optimization.
 Using GEDIIS/GDIIS optimizer.
 FormGI is forming the generalized inverse of G from B-inverse, IUseBI=4.
 Internal  Forces:  Max     0.001652363 RMS     0.000501125
 Search for a local minimum.
 Step number   2 out of a maximum of   43
 All quantities printed in internal units (Hartrees-Bohrs-Radians)
 RMS Force = .50889D-03 SwitMx=.10000D-02 MixMth= 2
 Mixed Optimization -- En-DIIS/RFO-DIIS
 Update second derivatives using D2CorX and points    1    2
 DE= -1.56D-04 DEPred=-1.55D-04 R= 1.01D+00
 TightC=F SS=  1.41D+00  RLast= 2.57D-02 DXNew= 5.0454D-01 7.6965D-02
 Trust test= 1.01D+00 RLast= 2.57D-02 DXMaxT set to 3.00D-01
 ITU=  1  0
 Use linear search instead of GDIIS.
     Eigenvalues ---    0.01768   0.02149   0.02816   0.02816   0.02913
     Eigenvalues ---    0.02913   0.15953   0.16000   0.16000   0.16000
     Eigenvalues ---    0.16186   0.21733   0.24037   0.25006   0.34057
     Eigenvalues ---    0.35118   0.35428   0.35463   0.35593   0.35730
     Eigenvalues ---    0.39442   0.56782   0.701521000.000001000.00000
     Eigenvalues --- 1000.000001000.000001000.000001000.000001000.00000
     Eigenvalues --- 1000.000001000.000001000.00000
 RFO step:  Lambda=-2.13530750D-05 EMin= 1.76785983D-02
 Quartic linear search produced a step of  0.00468.
 Iteration  1 RMS(Cart)=  0.00166937 RMS(Int)=  0.00000196
 Iteration  2 RMS(Cart)=  0.00000296 RMS(Int)=  0.00000002
 Iteration  3 RMS(Cart)=  0.00000000 RMS(Int)=  0.00000002
 Iteration  1 RMS(Cart)=  0.00000000 RMS(Int)=  0.00000000
 ITry= 1 IFail=0 DXMaxC= 4.38D-03 DCOld= 1.00D+10 DXMaxT= 3.00D-01 DXLimC= 3.00D+00 Rises=F
 Variable       Old X    -DE/DX   Delta X   Delta X   Delta X     New X
                                 (Linear)    (Quad)   (Total)
    R1        2.51500   0.00123  -0.00006   0.00131   0.00125   2.51624
    R2        2.04435   0.00005  -0.00001   0.00006   0.00006   2.04441
    R3        2.04670  -0.00003   0.00000  -0.00016  -0.00016   2.04654
    R4        2.75160   0.00122   0.00002   0.00346   0.00348   2.75508
    R5        2.66941  -0.00165  -0.00007  -0.00488  -0.00495   2.66446
    R6        2.52877   0.00105  -0.00006   0.00104   0.00098   2.52975
    R7        2.05434  -0.00002  -0.00001  -0.00014  -0.00015   2.05420
    R8        2.04927   0.00003   0.00000   0.00004   0.00004   2.04931
    R9        2.04834   0.00007  -0.00001   0.00010   0.00009   2.04843
    A1        2.11743   0.00006  -0.00001   0.00026   0.00025   2.11768
    A2        2.09683   0.00006  -0.00001   0.00028   0.00027   2.09710
    A3        2.06893  -0.00012   0.00002  -0.00054  -0.00052   2.06840
    A4        2.24745  -0.00068  -0.00001  -0.00286  -0.00288   2.24457
    A5        2.05157   0.00089   0.00001   0.00371   0.00372   2.05529
    A6        1.98417  -0.00021   0.00000  -0.00084  -0.00084   1.98332
    A7        2.17888  -0.00007  -0.00002  -0.00061  -0.00063   2.17825
    A8        2.00036  -0.00017   0.00001  -0.00095  -0.00094   1.99942
    A9        2.10395   0.00024   0.00001   0.00157   0.00157   2.10552
   A10        2.12494   0.00001   0.00000   0.00002   0.00001   2.12495
   A11        2.10810   0.00015  -0.00001   0.00081   0.00080   2.10889
   A12        2.05015  -0.00017   0.00002  -0.00083  -0.00081   2.04934
    D1       -3.14159   0.00000   0.00000  -0.00004  -0.00004   3.14155
    D2        0.00001   0.00000   0.00000   0.00001   0.00001   0.00002
    D3       -0.00003   0.00000   0.00000   0.00000   0.00000  -0.00003
    D4        3.14157   0.00000   0.00000   0.00006   0.00006  -3.14156
    D5       -3.14140   0.00000   0.00000   0.00000   0.00000  -3.14140
    D6        0.00013   0.00000   0.00000   0.00003   0.00003   0.00017
    D7        0.00019   0.00000   0.00000  -0.00005  -0.00005   0.00013
    D8       -3.14146   0.00000   0.00000  -0.00002  -0.00002  -3.14149
    D9       -0.00001   0.00000   0.00000  -0.00002  -0.00002  -0.00004
   D10        3.14153   0.00000   0.00000   0.00007   0.00007  -3.14159
   D11       -3.14154   0.00000   0.00000  -0.00006  -0.00006   3.14158
   D12       -0.00001   0.00000   0.00000   0.00004   0.00004   0.00003
         Item               Value     Threshold  Converged?
 Maximum Force            0.001652     0.000450     NO 
 RMS     Force            0.000509     0.000300     NO 
 Maximum Displacement     0.004378     0.001800     NO 
 RMS     Displacement     0.001669     0.001200     NO 
 Predicted change in Energy=-1.068239D-05
 Lowest energy point so far.  Saving SCF results.
 GradGradGradGradGradGradGradGradGradGradGradGradGradGradGradGradGradGrad

 Leave Link  103 at Wed May 12 11:56:04 2021, MaxMem=  2147483648 cpu:         0.0
 (Enter /opt/cluster/programs/g09_d.01/g09/l202.exe)
                          Input orientation:                          
 ---------------------------------------------------------------------
 Center     Atomic      Atomic             Coordinates (Angstroms)
 Number     Number       Type             X           Y           Z
 ---------------------------------------------------------------------
      1          6           0       -1.717966   -0.662920    0.000056
      2          6           0       -0.521609   -0.078345   -0.000036
      3          6           0        0.795888   -0.702641   -0.000066
      4          6           0        1.957071   -0.036504    0.000050
      5          1           0       -2.629129   -0.079660    0.000106
      6          1           0       -1.795652   -1.743113    0.000092
      7          9           0       -0.479339    1.330990   -0.000040
      8          1           0        0.780790   -1.789570   -0.000168
      9          1           0        1.993195    1.047344    0.000143
     10          1           0        2.902123   -0.567443    0.000017
 ---------------------------------------------------------------------
                    Distance matrix (angstroms):
                    1          2          3          4          5
     1  C    0.000000
     2  C    1.331539   0.000000
     3  C    2.514167   1.457925   0.000000
     4  C    3.728041   2.479033   1.338687   0.000000
     5  H    1.081855   2.107520   3.481214   4.586403   0.000000
     6  H    1.082984   2.096339   2.792608   4.122553   1.860581
     7  F    2.347312   1.409969   2.400387   2.793945   2.571290
     8  H    2.741007   2.150473   1.087034   2.111132   3.814622
     9  H    4.086284   2.755253   2.120375   1.084449   4.757733
    10  H    4.621075   3.458490   2.110569   1.083983   5.552718
                    6          7          8          9         10
     6  H    0.000000
     7  F    3.344068   0.000000
     8  H    2.576861   3.365386   0.000000
     9  H    4.705530   2.488751   3.085126   0.000000
    10  H    4.842653   3.877929   2.448192   1.853021   0.000000
 Stoichiometry    C4H5F
 Framework group  C1[X(C4H5F)]
 Deg. of freedom    24
 Full point group                 C1      NOp   1
 RotChk:  IX=0 Diff= 8.79D-04
 Largest Abelian subgroup         C1      NOp   1
 Largest concise Abelian subgroup C1      NOp   1
                         Standard orientation:                         
 ---------------------------------------------------------------------
 Center     Atomic      Atomic             Coordinates (Angstroms)
 Number     Number       Type             X           Y           Z
 ---------------------------------------------------------------------
      1          6           0       -1.717411   -0.664607    0.000060
      2          6           0       -0.521953   -0.078199   -0.000032
      3          6           0        0.796501   -0.700473   -0.000062
      4          6           0        1.956660   -0.032555    0.000053
      5          1           0       -2.629468   -0.082746    0.000110
      6          1           0       -1.793440   -1.744919    0.000096
      7          9           0       -0.481844    1.331200   -0.000036
      8          1           0        0.783070   -1.787424   -0.000164
      9          1           0        1.991122    1.051346    0.000146
     10          1           0        2.902525   -0.562045    0.000020
 ---------------------------------------------------------------------
 Rotational constants (GHZ):      9.6685962      4.2104926      2.9331575
 Leave Link  202 at Wed May 12 11:56:04 2021, MaxMem=  2147483648 cpu:         0.0
 (Enter /opt/cluster/programs/g09_d.01/g09/l301.exe)
 Standard basis: 6-31+G (6D, 7F)
 Ernie: Thresh=  0.10000D-02 Tol=  0.10000D-05 Strict=F.
 There are    75 symmetry adapted cartesian basis functions of A   symmetry.
 There are    75 symmetry adapted basis functions of A   symmetry.
    75 basis functions,   150 primitive gaussians,    75 cartesian basis functions
    19 alpha electrons       19 beta electrons
       nuclear repulsion energy       157.9644047332 Hartrees.
 IExCor= 4639 DFT=T Ex+Corr=wB97XD ExCW=0 ScaHFX=  1.000000
 ScaDFX=  1.000000  1.000000  1.000000  1.000000 ScalE2=  1.000000  1.000000
 IRadAn=      0 IRanWt=     -1 IRanGd=            0 ICorTp=0 IEmpDi=121
  HFx wShort=  0.000000 wLong=  0.200000 cFull=  0.222036 cShort=  0.000000 cLong=  0.777964
  DFx wShort=  0.000000 wLong=  0.200000 cFull=  0.000000 cShort=  0.000000 cLong=  1.000000
 NAtoms=   10 NActive=   10 NUniq=   10 SFac= 1.00D+00 NAtFMM=   60 NAOKFM=F Big=F
 Integral buffers will be    131072 words long.
 Raffenetti 2 integral format.
 Two-electron integral symmetry is turned on.
 R6Disp:  Grimme-D2 Dispersion energy=       -0.0029306046 Hartrees.
 Nuclear repulsion after empirical dispersion term =      157.9614741286 Hartrees.
 Leave Link  301 at Wed May 12 11:56:04 2021, MaxMem=  2147483648 cpu:         0.3
 (Enter /opt/cluster/programs/g09_d.01/g09/l302.exe)
 NPDir=0 NMtPBC=     1 NCelOv=     1 NCel=       1 NClECP=     1 NCelD=      1
         NCelK=      1 NCelE2=     1 NClLst=     1 CellRange=     0.0.
 One-electron integrals computed using PRISM.
 NBasis=    75 RedAO= T EigKep=  2.26D-05  NBF=    75
 NBsUse=    75 1.00D-06 EigRej= -1.00D+00 NBFU=    75
 Precomputing XC quadrature grid using
 IXCGrd= 4 IRadAn=           0 IRanWt=          -1 IRanGd=           0 AccXCQ= 0.00D+00.
 Generated NRdTot=       0 NPtTot=           0 NUsed=           0 NTot=          32
 NSgBfM=    75    75    75    75    75 MxSgAt=    10 MxSgA2=    10.
 Leave Link  302 at Wed May 12 11:56:04 2021, MaxMem=  2147483648 cpu:         0.8
 (Enter /opt/cluster/programs/g09_d.01/g09/l303.exe)
 DipDrv:  MaxL=1.
 Leave Link  303 at Wed May 12 11:56:04 2021, MaxMem=  2147483648 cpu:         0.2
 (Enter /opt/cluster/programs/g09_d.01/g09/l401.exe)
 Initial guess from the checkpoint file:  "/home/unibas/boittier/RDKit_G2/B.pdb/SCAN_1_2_3_4_S_17_20.0/0_SCAN_1_2_3_4_F/B.pdb.chk"
 B after Tr=     0.000000    0.000000    0.000000
         Rot=    1.000000   -0.000005    0.000003    0.000425 Ang=  -0.05 deg.
 Guess basis will be translated and rotated to current coordinates.
 JPrj=2 DoOrth=T DoCkMO=T.
 Leave Link  401 at Wed May 12 11:56:04 2021, MaxMem=  2147483648 cpu:         0.6
 (Enter /opt/cluster/programs/g09_d.01/g09/l502.exe)
 Closed shell SCF:
 Using DIIS extrapolation, IDIIS=  1040.
 Integral symmetry usage will be decided dynamically.
 Keep R1 ints in memory in canonical form, NReq=9056162.
 IVT=       36600 IEndB=       36600 NGot=  2147483648 MDV=  2139321699
 LenX=  2139321699 LenY=  2139315633
 Requested convergence on RMS density matrix=1.00D-08 within 128 cycles.
 Requested convergence on MAX density matrix=1.00D-06.
 Requested convergence on             energy=1.00D-06.
 No special actions if energy rises.
 FoFCou: FMM=F IPFlag=           0 FMFlag=           0 FMFlg1=           0
         NFxFlg=           0 DoJE=F BraDBF=F KetDBF=F FulRan=T
         wScrn=  0.000000 ICntrl=     600 IOpCl=  0 I1Cent=           0 NGrid=           0
         NMat0=    1 NMatS0=   2850 NMatT0=    0 NMatD0=    1 NMtDS0=    0 NMtDT0=    0
 Symmetry not used in FoFCou.

 Cycle   1  Pass 1  IDiag  1:
 E= -255.102012045023    
 DIIS: error= 2.00D-04 at cycle   1 NSaved=   1.
 NSaved= 1 IEnMin= 1 EnMin= -255.102012045023     IErMin= 1 ErrMin= 2.00D-04
 ErrMax= 2.00D-04  0.00D+00 EMaxC= 1.00D-01 BMatC= 6.17D-06 BMatP= 6.17D-06
 IDIUse=3 WtCom= 9.98D-01 WtEn= 2.00D-03
 Coeff-Com:  0.100D+01
 Coeff-En:   0.100D+01
 Coeff:      0.100D+01
 Gap=     0.569 Goal=   None    Shift=    0.000
 RMSDP=1.41D-04 MaxDP=3.28D-03              OVMax= 7.42D-04

 Cycle   2  Pass 1  IDiag  1:
 E= -255.102019284044     Delta-E=       -0.000007239022 Rises=F Damp=F
 DIIS: error= 1.14D-04 at cycle   2 NSaved=   2.
 NSaved= 2 IEnMin= 2 EnMin= -255.102019284044     IErMin= 2 ErrMin= 1.14D-04
 ErrMax= 1.14D-04  0.00D+00 EMaxC= 1.00D-01 BMatC= 1.24D-06 BMatP= 6.17D-06
 IDIUse=3 WtCom= 9.99D-01 WtEn= 1.14D-03
 Coeff-Com:  0.184D+00 0.816D+00
 Coeff-En:   0.000D+00 0.100D+01
 Coeff:      0.184D+00 0.816D+00
 Gap=     0.345 Goal=   None    Shift=    0.000
 RMSDP=3.42D-05 MaxDP=6.65D-04 DE=-7.24D-06 OVMax= 3.22D-04

 Cycle   3  Pass 1  IDiag  1:
 E= -255.102019803492     Delta-E=       -0.000000519448 Rises=F Damp=F
 DIIS: error= 1.06D-04 at cycle   3 NSaved=   3.
 NSaved= 3 IEnMin= 3 EnMin= -255.102019803492     IErMin= 3 ErrMin= 1.06D-04
 ErrMax= 1.06D-04  0.00D+00 EMaxC= 1.00D-01 BMatC= 7.54D-07 BMatP= 1.24D-06
 IDIUse=3 WtCom= 9.99D-01 WtEn= 1.06D-03
 Coeff-Com: -0.812D-01 0.443D+00 0.638D+00
 Coeff-En:   0.000D+00 0.300D+00 0.700D+00
 Coeff:     -0.811D-01 0.443D+00 0.638D+00
 Gap=     0.345 Goal=   None    Shift=    0.000
 RMSDP=1.91D-05 MaxDP=2.90D-04 DE=-5.19D-07 OVMax= 1.54D-04

 Cycle   4  Pass 1  IDiag  1:
 E= -255.102020345889     Delta-E=       -0.000000542397 Rises=F Damp=F
 DIIS: error= 9.29D-06 at cycle   4 NSaved=   4.
 NSaved= 4 IEnMin= 4 EnMin= -255.102020345889     IErMin= 4 ErrMin= 9.29D-06
 ErrMax= 9.29D-06  0.00D+00 EMaxC= 1.00D-01 BMatC= 5.99D-09 BMatP= 7.54D-07
 IDIUse=1 WtCom= 1.00D+00 WtEn= 0.00D+00
 Coeff-Com: -0.172D-01 0.433D-01 0.114D+00 0.860D+00
 Coeff:     -0.172D-01 0.433D-01 0.114D+00 0.860D+00
 Gap=     0.345 Goal=   None    Shift=    0.000
 RMSDP=3.42D-06 MaxDP=5.64D-05 DE=-5.42D-07 OVMax= 3.30D-05

 Cycle   5  Pass 1  IDiag  1:
 E= -255.102020353066     Delta-E=       -0.000000007177 Rises=F Damp=F
 DIIS: error= 4.11D-06 at cycle   5 NSaved=   5.
 NSaved= 5 IEnMin= 5 EnMin= -255.102020353066     IErMin= 5 ErrMin= 4.11D-06
 ErrMax= 4.11D-06  0.00D+00 EMaxC= 1.00D-01 BMatC= 1.03D-09 BMatP= 5.99D-09
 IDIUse=1 WtCom= 1.00D+00 WtEn= 0.00D+00
 Coeff-Com:  0.387D-02-0.400D-01-0.353D-01 0.286D+00 0.786D+00
 Coeff:      0.387D-02-0.400D-01-0.353D-01 0.286D+00 0.786D+00
 Gap=     0.345 Goal=   None    Shift=    0.000
 RMSDP=1.88D-06 MaxDP=3.67D-05 DE=-7.18D-09 OVMax= 1.56D-05

 Cycle   6  Pass 1  IDiag  1:
 E= -255.102020354504     Delta-E=       -0.000000001438 Rises=F Damp=F
 DIIS: error= 1.33D-06 at cycle   6 NSaved=   6.
 NSaved= 6 IEnMin= 6 EnMin= -255.102020354504     IErMin= 6 ErrMin= 1.33D-06
 ErrMax= 1.33D-06  0.00D+00 EMaxC= 1.00D-01 BMatC= 7.72D-11 BMatP= 1.03D-09
 IDIUse=1 WtCom= 1.00D+00 WtEn= 0.00D+00
 Coeff-Com:  0.240D-02-0.164D-01-0.188D-01 0.536D-01 0.269D+00 0.710D+00
 Coeff:      0.240D-02-0.164D-01-0.188D-01 0.536D-01 0.269D+00 0.710D+00
 Gap=     0.345 Goal=   None    Shift=    0.000
 RMSDP=3.37D-07 MaxDP=5.38D-06 DE=-1.44D-09 OVMax= 5.67D-06

 Cycle   7  Pass 1  IDiag  1:
 E= -255.102020354611     Delta-E=       -0.000000000107 Rises=F Damp=F
 DIIS: error= 4.42D-07 at cycle   7 NSaved=   7.
 NSaved= 7 IEnMin= 7 EnMin= -255.102020354611     IErMin= 7 ErrMin= 4.42D-07
 ErrMax= 4.42D-07  0.00D+00 EMaxC= 1.00D-01 BMatC= 1.12D-11 BMatP= 7.72D-11
 IDIUse=1 WtCom= 1.00D+00 WtEn= 0.00D+00
 Coeff-Com: -0.165D-04 0.233D-02 0.371D-03-0.362D-01-0.634D-01 0.225D+00
 Coeff-Com:  0.872D+00
 Coeff:     -0.165D-04 0.233D-02 0.371D-03-0.362D-01-0.634D-01 0.225D+00
 Coeff:      0.872D+00
 Gap=     0.345 Goal=   None    Shift=    0.000
 RMSDP=1.87D-07 MaxDP=2.85D-06 DE=-1.07D-10 OVMax= 1.93D-06

 Cycle   8  Pass 1  IDiag  1:
 E= -255.102020354628     Delta-E=       -0.000000000018 Rises=F Damp=F
 DIIS: error= 7.80D-08 at cycle   8 NSaved=   8.
 NSaved= 8 IEnMin= 8 EnMin= -255.102020354628     IErMin= 8 ErrMin= 7.80D-08
 ErrMax= 7.80D-08  0.00D+00 EMaxC= 1.00D-01 BMatC= 3.97D-13 BMatP= 1.12D-11
 IDIUse=1 WtCom= 1.00D+00 WtEn= 0.00D+00
 Coeff-Com: -0.113D-03 0.142D-02 0.107D-02-0.118D-01-0.289D-01 0.227D-01
 Coeff-Com:  0.216D+00 0.799D+00
 Coeff:     -0.113D-03 0.142D-02 0.107D-02-0.118D-01-0.289D-01 0.227D-01
 Coeff:      0.216D+00 0.799D+00
 Gap=     0.345 Goal=   None    Shift=    0.000
 RMSDP=2.36D-08 MaxDP=2.28D-07 DE=-1.77D-11 OVMax= 6.49D-07

 Cycle   9  Pass 1  IDiag  1:
 E= -255.102020354629     Delta-E=        0.000000000000 Rises=F Damp=F
 DIIS: error= 3.76D-08 at cycle   9 NSaved=   9.
 NSaved= 9 IEnMin= 9 EnMin= -255.102020354629     IErMin= 9 ErrMin= 3.76D-08
 ErrMax= 3.76D-08  0.00D+00 EMaxC= 1.00D-01 BMatC= 5.29D-14 BMatP= 3.97D-13
 IDIUse=1 WtCom= 1.00D+00 WtEn= 0.00D+00
 Coeff-Com: -0.309D-04 0.101D-03 0.274D-03 0.868D-03-0.317D-03-0.197D-01
 Coeff-Com: -0.514D-01 0.195D+00 0.875D+00
 Coeff:     -0.309D-04 0.101D-03 0.274D-03 0.868D-03-0.317D-03-0.197D-01
 Coeff:     -0.514D-01 0.195D+00 0.875D+00
 Gap=     0.345 Goal=   None    Shift=    0.000
 RMSDP=1.07D-08 MaxDP=9.57D-08 DE=-3.41D-13 OVMax= 1.57D-07

 Cycle  10  Pass 1  IDiag  1:
 E= -255.102020354629     Delta-E=        0.000000000000 Rises=F Damp=F
 DIIS: error= 1.15D-08 at cycle  10 NSaved=  10.
 NSaved=10 IEnMin= 9 EnMin= -255.102020354629     IErMin=10 ErrMin= 1.15D-08
 ErrMax= 1.15D-08  0.00D+00 EMaxC= 1.00D-01 BMatC= 5.33D-15 BMatP= 5.29D-14
 IDIUse=1 WtCom= 1.00D+00 WtEn= 0.00D+00
 Coeff-Com: -0.290D-05-0.517D-04 0.187D-04 0.102D-02 0.173D-02-0.657D-02
 Coeff-Com: -0.304D-01 0.220D-01 0.292D+00 0.720D+00
 Coeff:     -0.290D-05-0.517D-04 0.187D-04 0.102D-02 0.173D-02-0.657D-02
 Coeff:     -0.304D-01 0.220D-01 0.292D+00 0.720D+00
 Gap=     0.345 Goal=   None    Shift=    0.000
 RMSDP=2.60D-09 MaxDP=5.22D-08 DE= 1.14D-13 OVMax= 5.68D-08

 SCF Done:  E(RwB97XD) =  -255.102020355     A.U. after   10 cycles
            NFock= 10  Conv=0.26D-08     -V/T= 2.0056
 KE= 2.536796503710D+02 PE=-9.135867704754D+02 EE= 2.468436256211D+02
 Leave Link  502 at Wed May 12 11:56:05 2021, MaxMem=  2147483648 cpu:        10.1
 (Enter /opt/cluster/programs/g09_d.01/g09/l701.exe)
 Compute integral first derivatives.
 ... and contract with generalized density number  0.
 R6Disp: Adding Grimme-D2 dispersion energy 1st derivatives to the gradient.
 Leave Link  701 at Wed May 12 11:56:05 2021, MaxMem=  2147483648 cpu:         0.6
 (Enter /opt/cluster/programs/g09_d.01/g09/l702.exe)
 L702 exits ... SP integral derivatives will be done elsewhere.
 Leave Link  702 at Wed May 12 11:56:05 2021, MaxMem=  2147483648 cpu:         0.2
 (Enter /opt/cluster/programs/g09_d.01/g09/l703.exe)
 Compute integral first derivatives, UseDBF=F ICtDFT=           0.
 Integral derivatives from FoFJK, PRISM(SPDF).
 Calling FoFJK, ICntrl=      2127 FMM=F ISym2X=0 I1Cent= 0 IOpClX= 0 NMat=1 NMatS=1 NMatT=0.
 FoFJK:  IHMeth= 1 ICntrl=    2127 DoSepK=T KAlg= 0 I1Cent=   0 FoldK=F
 IRaf=         1 NMat=   1 IRICut=       1 DoRegI=T DoRafI=F ISym2E= 0.
 FoFCou: FMM=F IPFlag=           0 FMFlag=      100000 FMFlg1=         800
         NFxFlg=           0 DoJE=F BraDBF=F KetDBF=F FulRan=T
         wScrn=  0.000000 ICntrl=    2527 IOpCl=  0 I1Cent=           0 NGrid=           0
         NMat0=    1 NMatS0=      1 NMatT0=    0 NMatD0=    1 NMtDS0=    0 NMtDT0=    0
 Symmetry not used in FoFCou.
 Leave Link  703 at Wed May 12 11:56:06 2021, MaxMem=  2147483648 cpu:         3.3
 (Enter /opt/cluster/programs/g09_d.01/g09/l716.exe)
 Dipole        = 1.30560109D-01-8.17009293D-01 3.07611705D-05
 ***** Axes restored to original set *****
 -------------------------------------------------------------------
 Center     Atomic                   Forces (Hartrees/Bohr)
 Number     Number              X              Y              Z
 -------------------------------------------------------------------
      1        6          -0.000161187   -0.000418175   -0.000001338
      2        6           0.000129258    0.001196812    0.000004190
      3        6          -0.000080397   -0.000490994    0.000000643
      4        6           0.000130717    0.000125880   -0.000003832
      5        1          -0.000080300   -0.000013936   -0.000000234
      6        1          -0.000015404    0.000006032   -0.000000628
      7        9           0.000033873   -0.000444551   -0.000000823
      8        1          -0.000051012   -0.000006818    0.000000186
      9        1           0.000037355    0.000020295    0.000000812
     10        1           0.000057098    0.000025454    0.000001025
 -------------------------------------------------------------------
 Cartesian Forces:  Max     0.001196812 RMS     0.000267362
 Leave Link  716 at Wed May 12 11:56:06 2021, MaxMem=  2147483648 cpu:         0.2
 (Enter /opt/cluster/programs/g09_d.01/g09/l103.exe)

 GradGradGradGradGradGradGradGradGradGradGradGradGradGradGradGradGradGrad
 Berny optimization.
 Using GEDIIS/GDIIS optimizer.
 FormGI is forming the generalized inverse of G from B-inverse, IUseBI=4.
 Internal  Forces:  Max     0.000476611 RMS     0.000163156
 Search for a local minimum.
 Step number   3 out of a maximum of   43
 All quantities printed in internal units (Hartrees-Bohrs-Radians)
 RMS Force = .16568D-03 SwitMx=.10000D-02 MixMth= 2
 Mixed Optimization -- En-DIIS/RFO-DIIS
 Swapping is turned off.
 Update second derivatives using D2CorX and points    1    2    3
 DE= -1.39D-05 DEPred=-1.07D-05 R= 1.30D+00
 TightC=F SS=  1.41D+00  RLast= 8.22D-03 DXNew= 5.0454D-01 2.4650D-02
 Trust test= 1.30D+00 RLast= 8.22D-03 DXMaxT set to 3.00D-01
 ITU=  1  1  0
     Eigenvalues ---    0.01769   0.02151   0.02816   0.02816   0.02913
     Eigenvalues ---    0.02913   0.15008   0.16000   0.16000   0.16029
     Eigenvalues ---    0.16076   0.17711   0.22232   0.25938   0.35012
     Eigenvalues ---    0.35141   0.35432   0.35471   0.35582   0.35983
     Eigenvalues ---    0.39272   0.56826   0.660571000.000001000.00000
     Eigenvalues --- 1000.000001000.000001000.000001000.000001000.00000
     Eigenvalues --- 1000.000001000.000001000.00000
 En-DIIS/RFO-DIIS IScMMF=        0 using points:     3    2
 RFO step:  Lambda=-1.82527244D-06.
 NNeg= 0 NP= 2 Switch=  2.50D-03 Rises=F DC=  1.39D-05 SmlDif=  1.00D-05
 RMS Error=  0.3513311791D-03 NUsed= 2 EDIIS=F
 DidBck=F Rises=F RFO-DIIS coefs:    1.42963   -0.42963
 Iteration  1 RMS(Cart)=  0.00161936 RMS(Int)=  0.00000145
 Iteration  2 RMS(Cart)=  0.00000231 RMS(Int)=  0.00000000
 Iteration  3 RMS(Cart)=  0.00000000 RMS(Int)=  0.00000000
 Iteration  1 RMS(Cart)=  0.00000000 RMS(Int)=  0.00000000
 ITry= 1 IFail=0 DXMaxC= 4.68D-03 DCOld= 1.00D+10 DXMaxT= 3.00D-01 DXLimC= 3.00D+00 Rises=F
 Variable       Old X    -DE/DX   Delta X   Delta X   Delta X     New X
                                 (Linear)    (Quad)   (Total)
    R1        2.51624   0.00042   0.00054   0.00016   0.00069   2.51693
[...]
 ***** Axes restored to original set *****
 -------------------------------------------------------------------
 Center     Atomic                   Forces (Hartrees/Bohr)
 Number     Number              X              Y              Z
 -------------------------------------------------------------------
      1        6          -0.000030277    0.000019303   -0.000002505
      2        6           0.000133169    0.000013526   -0.000001241
      3        6          -0.000106906   -0.000003767    0.000003033
      4        6           0.000021708   -0.000019797    0.000001221
      5        1          -0.000011866   -0.000019808    0.000000396
      6        1           0.000006027   -0.000004762    0.000000812
      7        9          -0.000024153   -0.000004217    0.000001258
      8        1          -0.000000235    0.000012936   -0.000000454
      9        1           0.000005526    0.000000413   -0.000001102
     10        1           0.000007007    0.000006173   -0.000001417
 -------------------------------------------------------------------
 Cartesian Forces:  Max     0.000133169 RMS     0.000033174
 Leave Link  716 at Wed May 12 11:56:08 2021, MaxMem=  2147483648 cpu:         0.2
 (Enter /opt/cluster/programs/g09_d.01/g09/l103.exe)

 GradGradGradGradGradGradGradGradGradGradGradGradGradGradGradGradGradGrad
 Berny optimization.
 Using GEDIIS/GDIIS optimizer.
 FormGI is forming the generalized inverse of G from B-inverse, IUseBI=4.
 Internal  Forces:  Max     0.000066709 RMS     0.000023378
 Search for a local minimum.
 Step number   4 out of a maximum of   43
 All quantities printed in internal units (Hartrees-Bohrs-Radians)
 RMS Force = .23737D-04 SwitMx=.10000D-02 MixMth= 2
 Mixed Optimization -- En-DIIS/RFO-DIIS
 Swapping is turned off.
 Update second derivatives using D2CorX and points    1    2    3    4
 DE= -2.13D-06 DEPred=-2.04D-06 R= 1.05D+00
 TightC=F SS=  1.41D+00  RLast= 4.78D-03 DXNew= 5.0454D-01 1.4351D-02
 Trust test= 1.05D+00 RLast= 4.78D-03 DXMaxT set to 3.00D-01
 ITU=  1  1  1  0
     Eigenvalues ---    0.01769   0.02151   0.02816   0.02816   0.02913
     Eigenvalues ---    0.02913   0.14089   0.16000   0.16002   0.16005
     Eigenvalues ---    0.16167   0.18010   0.22130   0.25896   0.34961
     Eigenvalues ---    0.35414   0.35440   0.35514   0.35641   0.35971
     Eigenvalues ---    0.39249   0.56840   0.658541000.000001000.00000
     Eigenvalues --- 1000.000001000.000001000.000001000.000001000.00000
     Eigenvalues --- 1000.000001000.000001000.00000
 En-DIIS/RFO-DIIS IScMMF=        0 using points:     4    3    2
 RFO step:  Lambda=-3.53108543D-08.
 NNeg= 0 NP= 3 Switch=  2.50D-03 Rises=F DC=  1.39D-05 SmlDif=  1.00D-05
 RMS Error=  0.4690932942D-04 NUsed= 3 EDIIS=F
 DidBck=F Rises=F RFO-DIIS coefs:    1.18240   -0.25957    0.07717
 Iteration  1 RMS(Cart)=  0.00035105 RMS(Int)=  0.00000006
 Iteration  2 RMS(Cart)=  0.00000007 RMS(Int)=  0.00000000
 Iteration  1 RMS(Cart)=  0.00000000 RMS(Int)=  0.00000000
 ITry= 1 IFail=0 DXMaxC= 9.87D-04 DCOld= 1.00D+10 DXMaxT= 3.00D-01 DXLimC= 3.00D+00 Rises=F
 Variable       Old X    -DE/DX   Delta X   Delta X   Delta X     New X
                                 (Linear)    (Quad)   (Total)
    R1        2.51693   0.00004   0.00003   0.00005   0.00008   2.51701
    R2        2.04461   0.00000   0.00003  -0.00004  -0.00001   2.04461
    R3        2.04648   0.00001   0.00000   0.00002   0.00002   2.04650
    R4        2.75624  -0.00007  -0.00006  -0.00011  -0.00017   2.75607
    R5        2.66217  -0.00001  -0.00003  -0.00005  -0.00009   2.66208
    R6        2.53011   0.00002  -0.00001   0.00006   0.00005   2.53016
    R7        2.05417  -0.00001   0.00001  -0.00006  -0.00005   2.05412
    R8        2.04939   0.00000   0.00001   0.00000   0.00001   2.04939
    R9        2.04854   0.00000   0.00001  -0.00001   0.00001   2.04855
    A1        2.11824   0.00004   0.00008   0.00021   0.00030   2.11853
    A2        2.09689  -0.00003  -0.00006  -0.00014  -0.00020   2.09669
    A3        2.06806  -0.00001  -0.00002  -0.00007  -0.00009   2.06796
    A4        2.24160  -0.00006  -0.00032   0.00000  -0.00032   2.24128
    A5        2.05730   0.00000   0.00008  -0.00005   0.00003   2.05733
    A6        1.98428   0.00006   0.00024   0.00005   0.00029   1.98458
    A7        2.17769   0.00003  -0.00005   0.00019   0.00014   2.17784
    A8        1.99918  -0.00001   0.00003  -0.00011  -0.00008   1.99910
    A9        2.10631  -0.00002   0.00002  -0.00009  -0.00006   2.10625
   A10        2.12504   0.00000   0.00001  -0.00003  -0.00001   2.12502
   A11        2.10928   0.00001   0.00001   0.00009   0.00010   2.10938
   A12        2.04887  -0.00001  -0.00002  -0.00006  -0.00008   2.04878
    D1        3.14159   0.00000   0.00001  -0.00005  -0.00004   3.14154
    D2        0.00001   0.00000   0.00000   0.00002   0.00002   0.00002
    D3       -0.00003   0.00000   0.00000   0.00000   0.00000  -0.00003
    D4        3.14157   0.00000  -0.00001   0.00007   0.00006  -3.14155
    D5       -3.14140   0.00000   0.00000   0.00000   0.00000  -3.14140
    D6        0.00014   0.00000  -0.00001   0.00004   0.00003   0.00017
    D7        0.00018   0.00000   0.00001  -0.00007  -0.00006   0.00012
    D8       -3.14147   0.00000   0.00001  -0.00003  -0.00002  -3.14149
    D9       -0.00002   0.00000   0.00001  -0.00003  -0.00002  -0.00004
   D10        3.14154   0.00000  -0.00002   0.00009   0.00007  -3.14158
   D11       -3.14155   0.00000   0.00001  -0.00007  -0.00006   3.14157
   D12        0.00000   0.00000  -0.00001   0.00004   0.00003   0.00003
         Item               Value     Threshold  Converged?
 Maximum Force            0.000067     0.000450     YES
 RMS     Force            0.000024     0.000300     YES
 Maximum Displacement     0.000987     0.001800     YES
 RMS     Displacement     0.000351     0.001200     YES
 Predicted change in Energy=-3.574949D-08
 Optimization completed.
    -- Stationary point found.
                           ----------------------------
                           !   Optimized Parameters   !
                           ! (Angstroms and Degrees)  !
 --------------------------                            --------------------------
 ! Name  Definition              Value          Derivative Info.                !
 --------------------------------------------------------------------------------
 ! R1    R(1,2)                  1.3319         -DE/DX =    0.0                 !
 ! R2    R(1,5)                  1.082          -DE/DX =    0.0                 !
 ! R3    R(1,6)                  1.083          -DE/DX =    0.0                 !
 ! R4    R(2,3)                  1.4585         -DE/DX =   -0.0001              !
 ! R5    R(2,7)                  1.4088         -DE/DX =    0.0                 !
 ! R6    R(3,4)                  1.3389         -DE/DX =    0.0                 !
 ! R7    R(3,8)                  1.087          -DE/DX =    0.0                 !
 ! R8    R(4,9)                  1.0845         -DE/DX =    0.0                 !
 ! R9    R(4,10)                 1.084          -DE/DX =    0.0                 !
 ! A1    A(2,1,5)              121.366          -DE/DX =    0.0                 !
 ! A2    A(2,1,6)              120.1431         -DE/DX =    0.0                 !
 ! A3    A(5,1,6)              118.4909         -DE/DX =    0.0                 !
 ! A4    A(1,2,3)              128.4344         -DE/DX =   -0.0001              !
 ! A5    A(1,2,7)              117.8746         -DE/DX =    0.0                 !
 ! A6    A(3,2,7)              113.691          -DE/DX =    0.0001              !
 ! A7    A(2,3,4)              124.7727         -DE/DX =    0.0                 !
 ! A8    A(2,3,8)              114.5444         -DE/DX =    0.0                 !
 ! A9    A(4,3,8)              120.6829         -DE/DX =    0.0                 !
 ! A10   A(3,4,9)              121.7557         -DE/DX =    0.0                 !
 ! A11   A(3,4,10)             120.8528         -DE/DX =    0.0                 !
 ! A12   A(9,4,10)             117.3915         -DE/DX =    0.0                 !
 ! D1    D(5,1,2,3)            179.9997         -DE/DX =    0.0                 !
 ! D2    D(5,1,2,7)              0.0004         -DE/DX =    0.0                 !
 ! D3    D(6,1,2,3)             -0.0018         -DE/DX =    0.0                 !
 ! D4    D(6,1,2,7)           -180.0011         -DE/DX =    0.0                 !
 ! D5    D(1,2,3,4)           -179.989          -DE/DX =    0.0                 !
 ! D6    D(1,2,3,8)              0.0079         -DE/DX =    0.0                 !
 ! D7    D(7,2,3,4)              0.0103         -DE/DX =    0.0                 !
 ! D8    D(7,2,3,8)           -179.9927         -DE/DX =    0.0                 !
 ! D9    D(2,3,4,9)             -0.001          -DE/DX =    0.0                 !
 ! D10   D(2,3,4,10)          -180.0033         -DE/DX =    0.0                 !
 ! D11   D(8,3,4,9)            180.0022         -DE/DX =    0.0                 !
 ! D12   D(8,3,4,10)            -0.0001         -DE/DX =    0.0                 !
 --------------------------------------------------------------------------------
 Lowest energy point so far.  Saving SCF results.
 GradGradGradGradGradGradGradGradGradGradGradGradGradGradGradGradGradGrad

 Largest change from initial coordinates is atom    6       0.008 Angstoms.
 Leave Link  103 at Wed May 12 11:56:08 2021, MaxMem=  2147483648 cpu:         0.1
 (Enter /opt/cluster/programs/g09_d.01/g09/l202.exe)
                          Input orientation:                          
 ---------------------------------------------------------------------
 Center     Atomic      Atomic             Coordinates (Angstroms)
 Number     Number       Type             X           Y           Z
 ---------------------------------------------------------------------
      1          6           0       -1.717579   -0.662948    0.000072
      2          6           0       -0.521905   -0.076150   -0.000024
      3          6           0        0.795369   -0.702350   -0.000082
      4          6           0        1.957175   -0.036924    0.000032
      5          1           0       -2.630161   -0.081711    0.000112
      6          1           0       -1.793175   -1.743258    0.000089
      7          9           0       -0.479269    1.331964   -0.000065
      8          1           0        0.778657   -1.789243   -0.000177
      9          1           0        1.994146    1.046935    0.000163
     10          1           0        2.902114   -0.568179    0.000033
 ---------------------------------------------------------------------
                    Distance matrix (angstroms):
                    1          2          3          4          5
     1  C    0.000000
     2  C    1.331904   0.000000
     3  C    2.513257   1.458539   0.000000
     4  C    3.727697   2.479390   1.338875   0.000000
     5  H    1.081962   2.108263   3.481300   4.587554   0.000000
     6  H    1.082952   2.096515   2.789990   4.120279   1.860453
     7  F    2.347996   1.408759   2.400653   2.794658   2.573871
     8  H    2.738565   2.150849   1.087022   2.111759   3.812572
     9  H    4.086637   2.755328   2.120628   1.084489   4.760048
    10  H    4.620665   3.459190   2.111013   1.084040   5.553622
                    6          7          8          9         10
     6  H    0.000000
     7  F    3.344150   0.000000
     8  H    2.572243   3.365162   0.000000
     9  H    4.704144   2.489784   3.085663   0.000000
    10  H    4.840098   3.878697   2.449503   1.852835   0.000000
 Stoichiometry    C4H5F
 Framework group  C1[X(C4H5F)]
 Deg. of freedom    24
 Full point group                 C1      NOp   1
 RotChk:  IX=0 Diff= 8.95D-16
 Largest Abelian subgroup         C1      NOp   1
 Largest concise Abelian subgroup C1      NOp   1
                         Standard orientation:                         
 ---------------------------------------------------------------------
 Center     Atomic      Atomic             Coordinates (Angstroms)
 Number     Number       Type             X           Y           Z
 ---------------------------------------------------------------------
      1          6           0       -1.716850   -0.665486    0.000082
      2          6           0       -0.522206   -0.076592   -0.000014
      3          6           0        0.796164   -0.700481   -0.000072
      4          6           0        1.956801   -0.033018    0.000041
      5          1           0       -2.630449   -0.085850    0.000121
      6          1           0       -1.790550   -1.745927    0.000099
      7          9           0       -0.482039    1.331595   -0.000055
      8          1           0        0.781358   -1.787402   -0.000167
      9          1           0        1.991871    1.050903    0.000173
     10          1           0        2.902670   -0.562616    0.000042
 ---------------------------------------------------------------------
 Rotational constants (GHZ):      9.6623310      4.2111832      2.9329156
 Leave Link  202 at Wed May 12 11:56:08 2021, MaxMem=  2147483648 cpu:         0.1
 (Enter /opt/cluster/programs/g09_d.01/g09/l601.exe)
 Copying SCF densities to generalized density rwf, IOpCl= 0 IROHF=0.

 **********************************************************************

            Population analysis using the SCF density.

 **********************************************************************

 Orbital symmetries:
       Occupied  (A) (A) (A) (A) (A) (A) (A) (A) (A) (A) (A) (A)
                 (A) (A) (A) (A) (A) (A) (A)
       Virtual   (A) (A) (A) (A) (A) (A) (A) (A) (A) (A) (A) (A)
                 (A) (A) (A) (A) (A) (A) (A) (A) (A) (A) (A) (A)
                 (A) (A) (A) (A) (A) (A) (A) (A) (A) (A) (A) (A)
                 (A) (A) (A) (A) (A) (A) (A) (A) (A) (A) (A) (A)
                 (A) (A) (A) (A) (A) (A) (A) (A)
 The electronic state is 1-A.
 Alpha  occ. eigenvalues --  -24.83317 -10.40357 -10.32889 -10.31353 -10.31192
 Alpha  occ. eigenvalues --   -1.31422  -0.92840  -0.86536  -0.73190  -0.66627
 Alpha  occ. eigenvalues --   -0.60370  -0.58731  -0.54344  -0.53617  -0.50347
 Alpha  occ. eigenvalues --   -0.48158  -0.45807  -0.41252  -0.32779
 Alpha virt. eigenvalues --    0.01748   0.06773   0.07944   0.09893   0.10395
 Alpha virt. eigenvalues --    0.11382   0.12090   0.12868   0.14519   0.15291
 Alpha virt. eigenvalues --    0.16186   0.16608   0.19066   0.20026   0.20061
 Alpha virt. eigenvalues --    0.21540   0.22318   0.24547   0.27279   0.29050
 Alpha virt. eigenvalues --    0.30341   0.30684   0.32866   0.38927   0.41042
 Alpha virt. eigenvalues --    0.41959   0.44227   0.45296   0.49646   0.50135
 Alpha virt. eigenvalues --    0.54146   0.72294   0.74030   0.76859   0.78576
 Alpha virt. eigenvalues --    0.82617   0.83283   0.83994   0.88925   0.92523
 Alpha virt. eigenvalues --    1.00194   1.03277   1.03949   1.11324   1.14379
 Alpha virt. eigenvalues --    1.16147   1.21054   1.25150   1.29926   1.36546
 Alpha virt. eigenvalues --    1.43201   1.51341   1.65928   1.83192   1.86715
 Alpha virt. eigenvalues --    2.40292
          Condensed to atoms (all electrons):
               1          2          3          4          5          6
     1  C    6.575725  -0.455655  -0.143736  -0.106503   0.410775   0.339259
     2  C   -0.455655   6.157611  -0.321591   0.191202  -0.079864  -0.017529
     3  C   -0.143736  -0.321591   6.136175   0.319067   0.024640   0.014849
     4  C   -0.106503   0.191202   0.319067   5.242756  -0.002924   0.000734
     5  H    0.410775  -0.079864   0.024640  -0.002924   0.447886  -0.019543
     6  H    0.339259  -0.017529   0.014849   0.000734  -0.019543   0.469805
     7  F   -0.194216   0.322105  -0.152380   0.001335  -0.001991   0.004316
     8  H   -0.056600   0.069334   0.248634   0.041529   0.000115   0.000944
     9  H   -0.014994   0.016391  -0.089847   0.434108   0.000004  -0.000002
    10  H    0.003593   0.020397  -0.043179   0.366723   0.000001  -0.000002
               7          8          9         10
     1  C   -0.194216  -0.056600  -0.014994   0.003593
     2  C    0.322105   0.069334   0.016391   0.020397
     3  C   -0.152380   0.248634  -0.089847  -0.043179
     4  C    0.001335   0.041529   0.434108   0.366723
     5  H   -0.001991   0.000115   0.000004   0.000001
     6  H    0.004316   0.000944  -0.000002  -0.000002
     7  F    9.341078   0.003458   0.000441   0.000564
     8  H    0.003458   0.477600   0.002468  -0.003224
     9  H    0.000441   0.002468   0.450564  -0.023415
    10  H    0.000564  -0.003224  -0.023415   0.481221
 Mulliken charges:
               1
     1  C   -0.357647
     2  C    0.097598
     3  C    0.007369
     4  C   -0.488026
     5  H    0.220902
     6  H    0.207170
     7  F   -0.324712
     8  H    0.215742
     9  H    0.224282
    10  H    0.197322
 Sum of Mulliken charges =   0.00000
 Mulliken charges with hydrogens summed into heavy atoms:
               1
     1  C    0.070425
     2  C    0.097598
     3  C    0.223112
     4  C   -0.066423
     7  F   -0.324712
 Electronic spatial extent (au):  <R**2>=            424.0060
 Charge=              0.0000 electrons
 Dipole moment (field-independent basis, Debye):
    X=              0.3312    Y=             -2.0711    Z=              0.0001  Tot=              2.0974
 Quadrupole moment (field-independent basis, Debye-Ang):
   XX=            -24.8913   YY=            -29.3905   ZZ=            -32.8562
   XY=              1.2953   XZ=              0.0000   YZ=              0.0004
 Traceless Quadrupole moment (field-independent basis, Debye-Ang):
   XX=              4.1547   YY=             -0.3445   ZZ=             -3.8102
   XY=              1.2953   XZ=              0.0000   YZ=              0.0004
 Octapole moment (field-independent basis, Debye-Ang**2):
  XXX=             -2.9416  YYY=              1.2524  ZZZ=             -0.0005  XYY=              0.7432
  XXY=              2.0922  XXZ=              0.0012  XZZ=             -1.7176  YZZ=              4.9860
  YYZ=              0.0000  XYZ=              0.0006
 Hexadecapole moment (field-independent basis, Debye-Ang**3):
 XXXX=           -331.5478 YYYY=           -136.8546 ZZZZ=            -37.2812 XXXY=             -8.2476
 XXXZ=              0.0017 YYYX=              1.9592 YYYZ=              0.0016 ZZZX=              0.0023
 ZZZY=              0.0009 XXYY=            -80.8991 XXZZ=            -78.4868 YYZZ=            -32.0815
 XXYZ=              0.0008 YYXZ=              0.0003 ZZXY=             -2.1314
 N-N= 1.579594336799D+02 E-N=-9.135788211435D+02  KE= 2.536784732243D+02
 No NMR shielding tensors so no spin-rotation constants.
 Leave Link  601 at Wed May 12 11:56:08 2021, MaxMem=  2147483648 cpu:         0.6
 (Enter /opt/cluster/programs/g09_d.01/g09/l9999.exe)
 1\1\GINC-NODE05\FOpt\RwB97XD\6-31+G\C4H5F1\BOITTIER\12-May-2021\0\\#p 
 wB97XD/6-31+G Opt=ModRedun\\B.pdb\\0,1\C,-1.7175794377,-0.6629475027,0
 .0000724478\C,-0.5219048781,-0.0761497804,-0.0000235746\C,0.7953689023
 ,-0.7023501918,-0.0000816503\C,1.9571747074,-0.0369236253,0.0000317773
 \H,-2.6301608219,-0.0817106874,0.0001117756\H,-1.7931746979,-1.7432579
 292,0.0000888444\F,-0.4792689029,1.3319643175,-0.0000645492\H,0.778657
 3005,-1.7892432443,-0.0001766463\H,1.9941459482,1.0469346584,0.0001629
 907\H,2.90211388,-0.568179015,0.0000325847\\Version=ES64L-G09RevD.01\S
 tate=1-A\HF=-255.1020225\RMSD=6.129e-09\RMSF=3.317e-05\Dipole=0.128856
 5,-0.8150567,0.0000572\Quadrupole=3.0923058,-0.2594925,-2.8328133,0.95
 71598,0.0000256,0.0003288\PG=C01 [X(C4H5F1)]\\@


 A politician is a person who can make waves and then
 make you think he's the only one who can save the ship.
 -- Ivern Ball
 Job cpu time:       0 days  0 hours  1 minutes 16.3 seconds.
 File lengths (MBytes):  RWF=      5 Int=      0 D2E=      0 Chk=      2 Scr=      1
 Normal termination of Gaussian 09 at Wed May 12 11:56:08 2021.
