B.pdb                                                                   
FOpt      RwB97XD                                                     6-31+G              
Number of atoms                            I               10
Info1-9                                    I   N=           9
          21          21           0           0           0         110
           2          18        -802
Charge                                     I                0
Multiplicity                               I                1
Number of electrons                        I               38
Number of alpha electrons                  I               19
Number of beta electrons                   I               19
Number of basis functions                  I               75
Number of independent functions            I               75
Number of point charges in /Mol/           I                0
Number of translation vectors              I                0
Atomic numbers                             I   N=          10
           6           6           6           6           1           1
           9           1           1           1
Nuclear charges                            R   N=          10
  6.00000000E+00  6.00000000E+00  6.00000000E+00  6.00000000E+00  1.00000000E+00
  1.00000000E+00  9.00000000E+00  1.00000000E+00  1.00000000E+00  1.00000000E+00
Current cartesian coordinates              R   N=          30
 -3.24437575E+00 -1.25758537E+00  1.55176817E-04 -9.86826380E-01 -1.44737685E-01
 -2.62791560E-05  1.50453167E+00 -1.32371777E+00 -1.36026391E-04  3.69781790E+00
 -6.23955696E-02  7.83207264E-05 -4.97082818E+00 -1.62232910E-01  2.29495470E-04
 -3.38364978E+00 -3.29932360E+00  1.86161806E-04 -9.10922603E-01  2.51634953E+00
 -1.03710090E-04  1.47655328E+00 -3.37770020E+00 -3.15542913E-04  3.76409146E+00
  1.98591912E+00  3.26278006E-04  5.48525196E+00 -1.06318974E+00  7.98464629E-05
Force Field                                I                0
Int Atom Types                             I   N=          10
           0           0           0           0           0           0
           0           0           0           0
MM charges                                 R   N=          10
  0.00000000E+00  0.00000000E+00  0.00000000E+00  0.00000000E+00  0.00000000E+00
  0.00000000E+00  0.00000000E+00  0.00000000E+00  0.00000000E+00  0.00000000E+00
Integer atomic weights                     I   N=          10
          12          12          12          12           1           1
          19           1           1           1
Real atomic weights                        R   N=          10
  1.20000000E+01  1.20000000E+01  1.20000000E+01  1.20000000E+01  1.00782504E+00
  1.00782504E+00  1.89984032E+01  1.00782504E+00  1.00782504E+00  1.00782504E+00
Atom fragment info                         I   N=          10
           0           0           0           0           0           0
           0           0           0           0
Atom residue num                           I   N=          10
           0           0           0           0           0           0
           0           0           0           0
Nuclear spins                              I   N=          10
           0           0           0           0           1           1
           1           1           1           1
Nuclear ZEff                               R   N=          10
 -3.60000000E+00 -3.60000000E+00 -3.60000000E+00 -3.60000000E+00 -1.00000000E+00
 -1.00000000E+00 -6.75000000E+00 -1.00000000E+00 -1.00000000E+00 -1.00000000E+00
Nuclear ZNuc                               R   N=          10
  6.00000000E+00  6.00000000E+00  6.00000000E+00  6.00000000E+00  1.00000000E+00
  1.00000000E+00  9.00000000E+00  1.00000000E+00  1.00000000E+00  1.00000000E+00
Nuclear QMom                               R   N=          10
  0.00000000E+00  0.00000000E+00  0.00000000E+00  0.00000000E+00  0.00000000E+00
  0.00000000E+00  0.00000000E+00  0.00000000E+00  0.00000000E+00  0.00000000E+00
Nuclear GFac                               R   N=          10
  0.00000000E+00  0.00000000E+00  0.00000000E+00  0.00000000E+00  2.79284600E+00
  2.79284600E+00  2.62886700E+00  2.79284600E+00  2.79284600E+00  2.79284600E+00
MicOpt                                     I   N=          10
          -1          -1          -1          -1          -1          -1
          -1          -1          -1          -1
Number of contracted shells                I               30
Number of primitive shells                 I               75
Pure/Cartesian d shells                    I                1
Pure/Cartesian f shells                    I                0
Highest angular momentum                   I                1
Largest degree of contraction              I                6
Shell types                                I   N=          30
           0          -1          -1          -1           0          -1
          -1          -1           0          -1          -1          -1
           0          -1          -1          -1           0           0
           0           0           0          -1          -1          -1
           0           0           0           0           0           0
Number of primitives per shell             I   N=          30
           6           3           1           1           6           3
           1           1           6           3           1           1
           6           3           1           1           3           1
           3           1           6           3           1           1
           3           1           3           1           3           1
Shell to atom map                          I   N=          30
           1           1           1           1           2           2
           2           2           3           3           3           3
           4           4           4           4           5           5
           6           6           7           7           7           7
           8           8           9           9          10          10
Primitive exponents                        R   N=          75
  3.04752488E+03  4.57369518E+02  1.03948685E+02  2.92101553E+01  9.28666296E+00
  3.16392696E+00  7.86827235E+00  1.88128854E+00  5.44249258E-01  1.68714478E-01
  4.38000000E-02  3.04752488E+03  4.57369518E+02  1.03948685E+02  2.92101553E+01
  9.28666296E+00  3.16392696E+00  7.86827235E+00  1.88128854E+00  5.44249258E-01
  1.68714478E-01  4.38000000E-02  3.04752488E+03  4.57369518E+02  1.03948685E+02
  2.92101553E+01  9.28666296E+00  3.16392696E+00  7.86827235E+00  1.88128854E+00
  5.44249258E-01  1.68714478E-01  4.38000000E-02  3.04752488E+03  4.57369518E+02
  1.03948685E+02  2.92101553E+01  9.28666296E+00  3.16392696E+00  7.86827235E+00
  1.88128854E+00  5.44249258E-01  1.68714478E-01  4.38000000E-02  1.87311370E+01
  2.82539436E+00  6.40121692E-01  1.61277759E-01  1.87311370E+01  2.82539436E+00
  6.40121692E-01  1.61277759E-01  7.00171309E+03  1.05136609E+03  2.39285690E+02
  6.73974453E+01  2.15199573E+01  7.40310130E+00  2.08479528E+01  4.80830834E+00
  1.34406986E+00  3.58151393E-01  1.07600000E-01  1.87311370E+01  2.82539436E+00
  6.40121692E-01  1.61277759E-01  1.87311370E+01  2.82539436E+00  6.40121692E-01
  1.61277759E-01  1.87311370E+01  2.82539436E+00  6.40121692E-01  1.61277759E-01
Contraction coefficients                   R   N=          75
  1.83473713E-03  1.40373228E-02  6.88426223E-02  2.32184443E-01  4.67941348E-01
  3.62311985E-01 -1.19332420E-01 -1.60854152E-01  1.14345644E+00  1.00000000E+00
  1.00000000E+00  1.83473713E-03  1.40373228E-02  6.88426223E-02  2.32184443E-01
  4.67941348E-01  3.62311985E-01 -1.19332420E-01 -1.60854152E-01  1.14345644E+00
  1.00000000E+00  1.00000000E+00  1.83473713E-03  1.40373228E-02  6.88426223E-02
  2.32184443E-01  4.67941348E-01  3.62311985E-01 -1.19332420E-01 -1.60854152E-01
  1.14345644E+00  1.00000000E+00  1.00000000E+00  1.83473713E-03  1.40373228E-02
  6.88426223E-02  2.32184443E-01  4.67941348E-01  3.62311985E-01 -1.19332420E-01
 -1.60854152E-01  1.14345644E+00  1.00000000E+00  1.00000000E+00  3.34946043E-02
  2.34726953E-01  8.13757326E-01  1.00000000E+00  3.34946043E-02  2.34726953E-01
  8.13757326E-01  1.00000000E+00  1.81961690E-03  1.39160796E-02  6.84053245E-02
  2.33185760E-01  4.71267439E-01  3.56618546E-01 -1.08506975E-01 -1.46451658E-01
  1.12868858E+00  1.00000000E+00  1.00000000E+00  3.34946043E-02  2.34726953E-01
  8.13757326E-01  1.00000000E+00  3.34946043E-02  2.34726953E-01  8.13757326E-01
  1.00000000E+00  3.34946043E-02  2.34726953E-01  8.13757326E-01  1.00000000E+00
P(S=P) Contraction coefficients            R   N=          75
  0.00000000E+00  0.00000000E+00  0.00000000E+00  0.00000000E+00  0.00000000E+00
  0.00000000E+00  6.89990666E-02  3.16423961E-01  7.44308291E-01  1.00000000E+00
  1.00000000E+00  0.00000000E+00  0.00000000E+00  0.00000000E+00  0.00000000E+00
  0.00000000E+00  0.00000000E+00  6.89990666E-02  3.16423961E-01  7.44308291E-01
  1.00000000E+00  1.00000000E+00  0.00000000E+00  0.00000000E+00  0.00000000E+00
  0.00000000E+00  0.00000000E+00  0.00000000E+00  6.89990666E-02  3.16423961E-01
  7.44308291E-01  1.00000000E+00  1.00000000E+00  0.00000000E+00  0.00000000E+00
  0.00000000E+00  0.00000000E+00  0.00000000E+00  0.00000000E+00  6.89990666E-02
  3.16423961E-01  7.44308291E-01  1.00000000E+00  1.00000000E+00  0.00000000E+00
  0.00000000E+00  0.00000000E+00  0.00000000E+00  0.00000000E+00  0.00000000E+00
  0.00000000E+00  0.00000000E+00  0.00000000E+00  0.00000000E+00  0.00000000E+00
  0.00000000E+00  0.00000000E+00  0.00000000E+00  7.16287242E-02  3.45912103E-01
  7.22469956E-01  1.00000000E+00  1.00000000E+00  0.00000000E+00  0.00000000E+00
  0.00000000E+00  0.00000000E+00  0.00000000E+00  0.00000000E+00  0.00000000E+00
  0.00000000E+00  0.00000000E+00  0.00000000E+00  0.00000000E+00  0.00000000E+00
Coordinates of each shell                  R   N=          90
 -3.24437575E+00 -1.25758537E+00  1.55176817E-04 -3.24437575E+00 -1.25758537E+00
  1.55176817E-04 -3.24437575E+00 -1.25758537E+00  1.55176817E-04 -3.24437575E+00
 -1.25758537E+00  1.55176817E-04 -9.86826380E-01 -1.44737685E-01 -2.62791560E-05
 -9.86826380E-01 -1.44737685E-01 -2.62791560E-05 -9.86826380E-01 -1.44737685E-01
 -2.62791560E-05 -9.86826380E-01 -1.44737685E-01 -2.62791560E-05  1.50453167E+00
 -1.32371777E+00 -1.36026391E-04  1.50453167E+00 -1.32371777E+00 -1.36026391E-04
  1.50453167E+00 -1.32371777E+00 -1.36026391E-04  1.50453167E+00 -1.32371777E+00
 -1.36026391E-04  3.69781790E+00 -6.23955696E-02  7.83207264E-05  3.69781790E+00
 -6.23955696E-02  7.83207264E-05  3.69781790E+00 -6.23955696E-02  7.83207264E-05
  3.69781790E+00 -6.23955696E-02  7.83207264E-05 -4.97082818E+00 -1.62232910E-01
  2.29495470E-04 -4.97082818E+00 -1.62232910E-01  2.29495470E-04 -3.38364978E+00
 -3.29932360E+00  1.86161806E-04 -3.38364978E+00 -3.29932360E+00  1.86161806E-04
 -9.10922603E-01  2.51634953E+00 -1.03710090E-04 -9.10922603E-01  2.51634953E+00
 -1.03710090E-04 -9.10922603E-01  2.51634953E+00 -1.03710090E-04 -9.10922603E-01
  2.51634953E+00 -1.03710090E-04  1.47655328E+00 -3.37770020E+00 -3.15542913E-04
  1.47655328E+00 -3.37770020E+00 -3.15542913E-04  3.76409146E+00  1.98591912E+00
  3.26278006E-04  3.76409146E+00  1.98591912E+00  3.26278006E-04  5.48525196E+00
 -1.06318974E+00  7.98464629E-05  5.48525196E+00 -1.06318974E+00  7.98464629E-05
Constraint Structure                       R   N=          30
 -3.25755874E+00 -1.25888661E+00  8.33468684E-05 -9.83400084E-01 -1.54980138E-01
 -8.48387574E-05  1.50321697E+00 -1.32538550E+00 -9.99565665E-05  3.71108213E+00
 -6.60244993E-02  1.21141391E-04 -4.97918253E+00 -1.54228504E-01  2.08068793E-04
 -3.41303005E+00 -3.30074705E+00  1.77833175E-04 -9.11963087E-01  2.52852547E+00
 -4.89339609E-05  1.47624705E+00 -3.38087085E+00 -3.26723702E-04  3.78641015E+00
  1.98245942E+00  2.28855781E-04  5.49718147E+00 -1.07168173E+00  3.42139889E-05
Num ILSW                                   I              100
ILSW                                       I   N=         100
           0           1           0           0           2           0
           0           0           0           0        4639          -1
           0           0           0           0           2           0
           0           0           0           0           1           0
           1           0           0           0           0           0
           0           0      100000           0          -1           0
           0           0           0           0           0           0
           0           0           0           1           0           0
           0           0           1           0           0           0
           0           0         121          41           0           0
           0           0          58           0           0           0
           0           0           0          10           0           0
           0           0           0           0           0           0
           0           0           0           0           0           0
           0           0           0           0           0           0
           0           0           0           0           0           0
           0           0           0           0
Num RLSW                                   I               41
RLSW                                       R   N=          41
  1.00000000E+00  1.00000000E+00  1.00000000E+00  1.00000000E+00  1.00000000E+00
  0.00000000E+00  2.00000000E-01  2.22036000E-01  0.00000000E+00  7.77964000E-01
  0.00000000E+00  2.00000000E-01  0.00000000E+00  0.00000000E+00  1.00000000E+00
  0.00000000E+00  0.00000000E+00  1.00000000E+00  0.00000000E+00  0.00000000E+00
  0.00000000E+00  0.00000000E+00  1.00000000E+00  0.00000000E+00  0.00000000E+00
  0.00000000E+00  0.00000000E+00  1.00000000E+00  0.00000000E+00  0.00000000E+00
  0.00000000E+00  0.00000000E+00  1.00000000E+00  0.00000000E+00  0.00000000E+00
  0.00000000E+00  0.00000000E+00  0.00000000E+00  1.00000000E+00  1.00000000E+00
  0.00000000E+00
MxBond                                     I                3
NBond                                      I   N=          10
           3           3           3           3           1           1
           1           1           1           1
IBond                                      I   N=          30
           2           5           6           1           3           7
           2           4           8           3           9          10
           1           0           0           1           0           0
           2           0           0           3           0           0
           4           0           0           4           0           0
RBond                                      R   N=          30
  2.00000000E+00  1.00000000E+00  1.00000000E+00  2.00000000E+00  1.00000000E+00
  1.00000000E+00  1.00000000E+00  2.00000000E+00  1.00000000E+00  2.00000000E+00
  1.00000000E+00  1.00000000E+00  1.00000000E+00  0.00000000E+00  0.00000000E+00
  1.00000000E+00  0.00000000E+00  0.00000000E+00  1.00000000E+00  0.00000000E+00
  0.00000000E+00  1.00000000E+00  0.00000000E+00  0.00000000E+00  1.00000000E+00
  0.00000000E+00  0.00000000E+00  1.00000000E+00  0.00000000E+00  0.00000000E+00
Virial Ratio                               R      2.005611628144421E+00
SCF Energy                                 R     -2.551020224842482E+02
Total Energy                               R     -2.551020224842482E+02
RMS Force                                  R      3.317393880815778E-05
RMS Density                                R      6.128806399350339E-09
External E-field                           R   N=          35
  0.00000000E+00  0.00000000E+00  0.00000000E+00  0.00000000E+00  0.00000000E+00
  0.00000000E+00  0.00000000E+00  0.00000000E+00  0.00000000E+00  0.00000000E+00
  0.00000000E+00  0.00000000E+00  0.00000000E+00  0.00000000E+00  0.00000000E+00
  0.00000000E+00  0.00000000E+00  0.00000000E+00  0.00000000E+00  0.00000000E+00
  0.00000000E+00  0.00000000E+00  0.00000000E+00  0.00000000E+00  0.00000000E+00
  0.00000000E+00  0.00000000E+00  0.00000000E+00  0.00000000E+00  0.00000000E+00
  0.00000000E+00  0.00000000E+00  0.00000000E+00  0.00000000E+00  0.00000000E+00
IOpCl                                      I                0
IROHF                                      I                0
Alpha Orbital Energies                     R   N=          75
 -2.48331673E+01 -1.04035744E+01 -1.03288942E+01 -1.03135300E+01 -1.03119212E+01
 -1.31421771E+00 -9.28402283E-01 -8.65362100E-01 -7.31904624E-01 -6.66272759E-01
 -6.03697893E-01 -5.87311266E-01 -5.43440713E-01 -5.36173111E-01 -5.03469963E-01
 -4.81584042E-01 -4.58068875E-01 -4.12516792E-01 -3.27786873E-01  1.74763217E-02
  6.77278079E-02  7.94397103E-02  9.89319579E-02  1.03952918E-01  1.13818925E-01
  1.20904339E-01  1.28680171E-01  1.45194408E-01  1.52908499E-01  1.61862980E-01
  1.66080833E-01  1.90656849E-01  2.00264281E-01  2.00610709E-01  2.15400061E-01
  2.23178433E-01  2.45469443E-01  2.72787280E-01  2.90498495E-01  3.03412549E-01
  3.06836601E-01  3.28655791E-01  3.89267159E-01  4.10417706E-01  4.19588417E-01
  4.42267174E-01  4.52957353E-01  4.96463668E-01  5.01348113E-01  5.41458261E-01
  7.22940019E-01  7.40296129E-01  7.68585933E-01  7.85763156E-01  8.26174374E-01
  8.32826615E-01  8.39941517E-01  8.89245788E-01  9.25232038E-01  1.00193745E+00
  1.03276925E+00  1.03948710E+00  1.11324114E+00  1.14379066E+00  1.16147186E+00
  1.21053693E+00  1.25150231E+00  1.29926003E+00  1.36546384E+00  1.43200724E+00
  1.51340593E+00  1.65927665E+00  1.83191964E+00  1.86714994E+00  2.40291645E+00
Alpha MO coefficients                      R   N=        5625
  8.62774629E-07 -1.31920206E-04 -2.07015683E-05  3.78817958E-05  5.60525808E-09
  2.69846110E-03  2.30888729E-03 -2.83168344E-03 -1.57520647E-07  8.36464094E-03
  2.17531587E-03  8.13211161E-04 -1.40542554E-07 -1.50138874E-06  5.99025571E-04
 -1.59419013E-05  4.17959768E-04 -2.82023807E-08 -1.43174485E-03  3.39584952E-04
  6.40977908E-03 -2.76327344E-08 -1.95062258E-02 -1.57129162E-03 -2.55319807E-04
  1.05838681E-07  1.92921760E-05  3.18337716E-05  1.53396029E-04  5.93941331E-05
  6.03517748E-09  4.74603092E-04 -3.36640086E-03 -3.06798663E-03 -1.11487634E-07
  1.36496764E-02  4.54845186E-04  2.16907030E-03 -1.62612666E-07  7.51050198E-06
  1.21128503E-04 -1.62643366E-04 -4.53745233E-05 -9.21979084E-09  3.04651243E-03
 -6.33478018E-04 -6.72376006E-04 -1.68886956E-07 -4.83626028E-03  7.43065994E-04
  9.59123550E-04  3.99741295E-07  3.23806862E-04  1.09530630E-03 -3.21531991E-04
 -1.90576483E-03  9.95033053E-01  2.77160517E-02 -6.17221985E-06 -1.35144384E-03
  4.96826155E-08 -1.59594707E-02 -2.67279120E-05  2.56575180E-03 -9.44982300E-08
  7.22236044E-03  2.02899516E-04 -8.46077855E-04 -5.96972190E-09 -3.09224253E-04
 -1.68796822E-03  4.35480836E-06 -4.14816872E-04 -8.95798689E-05 -3.76846837E-04
  4.64272589E-03 -1.27093178E-03 -8.27016531E-04 -2.82765297E-04  6.95099703E-08
  9.34626986E-03  4.65365007E-03  5.20082255E-05 -3.35476299E-07 -2.04759482E-02
 -5.12910926E-03 -2.33533834E-03  2.67825508E-07  9.95519383E-01  3.65396820E-02
 -1.27569659E-04  1.16115300E-03 -3.98093271E-09 -3.83127055E-02 -6.83555026E-04
  1.24150113E-03 -3.58797917E-08  4.11135147E-02  4.02406272E-04 -5.80286004E-03
  2.40429059E-07  1.89089635E-03 -1.11044095E-03  5.86459747E-04 -2.69963682E-04
 -1.75085435E-08  8.84843693E-03 -4.85178760E-03  1.93100813E-03  2.27374342E-07
 -8.93203422E-03  8.06532236E-03 -1.11375758E-03  1.86917764E-07 -1.88975388E-05
 -1.18141063E-04  2.61017858E-06  1.28186920E-04 -1.79436987E-08  1.67594341E-04
  1.10726075E-03 -1.20447410E-03 -2.07776299E-08 -1.09993862E-02  2.32984026E-03
  1.94186058E-03  7.33717051E-08 -3.59385558E-05  5.62186258E-04 -3.62165246E-04
 -1.14076184E-03  4.46264660E-05  7.88213942E-04 -1.61212945E-06 -7.54124014E-05
  6.17171667E-09 -1.16258102E-03  1.48539162E-05  8.50656057E-04 -4.46098308E-08
  8.21039509E-03  8.88011331E-05 -5.35141108E-03  2.07063121E-07 -1.85549531E-04
 -2.47007760E-04  7.78537386E-05  3.17207132E-04 -1.55000849E-04 -2.63761087E-04
 -3.89287204E-04 -3.17341625E-04 -7.20870813E-05 -5.43067110E-05 -1.02903724E-08
  3.01446019E-03  6.44740477E-04  1.84160673E-03 -8.33323575E-08  1.89065082E-02
  4.05763516E-03  6.76132461E-04 -8.66963985E-07 -1.95693491E-03 -1.27870176E-03
 -7.93620014E-04  3.32468341E-04  7.22482548E-08  8.55423754E-03  8.10715895E-03
 -1.37441120E-03 -4.02832027E-07 -5.19671924E-02 -2.89890082E-03  5.53466197E-03
  3.65020629E-07  9.95052356E-01  3.65291755E-02 -4.74723223E-06  4.84806577E-04
  9.25086348E-08 -3.80147011E-02  7.00669330E-04 -6.17121574E-03 -7.41412699E-07
  9.53257682E-02  5.31281485E-03  1.75799357E-02  2.06241939E-06  2.71538406E-02
 -3.65053839E-04  7.73390500E-04  4.25749091E-04  8.22772201E-08  9.77553991E-03
 -5.74985321E-03 -8.33884803E-04 -3.11704616E-07 -6.06041986E-02  1.37057870E-02
  5.29152390E-03  1.17058814E-06 -1.27480724E-04 -1.83230879E-04  1.74297111E-05
  6.63725705E-04  5.47336866E-06 -4.69621241E-05 -4.35015469E-05  9.45574624E-05
  9.08781379E-09 -4.28096812E-04 -1.04059689E-04 -2.89906361E-05 -1.88192274E-08
  5.25079297E-05 -1.11997483E-03  3.32557718E-04  5.57294687E-08 -7.32946962E-04
  2.61994408E-03 -5.02295771E-04 -2.52034243E-04 -1.41267110E-04  1.54360588E-03
 -4.96415430E-03 -6.60442469E-04 -8.87936368E-06  9.00187795E-05  1.55478394E-08
  3.42452259E-03  1.55514884E-03  4.13011952E-05 -1.41683432E-07 -5.74214380E-03
  8.52960986E-04 -2.34103955E-03 -2.07535659E-08  8.47424173E-05 -2.77875162E-05
 -2.05996614E-04 -1.54594638E-05  4.15698093E-09 -2.25596510E-03  1.70305512E-03
  3.55661586E-04 -2.03999843E-07 -4.41515420E-02 -1.86655163E-02  4.20948072E-03
  8.14367896E-07 -2.74140943E-02 -2.26080826E-03 -9.96271579E-04 -6.62888210E-04
 -1.18025020E-07  9.93370872E-03  4.83411972E-03  2.73543807E-03  5.91951638E-07
  3.81549057E-02 -1.17623008E-02  8.63033854E-03  3.20376595E-07  9.94954227E-01
  3.55487944E-02 -5.01938451E-04 -3.19498966E-04 -4.30605544E-08 -3.12062416E-02
  3.74988894E-03  2.03848500E-03  2.90630515E-07  1.23148173E-02 -4.62101337E-03
 -2.99156876E-03 -3.15689906E-07  9.84019680E-06  1.24974266E-04 -1.38227972E-04
 -3.88799562E-04  9.72872563E-06  1.26346526E-04  8.71489472E-06  1.29713351E-05
 -5.96338662E-09 -6.32236820E-04 -2.97358465E-04  3.49247202E-05  2.18830625E-08
  2.07738164E-03  1.87952013E-04 -7.37939339E-04  6.04106512E-08 -1.41616279E-04
  6.47605986E-05 -5.98217880E-04  3.76869399E-03 -7.44155151E-04  4.19957125E-03
  9.95296750E-01  3.58068726E-02  6.52943871E-04  2.24054825E-04 -8.45717558E-08
 -3.31206846E-02 -4.60457841E-03 -1.77959372E-03  4.36270914E-07 -1.92364728E-02
 -1.28001937E-03  1.90389854E-04  4.99493271E-07 -4.94719648E-03 -1.69749859E-03
  1.18632967E-03  5.31488685E-04 -1.00619014E-07  1.11476920E-02 -6.14461539E-03
 -3.37798029E-03  5.55611036E-07  6.39139627E-02 -6.00466734E-04 -1.51658326E-02
 -4.01125938E-07  2.04101380E-04 -2.01341251E-04  1.27914318E-04  3.92856915E-05
  4.31188306E-09 -5.35579864E-04 -4.06737330E-04  8.53855822E-06 -1.76859149E-07
 -4.29811176E-02  1.86738754E-02 -3.61716949E-03 -4.19118830E-07  4.86907313E-03
 -2.92794607E-04  8.35453471E-05 -5.62471122E-05  1.09840124E-08  1.81558513E-03
 -1.33146038E-03  3.56806766E-04 -5.63811192E-09 -1.03507437E-03 -2.72924514E-03
  2.97774101E-03  1.42256887E-07 -7.55289855E-04  4.34504260E-03 -6.14448354E-04
  4.32877554E-03  5.61757773E-07 -1.13869949E-04  4.09843459E-05  1.52175514E-04
 -6.27133301E-09 -2.27191857E-05  7.98681437E-05 -5.23666427E-04  8.80956800E-09
  8.87217442E-04  6.73305896E-04  8.55420001E-04 -7.41089845E-08 -1.59193866E-04
  6.68965182E-04 -9.90554736E-05 -5.83573118E-04  4.53577991E-05  3.91127353E-04
 -9.70261717E-03  1.96506465E-02  1.18946978E-02  1.08589590E-02 -1.14021770E-06
 -1.90606796E-02 -2.53109022E-02  3.28330870E-02  1.42714336E-06 -1.23101961E-01
 -2.94004384E-02 -7.25599721E-03  2.80577419E-06 -5.96940873E-02  1.15448872E-01
  2.44797536E-03  9.78802581E-02 -2.48665947E-06  4.85176463E-02  4.78766269E-03
 -7.65950542E-02  6.02322040E-07  2.18568930E-01 -5.71145801E-03 -2.50723017E-02
 -4.96993321E-07 -8.91653525E-03  1.69770048E-02 -1.05753926E-02  1.00774515E-02
  3.98721322E-07 -9.90164912E-03  3.69959983E-02  2.43830224E-02  2.58397023E-07
 -1.24959018E-01  1.27827754E-02 -1.66748479E-02  5.81992734E-07 -2.98774750E-03
  2.71989872E-03 -2.32533616E-03  3.54524765E-04 -1.33742342E-07 -2.22286383E-02
  9.21369573E-04  1.22082463E-02  2.07219673E-06  3.68536140E-02 -9.92659972E-03
 -2.38093169E-03 -2.30018620E-06  6.77635517E-04 -1.43653047E-02  3.87083977E-03
  1.99523121E-02 -2.25538073E-01  4.77420573E-01 -1.44843181E-03 -9.89907956E-02
  3.29460561E-06  5.48195310E-01 -1.07903155E-03 -8.11937092E-02  2.87385677E-06
  9.12214658E-04 -6.74469975E-04  9.46775606E-03  8.84202672E-08  3.49779288E-03
  1.35336188E-02  1.57969405E-03 -1.63799087E-03  1.34690660E-03  6.56810454E-03
 -9.09401848E-02  1.74099555E-01  7.94002131E-02  2.21600141E-02 -6.13067371E-06
  1.59384201E-01  1.91429812E-02  6.60127096E-03 -2.47845227E-06  1.45857436E-02
 -4.22738587E-04  5.65509406E-03  1.14487108E-06 -1.26749168E-01  2.58256397E-01
  1.02370551E-02 -8.96778443E-02  3.64366646E-06  1.58646093E-01  4.12045696E-02
  1.51576637E-02 -7.57577578E-07  1.87503181E-02  1.64930222E-02 -7.28517617E-05
 -1.25955948E-06 -1.38529740E-01  2.71990267E-01 -1.57476944E-02  4.59314342E-02
  9.00002148E-06  1.64905534E-01 -2.43649765E-02 -2.87572880E-02 -1.06990943E-06
 -1.36856354E-01 -1.89228061E-02 -3.38573804E-02 -4.17409500E-06 -8.80467720E-02
  1.69719087E-01 -7.22012189E-02 -3.50629648E-02 -4.95777556E-06  1.47558557E-01
 -1.26161977E-02 -6.68163660E-03 -1.45632479E-06  1.06071147E-01 -2.15819626E-02
 -8.12683053E-03 -1.26066927E-06  3.78101371E-02  2.14968914E-03  4.69565698E-02
  7.83164619E-03  4.98005954E-02 -1.11341763E-01  5.46114473E-03 -6.28804434E-02
  1.94869938E-06 -1.46052924E-01  5.12165087E-05 -2.57813610E-02  8.50138630E-07
 -2.60190183E-02 -8.18543062E-05  8.16504566E-03 -4.86497039E-07  6.99431955E-02
 -2.02447940E-03  4.04738781E-02  2.76580617E-03  3.90330833E-02  8.12188601E-04
 -1.34278979E-01  2.59406771E-01  7.14213401E-02  3.83580796E-02 -7.12721582E-06
  1.89249652E-01 -1.28781277E-03 -6.39459257E-03 -1.84413226E-08 -1.62638279E-01
 -3.56290790E-02 -1.30084434E-02  3.69289337E-06 -7.93228287E-02  1.64637197E-01
 -1.71578966E-01 -5.18884883E-02  1.03561232E-05  1.09547080E-01 -4.19963167E-02
 -6.86319325E-03  2.25703557E-06  7.80145458E-02 -6.21238846E-02 -1.79372032E-02
  4.12291151E-06  8.94456347E-02 -1.76879491E-01 -1.19113531E-01 -4.48910797E-02
 -7.36155564E-06 -1.19560424E-01 -2.59864898E-02  9.52849311E-03  1.76095444E-07
 -8.99436466E-02 -7.53892977E-02 -9.29750855E-03 -2.03035218E-06  1.21796656E-01
 -2.35568426E-01  6.27265141E-02  3.92610561E-02  5.57172317E-06 -1.83451410E-01
  5.61734667E-03 -9.58583226E-03 -1.45804144E-06  1.74596910E-01 -3.37561466E-02
 -2.36032863E-02 -5.34112511E-06  7.56702870E-02  1.67724732E-02  7.44848965E-02
  1.16386067E-02  2.21891373E-02 -5.13274789E-02 -4.51255814E-02 -4.59982385E-02
  2.91883761E-06 -6.06293694E-02 -2.26953465E-02 -2.49945076E-02  1.55595588E-06
 -1.69854106E-02 -3.99946361E-03  6.65426423E-03 -5.55194581E-07 -4.33740514E-02
 -8.88976751E-04 -6.56316110E-02 -4.34963581E-03 -6.87462952E-02 -1.85527454E-02
 -1.00082193E-01  1.96852055E-01 -6.62551036E-02  6.56115057E-03  3.45340500E-06
  1.97913091E-01 -2.20178015E-02  2.04935193E-03  7.69735156E-07  1.06886889E-01
  1.73474776E-02  2.18005070E-03 -3.22360661E-06  6.91531285E-02 -1.48523736E-01
 -2.16456033E-01  1.33807447E-02  1.63318322E-05 -1.50953017E-01 -4.97631343E-02
  1.19897337E-02  4.20062017E-06 -1.68318991E-01  1.57312064E-02  4.09305247E-02
  3.42178183E-07  6.42172752E-02 -1.32282720E-01  2.09223612E-01  1.07123578E-02
  7.17821345E-06 -1.17729441E-01  3.28394222E-02  5.81538833E-03  2.40745046E-06
  2.25819126E-01  1.41973804E-02  2.78084286E-02  4.64759385E-06 -1.20652756E-01
  2.41259588E-01  7.02078372E-02  4.34665564E-03  5.35504798E-06  2.33627239E-01
  3.26481981E-02 -6.12663350E-03  1.67680128E-06 -1.55977647E-01  4.37314492E-02
  1.34795412E-02  3.38737482E-06  1.07832208E-01  3.56771822E-02  8.24725935E-02
  2.97579829E-02 -2.15073719E-02  5.07239558E-02 -6.20261197E-02  1.03160770E-01
  3.67700445E-06  6.01579121E-02 -3.44978222E-02  5.87954071E-02  2.04573381E-06
  2.65191017E-02 -1.17516764E-03 -9.84770003E-03  6.78523330E-07 -5.81232944E-02
 -2.10253005E-02  1.01050657E-01  3.85672057E-02  1.23500818E-01  3.89641529E-02
 -4.20305200E-02  7.91180712E-02 -5.83834695E-02 -1.25697507E-01  4.33949346E-06
  1.09968408E-01  6.04796750E-03 -5.85137334E-02 -1.58610104E-07  1.29982223E-01
  2.43478809E-02 -1.55672995E-03 -2.36900073E-06  7.38126378E-02 -1.63567767E-01
  3.33483870E-02 -1.94093493E-01 -2.97413657E-06 -1.82634971E-01 -3.68036243E-03
 -1.59063697E-02 -1.02053406E-06 -2.21243645E-01  2.14886209E-02  6.04781898E-02
 -1.00872653E-06 -7.28973689E-02  1.46372948E-01  2.16578549E-03 -1.65976605E-01
 -1.27636708E-05  1.60678424E-01 -4.12195221E-02 -7.68806405E-02 -4.92120123E-06
  4.09727550E-02 -5.54864498E-02 -1.18777600E-02 -5.95339469E-07  4.94953826E-02
 -9.87067259E-02 -5.24542313E-02 -1.01005723E-01 -1.32699412E-05 -7.96153823E-02
 -2.51780348E-02 -4.47020875E-02 -7.32583760E-06  5.47143938E-02 -7.29791811E-03
 -1.52377749E-02 -1.74469505E-06  3.38356838E-02  2.67525139E-02  1.03163558E-01
  4.14256133E-02 -5.57596640E-02  1.30737990E-01  9.09243913E-03  3.54181879E-01
 -1.50585557E-05  1.63463094E-01  5.13055680E-03  2.04752145E-01 -8.92845149E-06
  5.31020020E-02 -5.30089373E-04 -2.10375591E-03 -4.81763228E-07  1.48713506E-01
  6.12572373E-02 -9.08432984E-02 -3.33132159E-02 -4.55304122E-02 -2.10173459E-02