L.pdb                                                                   
FOpt      RwB97XD                                                     6-31+G              
Number of atoms                            I                8
Info1-9                                    I   N=           9
          19          19           0           0           0         110
           2          18        -802
Charge                                     I                0
Multiplicity                               I                1
Number of electrons                        I               30
Number of alpha electrons                  I               15
Number of beta electrons                   I               15
Number of basis functions                  I               60
Number of independent functions            I               60
Number of point charges in /Mol/           I                0
Number of translation vectors              I                0
Atomic numbers                             I   N=           8
           6           6           6           8           1           1
           1           1
Nuclear charges                            R   N=           8
  6.00000000E+00  6.00000000E+00  6.00000000E+00  8.00000000E+00  1.00000000E+00
  1.00000000E+00  1.00000000E+00  1.00000000E+00
Current cartesian coordinates              R   N=          24
 -3.21044357E+00  3.49600855E-01 -3.65890447E-01 -1.12026339E+00 -8.10327809E-01
  4.56973067E-01  1.34448184E+00  5.22569793E-01  5.68927564E-01  3.22408063E+00
 -1.91156709E-01 -6.14719057E-01  1.40810837E+00  2.31145479E+00  1.63478611E+00
 -4.95865931E+00 -6.75845976E-01 -6.70261118E-01 -3.24453244E+00  2.36531024E+00
 -7.65310016E-01 -1.08021099E+00 -2.84272243E+00  7.58476376E-01
Force Field                                I                0
Int Atom Types                             I   N=           8
           0           0           0           0           0           0
           0           0
MM charges                                 R   N=           8
  0.00000000E+00  0.00000000E+00  0.00000000E+00  0.00000000E+00  0.00000000E+00
  0.00000000E+00  0.00000000E+00  0.00000000E+00
Integer atomic weights                     I   N=           8
          12          12          12          16           1           1
           1           1
Real atomic weights                        R   N=           8
  1.20000000E+01  1.20000000E+01  1.20000000E+01  1.59949146E+01  1.00782504E+00
  1.00782504E+00  1.00782504E+00  1.00782504E+00
Atom fragment info                         I   N=           8
           0           0           0           0           0           0
           0           0
Atom residue num                           I   N=           8
           0           0           0           0           0           0
           0           0
Nuclear spins                              I   N=           8
           0           0           0           0           1           1
           1           1
Nuclear ZEff                               R   N=           8
 -3.60000000E+00 -3.60000000E+00 -3.60000000E+00 -5.60000000E+00 -1.00000000E+00
 -1.00000000E+00 -1.00000000E+00 -1.00000000E+00
Nuclear ZNuc                               R   N=           8
  6.00000000E+00  6.00000000E+00  6.00000000E+00  8.00000000E+00  1.00000000E+00
  1.00000000E+00  1.00000000E+00  1.00000000E+00
Nuclear QMom                               R   N=           8
  0.00000000E+00  0.00000000E+00  0.00000000E+00  0.00000000E+00  0.00000000E+00
  0.00000000E+00  0.00000000E+00  0.00000000E+00
Nuclear GFac                               R   N=           8
  0.00000000E+00  0.00000000E+00  0.00000000E+00  0.00000000E+00  2.79284600E+00
  2.79284600E+00  2.79284600E+00  2.79284600E+00
MicOpt                                     I   N=           8
          -1          -1          -1          -1          -1          -1
          -1          -1
Number of contracted shells                I               24
Number of primitive shells                 I               60
Pure/Cartesian d shells                    I                1
Pure/Cartesian f shells                    I                0
Highest angular momentum                   I                1
Largest degree of contraction              I                6
Shell types                                I   N=          24
           0          -1          -1          -1           0          -1
          -1          -1           0          -1          -1          -1
           0          -1          -1          -1           0           0
           0           0           0           0           0           0
Number of primitives per shell             I   N=          24
           6           3           1           1           6           3
           1           1           6           3           1           1
           6           3           1           1           3           1
           3           1           3           1           3           1
Shell to atom map                          I   N=          24
           1           1           1           1           2           2
           2           2           3           3           3           3
           4           4           4           4           5           5
           6           6           7           7           8           8
Primitive exponents                        R   N=          60
  3.04752488E+03  4.57369518E+02  1.03948685E+02  2.92101553E+01  9.28666296E+00
  3.16392696E+00  7.86827235E+00  1.88128854E+00  5.44249258E-01  1.68714478E-01
  4.38000000E-02  3.04752488E+03  4.57369518E+02  1.03948685E+02  2.92101553E+01
  9.28666296E+00  3.16392696E+00  7.86827235E+00  1.88128854E+00  5.44249258E-01
  1.68714478E-01  4.38000000E-02  3.04752488E+03  4.57369518E+02  1.03948685E+02
  2.92101553E+01  9.28666296E+00  3.16392696E+00  7.86827235E+00  1.88128854E+00
  5.44249258E-01  1.68714478E-01  4.38000000E-02  5.48467166E+03  8.25234946E+02
  1.88046958E+02  5.29645000E+01  1.68975704E+01  5.79963534E+00  1.55396162E+01
  3.59993359E+00  1.01376175E+00  2.70005823E-01  8.45000000E-02  1.87311370E+01
  2.82539436E+00  6.40121692E-01  1.61277759E-01  1.87311370E+01  2.82539436E+00
  6.40121692E-01  1.61277759E-01  1.87311370E+01  2.82539436E+00  6.40121692E-01
  1.61277759E-01  1.87311370E+01  2.82539436E+00  6.40121692E-01  1.61277759E-01
Contraction coefficients                   R   N=          60
  1.83473713E-03  1.40373228E-02  6.88426223E-02  2.32184443E-01  4.67941348E-01
  3.62311985E-01 -1.19332420E-01 -1.60854152E-01  1.14345644E+00  1.00000000E+00
  1.00000000E+00  1.83473713E-03  1.40373228E-02  6.88426223E-02  2.32184443E-01
  4.67941348E-01  3.62311985E-01 -1.19332420E-01 -1.60854152E-01  1.14345644E+00
  1.00000000E+00  1.00000000E+00  1.83473713E-03  1.40373228E-02  6.88426223E-02
  2.32184443E-01  4.67941348E-01  3.62311985E-01 -1.19332420E-01 -1.60854152E-01
  1.14345644E+00  1.00000000E+00  1.00000000E+00  1.83107443E-03  1.39501722E-02
  6.84450781E-02  2.32714336E-01  4.70192898E-01  3.58520853E-01 -1.10777550E-01
 -1.48026263E-01  1.13076702E+00  1.00000000E+00  1.00000000E+00  3.34946043E-02
  2.34726953E-01  8.13757326E-01  1.00000000E+00  3.34946043E-02  2.34726953E-01
  8.13757326E-01  1.00000000E+00  3.34946043E-02  2.34726953E-01  8.13757326E-01
  1.00000000E+00  3.34946043E-02  2.34726953E-01  8.13757326E-01  1.00000000E+00
P(S=P) Contraction coefficients            R   N=          60
  0.00000000E+00  0.00000000E+00  0.00000000E+00  0.00000000E+00  0.00000000E+00
  0.00000000E+00  6.89990666E-02  3.16423961E-01  7.44308291E-01  1.00000000E+00
  1.00000000E+00  0.00000000E+00  0.00000000E+00  0.00000000E+00  0.00000000E+00
  0.00000000E+00  0.00000000E+00  6.89990666E-02  3.16423961E-01  7.44308291E-01
  1.00000000E+00  1.00000000E+00  0.00000000E+00  0.00000000E+00  0.00000000E+00
  0.00000000E+00  0.00000000E+00  0.00000000E+00  6.89990666E-02  3.16423961E-01
  7.44308291E-01  1.00000000E+00  1.00000000E+00  0.00000000E+00  0.00000000E+00
  0.00000000E+00  0.00000000E+00  0.00000000E+00  0.00000000E+00  7.08742682E-02
  3.39752839E-01  7.27158577E-01  1.00000000E+00  1.00000000E+00  0.00000000E+00
  0.00000000E+00  0.00000000E+00  0.00000000E+00  0.00000000E+00  0.00000000E+00
  0.00000000E+00  0.00000000E+00  0.00000000E+00  0.00000000E+00  0.00000000E+00
  0.00000000E+00  0.00000000E+00  0.00000000E+00  0.00000000E+00  0.00000000E+00
Coordinates of each shell                  R   N=          72
 -3.21044357E+00  3.49600855E-01 -3.65890447E-01 -3.21044357E+00  3.49600855E-01
 -3.65890447E-01 -3.21044357E+00  3.49600855E-01 -3.65890447E-01 -3.21044357E+00
  3.49600855E-01 -3.65890447E-01 -1.12026339E+00 -8.10327809E-01  4.56973067E-01
 -1.12026339E+00 -8.10327809E-01  4.56973067E-01 -1.12026339E+00 -8.10327809E-01
  4.56973067E-01 -1.12026339E+00 -8.10327809E-01  4.56973067E-01  1.34448184E+00
  5.22569793E-01  5.68927564E-01  1.34448184E+00  5.22569793E-01  5.68927564E-01
  1.34448184E+00  5.22569793E-01  5.68927564E-01  1.34448184E+00  5.22569793E-01
  5.68927564E-01  3.22408063E+00 -1.91156709E-01 -6.14719057E-01  3.22408063E+00
 -1.91156709E-01 -6.14719057E-01  3.22408063E+00 -1.91156709E-01 -6.14719057E-01
  3.22408063E+00 -1.91156709E-01 -6.14719057E-01  1.40810837E+00  2.31145479E+00
  1.63478611E+00  1.40810837E+00  2.31145479E+00  1.63478611E+00 -4.95865931E+00
 -6.75845976E-01 -6.70261118E-01 -4.95865931E+00 -6.75845976E-01 -6.70261118E-01
 -3.24453244E+00  2.36531024E+00 -7.65310016E-01 -3.24453244E+00  2.36531024E+00
 -7.65310016E-01 -1.08021099E+00 -2.84272243E+00  7.58476376E-01 -1.08021099E+00
 -2.84272243E+00  7.58476376E-01
Constraint Structure                       R   N=          24
 -3.22455110E+00  3.39349241E-01 -3.69267667E-01 -1.11950002E+00 -7.99439227E-01
  4.74568750E-01  1.34579878E+00  5.35469198E-01  5.63941458E-01  3.23622985E+00
 -2.02137990E-01 -6.13388158E-01  1.40726574E+00  2.35257127E+00  1.58874750E+00
 -4.96092775E+00 -7.06181578E-01 -6.85014448E-01 -3.28243548E+00  2.35384643E+00
 -7.76836241E-01 -1.06422724E+00 -2.83540748E+00  7.64753206E-01
Num ILSW                                   I              100
ILSW                                       I   N=         100
           0           1           0           0           2           0
           0           0           0           0        4639          -1
           0           0           0           0           2           0
           0           0           0           0           1           0
           1           0           0           0           0           0
           0           0      100000           0          -1           0
           0           0           0           0           0           0
           0           0           0           1           0           0
           0           0           1           0           0           0
           0           0         121          41           0           0
           0           0          58           0           0           0
           0           0           0           8           0           0
           0           0           0           0           0           0
           0           0           0           0           0           0
           0           0           0           0           0           0
           0           0           0           0           0           0
           0           0           0           0
Num RLSW                                   I               41
RLSW                                       R   N=          41
  1.00000000E+00  1.00000000E+00  1.00000000E+00  1.00000000E+00  1.00000000E+00
  0.00000000E+00  2.00000000E-01  2.22036000E-01  0.00000000E+00  7.77964000E-01
  0.00000000E+00  2.00000000E-01  0.00000000E+00  0.00000000E+00  1.00000000E+00
  0.00000000E+00  0.00000000E+00  1.00000000E+00  0.00000000E+00  0.00000000E+00
  0.00000000E+00  0.00000000E+00  1.00000000E+00  0.00000000E+00  0.00000000E+00
  0.00000000E+00  0.00000000E+00  1.00000000E+00  0.00000000E+00  0.00000000E+00
  0.00000000E+00  0.00000000E+00  1.00000000E+00  0.00000000E+00  0.00000000E+00
  0.00000000E+00  0.00000000E+00  0.00000000E+00  1.00000000E+00  1.00000000E+00
  0.00000000E+00
MxBond                                     I                3
NBond                                      I   N=           8
           3           3           3           1           1           1
           1           1
IBond                                      I   N=          24
           2           6           7           1           3           8
           2           4           5           3           0           0
           3           0           0           1           0           0
           1           0           0           2           0           0
RBond                                      R   N=          24
  2.00000000E+00  1.00000000E+00  1.00000000E+00  2.00000000E+00  1.00000000E+00
  1.00000000E+00  1.00000000E+00  2.00000000E+00  1.00000000E+00  2.00000000E+00
  0.00000000E+00  0.00000000E+00  1.00000000E+00  0.00000000E+00  0.00000000E+00
  1.00000000E+00  0.00000000E+00  0.00000000E+00  1.00000000E+00  0.00000000E+00
  0.00000000E+00  1.00000000E+00  0.00000000E+00  0.00000000E+00
Virial Ratio                               R      2.005813259901733E+00
SCF Energy                                 R     -1.917862559958137E+02
Total Energy                               R     -1.917862559958137E+02
RMS Force                                  R      3.191709141358362E-03
RMS Density                                R      3.872064189379293E-09
External E-field                           R   N=          35
  0.00000000E+00  0.00000000E+00  0.00000000E+00  0.00000000E+00  0.00000000E+00
  0.00000000E+00  0.00000000E+00  0.00000000E+00  0.00000000E+00  0.00000000E+00
  0.00000000E+00  0.00000000E+00  0.00000000E+00  0.00000000E+00  0.00000000E+00
  0.00000000E+00  0.00000000E+00  0.00000000E+00  0.00000000E+00  0.00000000E+00
  0.00000000E+00  0.00000000E+00  0.00000000E+00  0.00000000E+00  0.00000000E+00
  0.00000000E+00  0.00000000E+00  0.00000000E+00  0.00000000E+00  0.00000000E+00
  0.00000000E+00  0.00000000E+00  0.00000000E+00  0.00000000E+00  0.00000000E+00
IOpCl                                      I                0
IROHF                                      I                0
Alpha Orbital Energies                     R   N=          60
 -1.92940092E+01 -1.04109681E+01 -1.03324470E+01 -1.03310643E+01 -1.17732973E+00
 -9.15024949E-01 -7.59333599E-01 -6.77670997E-01 -5.90087494E-01 -5.71783320E-01
 -5.31614832E-01 -4.92263079E-01 -4.74328568E-01 -3.79592223E-01 -3.54815613E-01
 -2.58790246E-04  6.39674071E-02  7.58928395E-02  8.84011689E-02  8.98452305E-02
  1.11754140E-01  1.25746474E-01  1.30598675E-01  1.46854047E-01  1.63220757E-01
  1.71661364E-01  1.78096224E-01  1.97890748E-01  2.27012796E-01  2.73266895E-01
  2.82252231E-01  2.89523748E-01  3.10976026E-01  3.27979568E-01  3.44579452E-01
  3.68908778E-01  3.99627833E-01  4.31567911E-01  4.58144234E-01  5.01864747E-01
  6.97121768E-01  7.20219456E-01  7.51438542E-01  7.96585552E-01  8.04751394E-01
  8.50894813E-01  8.86439408E-01  9.23687522E-01  1.00901880E+00  1.05551704E+00
  1.09767693E+00  1.13148605E+00  1.14674611E+00  1.23753488E+00  1.26800604E+00
  1.33579635E+00  1.34567609E+00  1.38507198E+00  1.43102856E+00  1.88274359E+00
Alpha MO coefficients                      R   N=        3600
  1.78963783E-05  2.22818687E-04 -4.63309942E-06  2.92973643E-05 -9.92485719E-05
 -2.14931966E-03 -5.03770142E-04  1.07574423E-04 -2.87259478E-04  9.19109641E-03
  1.93281856E-03 -1.18220050E-03  5.14437677E-04  8.70154003E-06 -1.85976800E-04
 -1.43824891E-04 -1.65726158E-04  1.57374684E-05  5.89594958E-05 -1.90143378E-03
  1.72336750E-03  4.20842598E-04  2.38501346E-03  5.53854761E-03 -3.56143336E-04
  6.49754048E-04  2.08160555E-04  1.03376020E-04  8.90054550E-05  1.20350439E-04
  2.46236462E-05  6.46828993E-03  3.74046846E-03 -3.12891232E-03 -3.12007752E-03
 -1.64873779E-02  6.68742512E-04  3.31508771E-03  2.03287735E-03  9.95215638E-01
  2.93334233E-02 -1.74915806E-03  5.86464544E-04  1.07482447E-03 -2.07974504E-02
  3.77780914E-03 -1.00060871E-03 -2.14363740E-03  9.64567282E-03 -7.94645933E-04
 -6.99617732E-05  5.29401819E-05 -1.43294027E-04  1.09824510E-03  4.08076935E-05
  8.86954398E-06  5.17526001E-05  2.47414685E-04  2.39952795E-04  5.05428740E-04
 -1.01005121E-04 -4.51653567E-04 -1.78698940E-04 -3.91294434E-05  3.52053402E-06
  1.60823116E-03  1.50238101E-03 -3.67275220E-05  3.34945123E-04 -1.77974633E-02
 -2.87017515E-03  2.51218390E-03 -1.78090712E-03  1.63760379E-03 -3.56773153E-04
 -4.64522152E-04 -2.60988878E-04 -9.23951105E-05  3.41793569E-03  3.47623345E-03
  5.59301812E-04  5.34181972E-04 -4.24197642E-06 -1.02191589E-02  7.88192119E-04
 -1.00393044E-03  9.95435221E-01  3.61218973E-02  1.05322511E-03 -5.28246854E-04
 -8.07313701E-04 -3.15014909E-02 -7.20568122E-04  1.93493855E-03  1.71207749E-03
  1.52708392E-02 -4.42663535E-03 -4.36447837E-03 -6.58775025E-04 -1.30100133E-04
 -9.44347346E-05  5.18638797E-04 -1.46065901E-04 -2.74540764E-04  1.41736022E-03
 -4.15814820E-04 -2.70929620E-04 -1.07420293E-04  1.06866777E-02 -4.53526839E-03
  2.14753364E-03  3.18385418E-03 -5.48955549E-04  3.13776797E-03 -1.81863692E-05
  1.20654351E-03 -2.46713698E-04  2.26857600E-04 -2.01269595E-04 -2.12745358E-04
  3.22045535E-01  1.00881926E-02 -6.36048413E-04  3.89224540E-04 -2.67684469E-04
 -2.65111591E-04  3.72441280E-03 -3.85516293E-04  1.00140295E-03 -2.80457773E-02
 -5.75689304E-03  1.56812746E-03 -1.96001512E-03  9.41766854E-01  3.39458498E-02
  2.93597867E-04  2.88655852E-04 -1.68661183E-04 -3.02425029E-02 -1.76490175E-03
 -3.73238226E-03  9.49974769E-04  6.70666278E-02  2.84767433E-03  1.29646437E-02
 -2.76947927E-03 -1.47302192E-03 -6.68577211E-04  5.02880045E-04  2.99786396E-04
  2.93619963E-06  5.45865232E-03 -5.13647126E-03 -1.53417403E-03  1.29822631E-04
 -3.78785336E-02  9.49019376E-03  3.38002611E-03  5.87134684E-04 -6.33247745E-06
 -1.96181352E-04  1.02720517E-04 -2.47022671E-05 -2.25134652E-05  4.56639229E-04
 -2.56038153E-04  3.61332570E-04  3.26876740E-04  3.16560400E-03 -1.09782142E-03
  2.76130575E-04  1.05444571E-03 -2.58171136E-04  1.89350656E-04 -3.50768087E-04
  2.22366868E-03 -5.39854108E-04  7.09738015E-04 -6.86437240E-04  2.68583547E-03
  9.41778291E-01  3.37827432E-02  6.65542652E-04 -3.18014920E-04  2.23577858E-04
 -3.22179099E-02 -4.62427238E-03  2.07451233E-03 -1.70759406E-03  3.94619847E-02
  9.24604320E-03 -5.63543173E-03  3.78677181E-03 -3.22310663E-01 -1.29526507E-02
  9.34509006E-04 -7.26892852E-04  4.71703205E-04  1.93156109E-02 -5.07328043E-03
  4.04622117E-03 -2.21926257E-03 -1.74129964E-02  1.40236932E-02 -5.83625659E-04
  3.35351185E-03  5.14601622E-04 -2.16151780E-04  2.26831963E-05 -9.56297088E-05
 -1.41381713E-05 -2.18427399E-04  1.44117899E-03 -4.52596567E-04 -3.47947866E-04
 -2.16505301E-02  5.39868085E-03  2.41303489E-03  2.58291320E-04  1.11349090E-05
  2.45661738E-04 -1.27491949E-04  2.29074557E-05  4.14968411E-06 -9.77685365E-04
  6.94610287E-04 -1.98567101E-04 -1.93336323E-04  6.49636715E-05 -2.79345284E-04
  1.74066477E-04 -4.14895696E-05 -8.29770279E-05  6.87127189E-04 -6.24607152E-04
  3.67435679E-03 -5.26722410E-04  3.84020246E-03  1.26919221E-04 -5.80203418E-04
 -4.12479337E-03  8.40138377E-03  6.26968297E-03 -1.03092059E-03  1.45663276E-03
  1.10846692E-02 -5.43826337E-03 -5.11834482E-03  1.41291301E-03  5.02403431E-02
  1.06852998E-02 -3.39471760E-03  3.76407128E-03 -1.93797105E-02  3.67179818E-02
  2.56617809E-02  9.38828099E-03 -3.78685935E-03  1.55921468E-02  1.06359873E-02
 -8.90882274E-03 -7.40490156E-03 -8.74863861E-02 -4.05872526E-03 -1.46623144E-02
  7.59403445E-03 -1.16225034E-01  2.37920478E-01  1.47083304E-01 -6.19223708E-02
 -9.69575875E-02  4.35113114E-02 -4.45765558E-02  2.78188218E-02  3.19450605E-02
  5.05232562E-02  5.74395320E-03 -5.85966635E-03 -8.30150368E-03 -1.92397612E-01
  4.25368978E-01 -1.47291731E-01  5.41195849E-02  9.17849957E-02  4.16869073E-01
 -5.86929017E-02  1.94207997E-02  3.67176589E-02 -4.80954386E-03 -7.40909615E-03
  1.45712030E-03  3.39237192E-03  2.83964569E-02 -1.84363641E-02  5.02169045E-04
 -7.39955985E-03  2.53651154E-03  3.28691796E-05  5.43709553E-03 -1.08094935E-03
 -1.40752601E-01  2.71465760E-01  9.32372976E-02 -4.27767423E-02  3.36280712E-02
  2.06725707E-01  1.17982914E-02  5.44677577E-03  2.61292911E-03  8.87102337E-03
  5.21616195E-03  5.20424820E-03  8.80528604E-04 -1.62218062E-01  3.16226382E-01
 -5.01711039E-02  6.53669819E-02 -3.37902867E-02  2.17973390E-01 -8.62517914E-04
 -6.92825237E-03  3.74369163E-04 -1.01605001E-01 -2.85638902E-02 -2.72607574E-02
 -2.95268995E-03 -5.33094521E-02  1.03822536E-01 -1.32555172E-01 -1.56899730E-02
  2.21982015E-02  1.08833769E-01 -2.26407132E-02 -3.94915651E-04 -2.08334371E-03
  9.73575511E-02 -2.55290417E-02 -6.39280495E-03  3.02656024E-03  4.08806060E-02
 -9.36587378E-02 -1.67949156E-03 -1.30989992E-02 -1.24000702E-02 -1.03045282E-01
  3.77376533E-03 -3.97130283E-03 -3.83215407E-03 -1.35895540E-02  7.75746391E-03
 -3.52293693E-03 -4.41190193E-03  3.14630716E-02  3.12777952E-03  6.82475435E-02
  1.31337098E-02  7.13595356E-02  6.90447513E-03  7.87767819E-02  5.73338793E-03
  1.30445483E-01 -2.59820417E-01  5.58806100E-02  8.64108848E-03  1.40038575E-02
 -2.45074617E-01  2.44921497E-02  8.61390264E-04  6.37784850E-03  1.55831283E-01
  3.16638165E-02 -2.14441818E-02  1.32854480E-02 -4.89554401E-02  9.93754162E-02
  2.17039939E-01  1.01348364E-02  5.55208410E-02  9.63459539E-02  4.19328020E-02
  1.63878227E-03  1.35873801E-02 -6.11673934E-02  7.50134062E-02 -9.52380783E-03
  1.57240928E-02 -1.20212895E-01  2.53915132E-01 -1.54183326E-01  6.79788033E-03
  7.33053479E-02  2.66805152E-01 -2.15440394E-02  9.20485584E-04  1.48945186E-02
 -9.69417649E-02  1.61005107E-02  2.12793617E-02  5.76202317E-03  6.76680301E-02
 -1.56541966E-01 -4.79775967E-02  1.45102022E-03  2.33619797E-02 -2.06191945E-01
 -1.15116398E-02 -3.48470750E-03  3.78607250E-03 -2.92695141E-02  9.34776592E-03
 -4.27025439E-03 -8.17405796E-03  1.12597759E-01  4.06463639E-02 -1.25664467E-01
 -4.11371350E-02 -1.01934802E-01 -3.42017501E-02  4.03025282E-02  1.22294745E-02
 -5.70236371E-02  1.13448342E-01 -7.51373862E-02  1.35573828E-01 -3.94212760E-02
  1.23124170E-01 -2.02056515E-02  4.19628577E-02 -9.98513246E-03 -3.85355676E-02
 -1.37625079E-02  4.45069613E-03 -5.70794321E-03  9.35879347E-02 -1.90115020E-01
  4.67079600E-03  1.73410501E-01 -1.93394727E-03 -1.98298580E-01 -3.89603674E-03
  6.74833474E-02 -6.92571601E-03  7.30396777E-02  4.91057911E-03  1.46552146E-02
 -1.32701588E-03 -8.17600137E-02  1.74915465E-01  4.05718260E-02  2.20860698E-01
  9.15913612E-02  1.96741649E-01  6.92117691E-03  8.60683366E-02  3.81382717E-02
 -2.97724542E-02  7.10393297E-03  1.63701366E-02  2.69220336E-03  3.88791957E-02
 -9.07690324E-02 -7.59907652E-03  1.11194912E-01  5.64043052E-02 -1.19613453E-01
 -6.68749456E-04  4.76332496E-02  2.22405827E-02 -1.54568934E-02  1.51184694E-03
 -5.79571561E-03 -1.59156628E-03  1.83120645E-01  7.31089885E-02  5.49052879E-02
  2.51983485E-02  1.22189470E-01  5.97662114E-02 -1.66333808E-01 -6.48476052E-02
 -6.52804232E-03  1.19081048E-02  7.90667747E-02  2.51333691E-01 -4.85598393E-02
  2.13892405E-02  4.27154427E-02  1.08624198E-01 -1.91721586E-02 -6.68071958E-02
 -1.80116550E-02  1.45299001E-02 -5.29775311E-03  1.26592909E-02 -2.10152909E-02
  1.82358585E-01  2.06885549E-01 -4.45526837E-02 -5.93797075E-02  4.15626542E-02
  6.86410004E-02 -2.19316194E-02  5.53242828E-02 -1.75418543E-03  1.35942869E-02
 -8.77563939E-03  9.65872569E-03 -2.11852087E-02 -1.96665073E-01 -2.12596262E-01
 -1.42184789E-01 -3.12722665E-02 -8.18846386E-02 -9.39736909E-02 -6.59174456E-02
  4.41740205E-03 -1.52137119E-02 -1.15232328E-02 -8.33452071E-03 -1.21048184E-02
  2.74195388E-02 -7.82142797E-02 -1.40038867E-01 -1.18724879E-01  4.53562673E-02
 -4.45001807E-02 -6.59328172E-02 -5.74899062E-02  8.26936339E-03  2.62197584E-03
  2.02937500E-03  3.48953093E-03 -1.44289643E-01 -7.24708144E-02 -9.41465558E-02
 -4.49434880E-02  1.46003820E-01  7.71880046E-02 -1.26317845E-01 -7.40720104E-02
  1.45511827E-02 -2.65366411E-02  3.38543293E-01 -4.96108664E-02  1.19498604E-01
 -7.86741485E-02  1.12930007E-01 -4.06764949E-03  4.00531750E-02 -4.54413429E-02
  1.26735445E-02  1.09116930E-03  1.45067524E-03 -3.36282447E-02  6.96341117E-02
 -2.20262103E-01  1.89407718E-01 -6.75183128E-02  7.01814745E-02 -5.39220620E-02
  7.09529215E-02 -2.11881689E-02  4.87220437E-02 -2.55404925E-02  1.55209380E-02
 -4.98493383E-03  4.14294549E-02 -1.04340411E-01 -5.48142888E-02  1.95970493E-01
  2.82118253E-02 -1.23231062E-01 -1.51894265E-02  9.89911513E-02  1.26113465E-02
 -1.67274368E-02  9.94403221E-03  6.09892176E-03  3.66552608E-04 -5.27952506E-02
  1.17772942E-01  2.03214932E-01  6.01350719E-02 -1.33645127E-01  2.13675124E-01
  7.69528731E-02  4.35341459E-02 -5.34978046E-02  5.57034623E-02  1.38946676E-03
 -3.53397023E-03 -4.20166310E-04  4.63708625E-02  1.51707374E-02 -1.81728781E-01
 -1.08021690E-01 -6.28257135E-02 -4.12813179E-02 -7.79097414E-02 -4.99843583E-02
  6.64922308E-03 -1.76743728E-02 -1.49467336E-01  1.27341622E-01 -2.37790911E-02
  1.34640179E-02 -4.04512918E-02  5.01414953E-02  2.39780325E-03  7.39921876E-02
  8.68266459E-03  1.85183133E-03  3.53956109E-03 -2.01982925E-03  1.21658766E-03
  1.45985770E-01 -8.11803541E-02  1.39882026E-01  2.28014962E-02  4.99870117E-02
 -3.44555605E-02  6.01349545E-02 -5.13403209E-02  2.34772465E-02 -1.50716714E-02
  1.34407405E-02  2.36699106E-02 -7.97681043E-02 -2.03906732E-01  5.02796382E-02
  2.68335321E-01 -6.20955898E-02 -5.19688680E-02  1.25487797E-02  1.06935558E-01
 -2.17362318E-02  4.77905343E-04  4.14931682E-03  1.01498213E-02 -7.21201568E-02
  1.56725003E-01  3.92555785E-01 -1.82647375E-01 -1.11434382E-01  2.99154005E-01
  1.63597105E-01 -8.36060653E-02 -2.49308824E-02  9.92295303E-02  9.05468524E-03
 -7.24054255E-03 -7.94495370E-03  7.49842823E-02  5.46512962E-02  3.52239949E-02
  3.04377692E-02  7.78556980E-02  5.30879704E-02  7.04637702E-02  4.66334244E-02
 -3.35876202E-03  6.78926681E-03  1.71390445E-01  2.65420748E-01  3.83331749E-02
  2.71261126E-02  9.32559576E-02  1.28745819E-01  2.41555913E-02  1.70955171E-01
  5.46295813E-02  7.43785257E-03  1.35525844E-02 -1.52342026E-02  2.87672504E-02
 -8.96853586E-02 -1.21006133E-01  6.34757740E-02  5.29944173E-02 -1.47342196E-02
 -6.56143820E-02  3.92858628E-02 -1.86440728E-01  9.71926788E-03 -4.43562035E-02
  1.78235699E-02  1.91493815E-02 -3.24995492E-02  2.49547496E-01 -6.88297660E-02
  1.07239865E-01 -7.33093598E-02  9.83495128E-02 -1.57547423E-02  7.72167834E-02
  1.00863536E-02  1.35862859E-02 -4.47308073E-03  1.70154847E-02  1.94656218E-02
 -4.14632295E-02  4.72266421E-03  2.31535982E-02  3.20910900E-01 -8.07159962E-02
  2.21305536E-02  1.61839415E-03  1.82319806E-01 -1.18539824E-02 -1.09435974E-02
  3.14726727E-03  8.48906557E-03 -2.48846189E-02 -2.39540547E-02 -1.95317684E-01
 -1.34243721E-01  1.78763992E-01  1.25567914E-01  1.10263624E-01  7.79980428E-02
 -1.73754759E-02  4.11258707E-02  3.54337821E-02 -1.79315563E-01  1.00174776E-01
  2.35319952E-02 -8.58479078E-03 -8.84886311E-02  4.72326011E-02  1.57486616E-01
  3.62710027E-02 -2.78585826E-02  2.02354463E-02  7.11566713E-03 -8.67640307E-03
 -6.46101408E-02  2.39805131E-01  1.76182351E-02 -6.03264680E-02 -2.57856265E-02
  1.32884897E-01  8.87331432E-03 -1.33038842E-01  3.69906177E-02  6.91246125E-03
  7.61272556E-03 -1.46232913E-02  3.70033110E-02  1.40839773E-02 -2.08971209E-01
  1.87599731E-01  2.09509896E-02  5.95928350E-03 -1.25328091E-01  1.11916577E-01
 -5.24584836E-02  2.05126869E-02 -1.75121418E-02  2.32460618E-02  8.43343875E-04
 -1.39154045E-03  4.55553496E-02 -2.76152937E-01  2.83649468E-01  2.07318395E-03
  3.07920197E-02 -1.64036530E-01  1.79400816E-01  1.45352546E-02 -6.05075232E-03
 -7.44448759E-03  5.66724502E-03 -3.52323843E-02 -1.32600095E-02  5.77653646E-02
  3.31138632E-02 -1.26305724E-01 -9.77339338E-02 -1.80769178E-01 -1.10368601E-01
  2.46960612E-03 -4.80791848E-03 -1.22304190E-01  7.11926607E-02  3.61824627E-01
  8.02943475E-03 -8.03826963E-02  4.19032315E-02  2.35882670E-01 -6.53033514E-02
 -2.83215228E-02  8.92408625E-03  2.70463224E-02 -7.78577885E-03  1.76017272E-02
 -6.21600133E-02  8.33301417E-02  3.71195237E-01  1.56273610E-02 -4.20377687E-02
  3.92876853E-02  2.47776768E-01  1.66517796E-01 -6.13613334E-04  3.48832929E-02
  4.05593677E-02  3.00434188E-03  3.27575810E-03 -5.29053535E-03 -3.54330840E-02
 -6.43289108E-02 -5.34550059E-02 -4.97148846E-02 -4.27990504E-03 -1.83974645E-02
 -1.13656565E-01  1.97639397E-02  1.32922662E-02 -1.86773847E-02 -2.23769918E-03
  6.61878398E-03 -1.28537106E-01  1.18720296E-01 -1.09482892E-01  3.32101175E-02
 -8.58159933E-02  8.93686874E-02 -7.01499136E-02  2.88766823E-02 -1.77013063E-02
  7.93379572E-03 -5.32488954E-03 -6.33630757E-02 -5.73852407E-02  1.14733053E-02
  3.79656376E-03 -4.70512966E-03 -8.83325714E-03 -1.21700445E-02 -2.16009842E-02
  6.16071407E-03 -1.45284407E-02 -5.29721929E-02 -1.57889896E-02 -5.06919052E-02
 -3.14423207E-02 -5.27292052E-02 -4.23814955E-02 -4.18451006E-02 -4.38088918E-02
 -1.43310783E-02 -1.35641288E-02 -1.85546587E-02 -3.52298266E-02  7.04487421E-02
  1.99473414E-01  1.09426282E-01 -9.80015095E-04  2.59255207E-01  1.55846065E-01
  1.45371839E-01  3.71352910E-03  4.35366751E-03 -3.06589604E-02  2.94928386E-02
  1.54435710E-02 -3.78309694E-04  1.73744763E-02 -8.33752873E-02 -1.23849319E-01
 -4.60595548E-02 -6.39598944E-02  8.35440333E-02  2.09225078E-02 -1.99813240E-03
  2.86608213E-02  2.28442428E-02 -1.39577521E-02 -1.51677153E-02 -1.04999189E-03
  4.20886075E-03  3.00439505E-01  4.61269479E-01  1.98566987E-01 -8.49179866E-03
  2.08282557E-01  3.10276315E-01  1.28609979E-01 -3.34937239E-02  2.95598069E-02