B.pdb                                                                   
FOpt      RwB97XD                                                     6-31+G              
Number of atoms                            I               10
Info1-9                                    I   N=           9
          21          21           0           0           0         110
           2          18        -802
Charge                                     I                0
Multiplicity                               I                1
Number of electrons                        I               38
Number of alpha electrons                  I               19
Number of beta electrons                   I               19
Number of basis functions                  I               75
Number of independent functions            I               75
Number of point charges in /Mol/           I                0
Number of translation vectors              I                0
Atomic numbers                             I   N=          10
           6           6           6           6           1           1
           9           1           1           1
Nuclear charges                            R   N=          10
  6.00000000E+00  6.00000000E+00  6.00000000E+00  6.00000000E+00  1.00000000E+00
  1.00000000E+00  9.00000000E+00  1.00000000E+00  1.00000000E+00  1.00000000E+00
Current cartesian coordinates              R   N=          30
 -3.21222072E+00 -1.28957840E+00  1.81947786E-01 -9.86640895E-01 -1.48945383E-01
 -9.74920936E-02  1.52233750E+00 -1.29003300E+00 -2.33912842E-01  3.68643922E+00
 -5.43952843E-02  2.02737468E-01 -4.94533082E+00 -2.16773471E-01  3.43562023E-01
 -3.31973879E+00 -3.33254168E+00  2.36324170E-01 -9.47350729E-01  2.51474838E+00
 -1.15052961E-01  1.52781795E+00 -3.31007479E+00 -6.07253817E-01  3.71789689E+00
  1.95563440E+00  6.02185102E-01  5.48602069E+00 -1.03126748E+00  1.40977263E-01
Force Field                                I                0
Int Atom Types                             I   N=          10
           0           0           0           0           0           0
           0           0           0           0
MM charges                                 R   N=          10
  0.00000000E+00  0.00000000E+00  0.00000000E+00  0.00000000E+00  0.00000000E+00
  0.00000000E+00  0.00000000E+00  0.00000000E+00  0.00000000E+00  0.00000000E+00
Integer atomic weights                     I   N=          10
          12          12          12          12           1           1
          19           1           1           1
Real atomic weights                        R   N=          10
  1.20000000E+01  1.20000000E+01  1.20000000E+01  1.20000000E+01  1.00782504E+00
  1.00782504E+00  1.89984032E+01  1.00782504E+00  1.00782504E+00  1.00782504E+00
Atom fragment info                         I   N=          10
           0           0           0           0           0           0
           0           0           0           0
Atom residue num                           I   N=          10
           0           0           0           0           0           0
           0           0           0           0
Nuclear spins                              I   N=          10
           0           0           0           0           1           1
           1           1           1           1
Nuclear ZEff                               R   N=          10
 -3.60000000E+00 -3.60000000E+00 -3.60000000E+00 -3.60000000E+00 -1.00000000E+00
 -1.00000000E+00 -6.75000000E+00 -1.00000000E+00 -1.00000000E+00 -1.00000000E+00
Nuclear ZNuc                               R   N=          10
  6.00000000E+00  6.00000000E+00  6.00000000E+00  6.00000000E+00  1.00000000E+00
  1.00000000E+00  9.00000000E+00  1.00000000E+00  1.00000000E+00  1.00000000E+00
Nuclear QMom                               R   N=          10
  0.00000000E+00  0.00000000E+00  0.00000000E+00  0.00000000E+00  0.00000000E+00
  0.00000000E+00  0.00000000E+00  0.00000000E+00  0.00000000E+00  0.00000000E+00
Nuclear GFac                               R   N=          10
  0.00000000E+00  0.00000000E+00  0.00000000E+00  0.00000000E+00  2.79284600E+00
  2.79284600E+00  2.62886700E+00  2.79284600E+00  2.79284600E+00  2.79284600E+00
MicOpt                                     I   N=          10
          -1          -1          -1          -1          -1          -1
          -1          -1          -1          -1
Number of contracted shells                I               30
Number of primitive shells                 I               75
Pure/Cartesian d shells                    I                1
Pure/Cartesian f shells                    I                0
Highest angular momentum                   I                1
Largest degree of contraction              I                6
Shell types                                I   N=          30
           0          -1          -1          -1           0          -1
          -1          -1           0          -1          -1          -1
           0          -1          -1          -1           0           0
           0           0           0          -1          -1          -1
           0           0           0           0           0           0
Number of primitives per shell             I   N=          30
           6           3           1           1           6           3
           1           1           6           3           1           1
           6           3           1           1           3           1
           3           1           6           3           1           1
           3           1           3           1           3           1
Shell to atom map                          I   N=          30
           1           1           1           1           2           2
           2           2           3           3           3           3
           4           4           4           4           5           5
           6           6           7           7           7           7
           8           8           9           9          10          10
Primitive exponents                        R   N=          75
  3.04752488E+03  4.57369518E+02  1.03948685E+02  2.92101553E+01  9.28666296E+00
  3.16392696E+00  7.86827235E+00  1.88128854E+00  5.44249258E-01  1.68714478E-01
  4.38000000E-02  3.04752488E+03  4.57369518E+02  1.03948685E+02  2.92101553E+01
  9.28666296E+00  3.16392696E+00  7.86827235E+00  1.88128854E+00  5.44249258E-01
  1.68714478E-01  4.38000000E-02  3.04752488E+03  4.57369518E+02  1.03948685E+02
  2.92101553E+01  9.28666296E+00  3.16392696E+00  7.86827235E+00  1.88128854E+00
  5.44249258E-01  1.68714478E-01  4.38000000E-02  3.04752488E+03  4.57369518E+02
  1.03948685E+02  2.92101553E+01  9.28666296E+00  3.16392696E+00  7.86827235E+00
  1.88128854E+00  5.44249258E-01  1.68714478E-01  4.38000000E-02  1.87311370E+01
  2.82539436E+00  6.40121692E-01  1.61277759E-01  1.87311370E+01  2.82539436E+00
  6.40121692E-01  1.61277759E-01  7.00171309E+03  1.05136609E+03  2.39285690E+02
  6.73974453E+01  2.15199573E+01  7.40310130E+00  2.08479528E+01  4.80830834E+00
  1.34406986E+00  3.58151393E-01  1.07600000E-01  1.87311370E+01  2.82539436E+00
  6.40121692E-01  1.61277759E-01  1.87311370E+01  2.82539436E+00  6.40121692E-01
  1.61277759E-01  1.87311370E+01  2.82539436E+00  6.40121692E-01  1.61277759E-01
Contraction coefficients                   R   N=          75
  1.83473713E-03  1.40373228E-02  6.88426223E-02  2.32184443E-01  4.67941348E-01
  3.62311985E-01 -1.19332420E-01 -1.60854152E-01  1.14345644E+00  1.00000000E+00
  1.00000000E+00  1.83473713E-03  1.40373228E-02  6.88426223E-02  2.32184443E-01
  4.67941348E-01  3.62311985E-01 -1.19332420E-01 -1.60854152E-01  1.14345644E+00
  1.00000000E+00  1.00000000E+00  1.83473713E-03  1.40373228E-02  6.88426223E-02
  2.32184443E-01  4.67941348E-01  3.62311985E-01 -1.19332420E-01 -1.60854152E-01
  1.14345644E+00  1.00000000E+00  1.00000000E+00  1.83473713E-03  1.40373228E-02
  6.88426223E-02  2.32184443E-01  4.67941348E-01  3.62311985E-01 -1.19332420E-01
 -1.60854152E-01  1.14345644E+00  1.00000000E+00  1.00000000E+00  3.34946043E-02
  2.34726953E-01  8.13757326E-01  1.00000000E+00  3.34946043E-02  2.34726953E-01
  8.13757326E-01  1.00000000E+00  1.81961690E-03  1.39160796E-02  6.84053245E-02
  2.33185760E-01  4.71267439E-01  3.56618546E-01 -1.08506975E-01 -1.46451658E-01
  1.12868858E+00  1.00000000E+00  1.00000000E+00  3.34946043E-02  2.34726953E-01
  8.13757326E-01  1.00000000E+00  3.34946043E-02  2.34726953E-01  8.13757326E-01
  1.00000000E+00  3.34946043E-02  2.34726953E-01  8.13757326E-01  1.00000000E+00
P(S=P) Contraction coefficients            R   N=          75
  0.00000000E+00  0.00000000E+00  0.00000000E+00  0.00000000E+00  0.00000000E+00
  0.00000000E+00  6.89990666E-02  3.16423961E-01  7.44308291E-01  1.00000000E+00
  1.00000000E+00  0.00000000E+00  0.00000000E+00  0.00000000E+00  0.00000000E+00
  0.00000000E+00  0.00000000E+00  6.89990666E-02  3.16423961E-01  7.44308291E-01
  1.00000000E+00  1.00000000E+00  0.00000000E+00  0.00000000E+00  0.00000000E+00
  0.00000000E+00  0.00000000E+00  0.00000000E+00  6.89990666E-02  3.16423961E-01
  7.44308291E-01  1.00000000E+00  1.00000000E+00  0.00000000E+00  0.00000000E+00
  0.00000000E+00  0.00000000E+00  0.00000000E+00  0.00000000E+00  6.89990666E-02
  3.16423961E-01  7.44308291E-01  1.00000000E+00  1.00000000E+00  0.00000000E+00
  0.00000000E+00  0.00000000E+00  0.00000000E+00  0.00000000E+00  0.00000000E+00
  0.00000000E+00  0.00000000E+00  0.00000000E+00  0.00000000E+00  0.00000000E+00
  0.00000000E+00  0.00000000E+00  0.00000000E+00  7.16287242E-02  3.45912103E-01
  7.22469956E-01  1.00000000E+00  1.00000000E+00  0.00000000E+00  0.00000000E+00
  0.00000000E+00  0.00000000E+00  0.00000000E+00  0.00000000E+00  0.00000000E+00
  0.00000000E+00  0.00000000E+00  0.00000000E+00  0.00000000E+00  0.00000000E+00
Coordinates of each shell                  R   N=          90
 -3.21222072E+00 -1.28957840E+00  1.81947786E-01 -3.21222072E+00 -1.28957840E+00
  1.81947786E-01 -3.21222072E+00 -1.28957840E+00  1.81947786E-01 -3.21222072E+00
 -1.28957840E+00  1.81947786E-01 -9.86640895E-01 -1.48945383E-01 -9.74920936E-02
 -9.86640895E-01 -1.48945383E-01 -9.74920936E-02 -9.86640895E-01 -1.48945383E-01
 -9.74920936E-02 -9.86640895E-01 -1.48945383E-01 -9.74920936E-02  1.52233750E+00
 -1.29003300E+00 -2.33912842E-01  1.52233750E+00 -1.29003300E+00 -2.33912842E-01
  1.52233750E+00 -1.29003300E+00 -2.33912842E-01  1.52233750E+00 -1.29003300E+00
 -2.33912842E-01  3.68643922E+00 -5.43952843E-02  2.02737468E-01  3.68643922E+00
 -5.43952843E-02  2.02737468E-01  3.68643922E+00 -5.43952843E-02  2.02737468E-01
  3.68643922E+00 -5.43952843E-02  2.02737468E-01 -4.94533082E+00 -2.16773471E-01
  3.43562023E-01 -4.94533082E+00 -2.16773471E-01  3.43562023E-01 -3.31973879E+00
 -3.33254168E+00  2.36324170E-01 -3.31973879E+00 -3.33254168E+00  2.36324170E-01
 -9.47350729E-01  2.51474838E+00 -1.15052961E-01 -9.47350729E-01  2.51474838E+00
 -1.15052961E-01 -9.47350729E-01  2.51474838E+00 -1.15052961E-01 -9.47350729E-01
  2.51474838E+00 -1.15052961E-01  1.52781795E+00 -3.31007479E+00 -6.07253817E-01
  1.52781795E+00 -3.31007479E+00 -6.07253817E-01  3.71789689E+00  1.95563440E+00
  6.02185102E-01  3.71789689E+00  1.95563440E+00  6.02185102E-01  5.48602069E+00
 -1.03126748E+00  1.40977263E-01  5.48602069E+00 -1.03126748E+00  1.40977263E-01
Constraint Structure                       R   N=          30
 -3.22630257E+00 -1.28964256E+00  1.80472376E-01 -9.83715612E-01 -1.59648345E-01
 -1.03838810E-01  1.52092191E+00 -1.29248208E+00 -2.32064287E-01  3.70001028E+00
 -5.77082279E-02  1.98821617E-01 -4.95262992E+00 -2.04582871E-01  3.46371434E-01
 -3.35377562E+00 -3.33283715E+00  2.29728088E-01 -9.47232978E-01  2.52674476E+00
 -1.10067347E-01  1.52645535E+00 -3.31868612E+00 -5.80662067E-01  3.74290108E+00
  1.95581765E+00  5.81959811E-01  5.49666188E+00 -1.04352705E+00  1.52863478E-01
Num ILSW                                   I              100
ILSW                                       I   N=         100
           0           1           0           0           2           0
           0           0           0           0        4639          -1
           0           0           0           0           2           0
           0           0           0           0           1           0
           1           0           0           0           0           0
           0           0      100000           0          -1           0
           0           0           0           0           0           0
           0           0           0           1           0           0
           0           0           1           0           0           0
           0           0         121          41           0           0
           0           0          58           0           0           0
           0           0           0          10           0           0
           0           0           0           0           0           0
           0           0           0           0           0           0
           0           0           0           0           0           0
           0           0           0           0           0           0
           0           0           0           0
Num RLSW                                   I               41
RLSW                                       R   N=          41
  1.00000000E+00  1.00000000E+00  1.00000000E+00  1.00000000E+00  1.00000000E+00
  0.00000000E+00  2.00000000E-01  2.22036000E-01  0.00000000E+00  7.77964000E-01
  0.00000000E+00  2.00000000E-01  0.00000000E+00  0.00000000E+00  1.00000000E+00
  0.00000000E+00  0.00000000E+00  1.00000000E+00  0.00000000E+00  0.00000000E+00
  0.00000000E+00  0.00000000E+00  1.00000000E+00  0.00000000E+00  0.00000000E+00
  0.00000000E+00  0.00000000E+00  1.00000000E+00  0.00000000E+00  0.00000000E+00
  0.00000000E+00  0.00000000E+00  1.00000000E+00  0.00000000E+00  0.00000000E+00
  0.00000000E+00  0.00000000E+00  0.00000000E+00  1.00000000E+00  1.00000000E+00
  0.00000000E+00
MxBond                                     I                3
NBond                                      I   N=          10
           3           3           3           3           1           1
           1           1           1           1
IBond                                      I   N=          30
           2           5           6           1           3           7
           2           4           8           3           9          10
           1           0           0           1           0           0
           2           0           0           3           0           0
           4           0           0           4           0           0
RBond                                      R   N=          30
  2.00000000E+00  1.00000000E+00  1.00000000E+00  2.00000000E+00  1.00000000E+00
  1.00000000E+00  1.00000000E+00  2.00000000E+00  1.00000000E+00  2.00000000E+00
  1.00000000E+00  1.00000000E+00  1.00000000E+00  0.00000000E+00  0.00000000E+00
  1.00000000E+00  0.00000000E+00  0.00000000E+00  1.00000000E+00  0.00000000E+00
  0.00000000E+00  1.00000000E+00  0.00000000E+00  0.00000000E+00  1.00000000E+00
  0.00000000E+00  0.00000000E+00  1.00000000E+00  0.00000000E+00  0.00000000E+00
Virial Ratio                               R      2.005618501461148E+00
SCF Energy                                 R     -2.551008756305886E+02
Total Energy                               R     -2.551008756305886E+02
RMS Force                                  R      1.237830816778979E-03
RMS Density                                R      9.213677828973204E-09
External E-field                           R   N=          35
  0.00000000E+00  0.00000000E+00  0.00000000E+00  0.00000000E+00  0.00000000E+00
  0.00000000E+00  0.00000000E+00  0.00000000E+00  0.00000000E+00  0.00000000E+00
  0.00000000E+00  0.00000000E+00  0.00000000E+00  0.00000000E+00  0.00000000E+00
  0.00000000E+00  0.00000000E+00  0.00000000E+00  0.00000000E+00  0.00000000E+00
  0.00000000E+00  0.00000000E+00  0.00000000E+00  0.00000000E+00  0.00000000E+00
  0.00000000E+00  0.00000000E+00  0.00000000E+00  0.00000000E+00  0.00000000E+00
  0.00000000E+00  0.00000000E+00  0.00000000E+00  0.00000000E+00  0.00000000E+00
IOpCl                                      I                0
IROHF                                      I                0
Alpha Orbital Energies                     R   N=          75
 -2.48326414E+01 -1.04034525E+01 -1.03290626E+01 -1.03139902E+01 -1.03115202E+01
 -1.31339260E+00 -9.28252620E-01 -8.65081905E-01 -7.31837680E-01 -6.65771987E-01
 -6.03305086E-01 -5.86840815E-01 -5.46232149E-01 -5.32980505E-01 -5.03966009E-01
 -4.82077658E-01 -4.57480534E-01 -4.10604630E-01 -3.28428201E-01  1.82603837E-02
  6.79225314E-02  8.06924859E-02  9.81886510E-02  1.03787441E-01  1.14409335E-01
  1.21203493E-01  1.28859950E-01  1.43011193E-01  1.51685400E-01  1.62094145E-01
  1.65668764E-01  1.88543541E-01  1.98163072E-01  2.01464208E-01  2.20699649E-01
  2.22886135E-01  2.45952142E-01  2.61540117E-01  2.87816988E-01  3.02059610E-01
  3.04620340E-01  3.25878818E-01  3.89236205E-01  4.09162044E-01  4.22121309E-01
  4.36701161E-01  4.53796453E-01  4.93068313E-01  5.00900706E-01  5.35043795E-01
  6.94628614E-01  7.41544896E-01  7.70345873E-01  7.86530217E-01  8.23097448E-01
  8.31095998E-01  8.46171865E-01  8.89254409E-01  9.26204026E-01  9.99500244E-01
  1.03178869E+00  1.03864623E+00  1.10764049E+00  1.14197131E+00  1.15764715E+00
  1.19856543E+00  1.25488219E+00  1.29255248E+00  1.34336324E+00  1.42387965E+00
  1.46968376E+00  1.66198150E+00  1.82428345E+00  1.86072230E+00  2.39434135E+00
Alpha MO coefficients                      R   N=        5625
  3.47396767E-06 -1.12708890E-04 -3.35376726E-05  3.92909660E-05  8.34363992E-06
  2.27547509E-03  2.14346057E-03 -2.85016179E-03 -3.02411391E-04  5.13948530E-03
  1.54800163E-03  6.13992807E-04  6.37089654E-05 -4.65376863E-06  5.65496750E-04
 -1.41588985E-05  4.33172514E-04 -2.87678554E-05 -1.16895169E-03  1.87595377E-05
  6.03454825E-03  1.71688879E-04 -1.55640526E-02 -2.43081151E-03 -1.07958627E-03
 -1.55184755E-04  1.54525409E-05 -6.17003381E-06  1.40592248E-04  4.49431897E-05
  2.11330188E-05  6.40392485E-04 -3.07780174E-03 -2.78896914E-03 -3.67998154E-04
  8.75064517E-03 -1.15995147E-04  1.48212215E-03 -2.93036691E-04  7.39672391E-06
  1.13860001E-04 -1.41160688E-04 -3.62131344E-05 -1.84343786E-05  2.77684628E-03
 -5.47656357E-04 -5.87336473E-04 -2.71489848E-04 -7.45621968E-04 -2.71143222E-04
  5.60964016E-04  4.75744827E-04  3.24385949E-04  1.09596446E-03 -3.11480568E-04
 -1.88757074E-03  9.95032268E-01  2.77007986E-02  8.59519118E-06 -1.33994748E-03
  2.17662397E-05 -1.58826523E-02 -4.62846954E-05  2.49845670E-03 -5.26216339E-05
  7.43770764E-03  2.52209594E-04 -8.52013748E-04  2.76004537E-05 -2.94107564E-04
 -1.49048400E-03  2.48458491E-05 -4.59709258E-04 -7.83275015E-05 -3.87537112E-04
  4.64930133E-03 -1.23431686E-03 -8.08906217E-04 -2.99768325E-04  1.10016816E-04
  9.11572946E-03  4.45465471E-03  1.73783973E-04 -4.70100491E-04 -2.43692743E-02
 -5.97741577E-03 -2.66800746E-03  4.86110913E-04  9.95515018E-01  3.64857478E-02
 -1.25376219E-04  1.15663746E-03  7.63021789E-05 -3.77158924E-02 -6.26597465E-04
  1.09346006E-03 -3.03844216E-04  4.65062068E-02  1.01475129E-05 -6.67425524E-03
  5.69400943E-04  1.89710452E-03 -1.01315594E-03  5.75625923E-04 -2.52831676E-04
 -1.30315867E-05  8.18552034E-03 -4.71822723E-03  1.63370291E-03  2.58010502E-04
 -1.20520369E-02  8.02360698E-03 -1.49395880E-03  4.08978345E-04 -3.95208690E-05
 -1.92948148E-04  2.93638308E-05  1.11422264E-04 -2.40392156E-05  4.74746397E-04
  7.84380430E-04 -1.01849288E-03 -4.83025271E-05 -9.29808202E-03  1.92655981E-03
  1.84508917E-03  1.15544689E-04 -4.69677789E-05  5.37030974E-04 -3.47561379E-04
 -1.06526068E-03  4.37264003E-05  7.69083276E-04 -3.08533463E-06 -7.57589941E-05
 -9.31674297E-07 -1.08122115E-03  1.92439622E-05  8.44242846E-04  5.08548802E-06
  7.93208849E-03  1.00835290E-04 -5.20927021E-03  1.07434188E-04 -1.90892502E-04
 -2.21575914E-04  4.62769908E-05  1.59039540E-04 -1.33754618E-04 -1.21436268E-04
 -3.96322767E-04 -3.26070694E-04 -7.61002169E-05 -4.02725014E-05 -2.09278584E-05
  2.78081921E-03  5.43104353E-04  1.72647909E-03 -1.31514127E-04  3.32622719E-03
  6.87152439E-04 -5.61710885E-04 -8.29464930E-04 -1.94219989E-03 -1.17568714E-03
 -7.76544916E-04  3.04197413E-04  9.42249389E-05  8.20765327E-03  7.80106455E-03
 -1.40339362E-03 -4.47138309E-04 -3.46201185E-02 -6.93509645E-03  2.60201652E-03
  7.67677354E-04  9.95032653E-01  3.64706579E-02 -4.76502836E-05  4.54958937E-04
  1.59373040E-04 -3.75379258E-02  9.56971213E-04 -5.74698370E-03 -1.28847753E-03
  8.44597406E-02  3.67938516E-03  1.54847727E-02  3.54620130E-03  2.76775178E-02
 -3.51982185E-04  7.84179268E-04  4.28312606E-04  1.61812535E-04  9.54240413E-03
 -5.61133079E-03 -8.02916379E-04 -6.36754877E-04 -5.14541990E-02  1.14837332E-02
  4.52844660E-03  1.93038035E-03 -1.34875243E-04 -7.11096879E-05 -5.43927521E-06
  6.76206058E-04  4.42903470E-06 -6.81786794E-05 -4.24666937E-05  1.06503413E-04
  1.24229734E-05 -3.45646031E-04 -1.15465769E-04 -1.17008214E-04 -1.44303943E-05
  1.05680974E-04 -8.87479203E-04  3.51972876E-04  2.07623578E-05 -7.15413072E-04
  2.67407918E-03 -4.72390917E-04 -3.55762966E-04 -1.29626508E-04  1.45839636E-03
 -2.66023323E-03 -4.89026993E-04  2.39032597E-05  6.84874839E-05  1.86028188E-05
  2.70374829E-03  1.01773533E-03  2.17460905E-04 -1.64578129E-04 -1.94386974E-02
 -2.12501279E-03 -3.25249394E-03  6.25478968E-04  7.81370134E-05 -1.24950673E-04
 -1.97334421E-04 -4.53825377E-06 -2.88341693E-06 -1.33158389E-03  1.61063105E-03
 -2.57642253E-06 -2.65489642E-04 -2.78740047E-02 -2.15667517E-02  1.13579863E-03
  1.05906842E-03 -2.79356273E-02 -2.27703642E-03 -9.91336964E-04 -6.46951003E-04
 -2.25729680E-04  9.63320611E-03  5.06556014E-03  2.61215617E-03  1.06330323E-03
  2.44813393E-02 -1.37353819E-02  6.32868451E-03 -9.60474515E-05  9.94944029E-01
  3.54917245E-02 -4.58541254E-04 -3.01287054E-04 -1.40596117E-04 -3.11092645E-02
  3.49738589E-03  2.08288592E-03  7.74452953E-04  2.33894561E-02 -6.97829372E-03
 -3.87454067E-03 -1.21947444E-03 -2.59709146E-05  4.92590241E-05 -1.12519325E-04
 -1.01521886E-04  8.96804944E-06  1.16159255E-04  1.48156141E-05  2.04983873E-05
 -1.00453558E-05 -5.64501853E-04 -3.19023045E-04 -1.08652914E-05  3.52398790E-05
  1.98978586E-03  3.32200209E-04 -5.31842408E-04  4.94400831E-05 -1.37057673E-04
  1.07478766E-04 -6.01156726E-04  3.63270802E-03 -7.18241481E-04  4.22267030E-03
  9.95297675E-01  3.57199746E-02  6.15535371E-04  2.31171466E-04 -1.14732180E-04
 -3.27699409E-02 -4.34858886E-03 -1.84547498E-03  5.98913054E-04  4.26857274E-03
  3.35159856E-03  2.38074293E-03 -1.35314391E-04 -4.94423203E-03 -1.64123468E-03
  1.17217634E-03  5.65527431E-04 -1.55285701E-04  1.04066692E-02 -6.23560431E-03
 -3.55327989E-03  8.35850861E-04  3.73626580E-02  6.39755898E-03 -1.04947630E-02
 -9.97257826E-04  2.68770644E-04 -2.28540213E-04  1.40458201E-04  2.03329852E-05
 -4.43533182E-06  2.05894576E-05 -4.70040904E-04  5.09499186E-04 -1.70514397E-04
 -2.66686864E-02  1.94750780E-02 -9.49026134E-04  2.63247801E-04  2.58455085E-03
 -2.87176684E-04  3.13504783E-05 -3.51622937E-05  1.68239329E-05  1.33715403E-03
 -7.30836464E-04  1.32460307E-04 -3.46572144E-05 -1.43473069E-02  6.94677969E-04
  3.50918076E-03  8.16995593E-04 -7.28167626E-04  4.23275949E-03 -6.13482818E-04
  4.17106800E-03  5.16085660E-07 -1.11970118E-04  3.09220613E-05  1.49271894E-04
 -7.88885114E-06 -1.48857891E-05  1.25226100E-04 -5.31521909E-04  5.73771480E-06
  1.22351236E-03  4.38194632E-04  5.35544390E-04 -1.21280148E-04 -1.28111712E-04
  7.60205043E-04 -7.69452581E-05 -2.41292605E-04  2.66867299E-06  2.33501698E-04
 -9.74596248E-03  1.94982724E-02  1.17325478E-02  1.10327229E-02 -1.51757973E-03
 -1.54875171E-02 -2.38668633E-02  3.26557589E-02  2.92431259E-03 -7.86532309E-02
 -2.04271684E-02 -3.99849699E-03  2.02229070E-03 -5.95805029E-02  1.15418857E-01
  1.03969689E-03  9.75663715E-02  1.51284907E-04  4.64514545E-02  7.55662337E-03
 -7.31344631E-02 -1.33258437E-03  1.67888699E-01  7.19528216E-03 -1.53077977E-02
 -1.88182485E-05 -8.87831796E-03  1.71150235E-02 -1.06107971E-02  9.99030170E-03
  6.35546989E-04 -1.05077406E-02  3.44746033E-02  2.24572440E-02  2.27358976E-03
 -7.96328699E-02  1.76729431E-02 -1.02161906E-02  2.34245483E-03 -2.92590323E-03
  2.76155855E-03 -2.40872592E-03  2.81062415E-04 -2.73286676E-04 -2.04020288E-02
  3.49921874E-04  1.10579242E-02  3.33576296E-03 -1.61613875E-03 -4.09366978E-04
  7.71914443E-04 -2.22638006E-03  7.09555265E-04 -1.42957347E-02  3.80545030E-03
  1.95536150E-02 -2.25566756E-01  4.77615171E-01 -2.21441662E-04 -9.88046460E-02
  1.21317067E-03  5.47664300E-01 -1.30237621E-04 -8.06082617E-02  1.27059844E-03
 -7.65632887E-04 -1.36784822E-03  9.43897657E-03 -8.77032897E-05  3.42258787E-03
  1.18016283E-02  1.36037737E-03 -8.70623526E-04  1.25039635E-03  6.55788978E-03
 -9.05245302E-02  1.73475297E-01  7.82385824E-02  2.31412056E-02 -8.79063823E-03
  1.55580184E-01  1.74196635E-02  6.32702400E-03 -3.75007245E-03  3.29776597E-02
  4.76913070E-03  6.80240693E-03  1.53416485E-03 -1.26351381E-01  2.57067229E-01
  1.21404294E-02 -8.88047953E-02  6.74347041E-03  1.60597774E-01  3.90889848E-02
  1.33866032E-02  1.01519896E-04 -4.26236433E-03  1.77689376E-02  2.83884601E-03
 -2.74054525E-03 -1.38664737E-01  2.71999243E-01 -1.55533419E-02  4.44301475E-02
  1.48170372E-02  1.67012129E-01 -2.19785456E-02 -2.69011430E-02 -2.85036006E-03
 -1.21755234E-01 -1.48410780E-02 -3.03159821E-02 -7.40544937E-03 -8.88477010E-02
  1.71389651E-01 -7.17739402E-02 -3.45892420E-02 -1.22911580E-02  1.45808589E-01
 -1.16117512E-02 -5.40487650E-03 -3.18864638E-03  9.51240063E-02 -1.99912114E-02
 -6.73347909E-03 -2.20959520E-03  3.76893478E-02  1.96517080E-03  4.67662947E-02
  7.60211837E-03  4.96108025E-02 -1.10933080E-01  6.34761075E-03 -6.25057378E-02
  1.46425240E-03 -1.45240495E-01  5.34346775E-04 -2.57998998E-02  6.57927570E-04
 -2.44726064E-02 -1.86246191E-04  7.81176711E-03 -8.50888460E-05  6.97918468E-02
 -1.32522418E-03  4.10674965E-02  2.68821270E-03  3.94844490E-02  1.25509025E-03
 -1.34694893E-01  2.60032408E-01  7.05024513E-02  3.93562966E-02 -1.01109241E-02
  1.91181739E-01 -4.22532240E-04 -5.84401301E-03  4.11942721E-04 -1.10033279E-01
 -2.38432292E-02 -9.40610102E-03  3.65662623E-03 -8.00094209E-02  1.66167097E-01
 -1.69706461E-01 -5.42833905E-02  1.55763781E-02  1.09459574E-01 -4.07549800E-02
 -7.54159627E-03  2.72875814E-03  1.21827803E-02 -5.06535156E-02 -7.96060134E-03
  5.09153195E-03  8.89548708E-02 -1.75851465E-01 -1.18024018E-01 -4.37190739E-02
 -1.49486380E-02 -1.18939420E-01 -2.58407020E-02  8.94343747E-03  2.39153007E-04
 -3.13610884E-02 -6.90170874E-02 -4.81610819E-04 -3.22656874E-03  1.21482017E-01
 -2.34901982E-01  6.10959799E-02  3.81687931E-02  1.41561677E-02 -1.83629248E-01
  6.19142530E-03 -8.99956805E-03 -1.34251956E-03  1.29172400E-01 -2.27341355E-02
 -1.91909183E-02 -7.99888343E-03  7.58840343E-02  1.65822739E-02  7.46865704E-02
  1.17176455E-02  2.25843136E-02 -5.22294961E-02 -4.37672689E-02 -4.70831063E-02
  2.79315828E-03 -6.18291238E-02 -2.19441953E-02 -2.55859088E-02  1.46842205E-03
 -1.61082374E-02 -4.36901423E-03  6.02447767E-03 -4.85608001E-04 -4.34557377E-02
 -1.80764435E-03 -6.54923329E-02 -4.39805650E-03 -6.87724287E-02 -1.84690203E-02
 -9.95893598E-02  1.95923621E-01 -6.53779207E-02  5.80484729E-03  6.74139918E-03
  1.95294543E-01 -2.22480262E-02  1.27281962E-03  1.94993384E-03  3.52671729E-02
  2.43294437E-03 -4.01276250E-03 -2.83819384E-03  6.90661599E-02 -1.48426718E-01
 -2.15444805E-01  1.00574160E-02  2.33870154E-02 -1.49245812E-01 -5.00165826E-02
  1.08765482E-02  6.02467526E-03 -8.45929671E-02 -3.21982068E-03  2.69279857E-02
  2.62851847E-03  6.48589857E-02 -1.33592986E-01  2.07843009E-01  1.17993137E-02
  1.76711696E-02 -1.19316165E-01  3.37150100E-02  5.74354725E-03  5.34733102E-03
  1.73160117E-01  1.04781411E-02  1.92094691E-02  6.39659620E-03 -1.20556410E-01
  2.40960271E-01  7.06491093E-02  5.28259023E-03  5.79651915E-03  2.33418884E-01
  3.20813557E-02 -4.95500506E-03  1.42006576E-03 -1.15137049E-01  3.31329733E-02
  1.08639630E-02  5.10210143E-03  1.07189954E-01  3.60337228E-02  8.19359899E-02
  2.96988032E-02 -2.16369943E-02  5.09947321E-02 -6.33938742E-02  1.02274739E-01
  9.11786717E-03  6.07412522E-02 -3.54012553E-02  5.82057304E-02  5.18450731E-03
  2.55584137E-02 -4.84429225E-04 -9.13076195E-03  8.15879510E-04 -5.90973066E-02
 -2.12565395E-02  1.01437519E-01  3.79207869E-02  1.23645000E-01  3.93257940E-02
 -4.28772176E-02  8.10391399E-02 -5.82339879E-02 -1.25977511E-01  6.64737053E-03
  1.09755349E-01  4.68322060E-03 -5.79370861E-02 -5.24548371E-04  9.59379950E-02
  1.76167175E-02 -4.29771989E-03 -2.91288721E-03  7.40184375E-02 -1.63927386E-01
  3.44233341E-02 -1.91640378E-01 -9.99188026E-03 -1.81891087E-01 -4.95714833E-03
 -1.82428957E-02 -2.09263233E-03 -1.87429370E-01  8.89614377E-03  5.36696336E-02
  2.13155617E-04 -7.31369404E-02  1.46564969E-01  6.70494133E-03 -1.63892900E-01
 -2.56260793E-02  1.63030021E-01 -3.72075985E-02 -7.47572213E-02 -1.15740689E-02
  1.21019952E-02 -5.90987211E-02 -1.62304564E-02 -4.52203785E-03  4.93943796E-02
 -9.85190775E-02 -5.15691054E-02 -1.01392085E-01 -2.29774874E-02 -8.20389311E-02
 -2.33589335E-02 -4.31886598E-02 -1.19079665E-02  8.36551895E-02 -1.44963440E-02
 -1.69965509E-02 -4.36113327E-03  3.54998543E-02  2.70531841E-02  1.03779692E-01
  4.20072660E-02 -5.53814928E-02  1.29814768E-01  3.75929593E-03  3.52266658E-01
 -9.28470224E-03  1.62651780E-01  2.06309837E-03  2.03341938E-01 -5.70998462E-03
  5.44619287E-02  7.86276047E-05 -2.24293269E-03 -5.28947278E-04  1.48765316E-01
  6.19655249E-02 -9.20949912E-02 -3.54119071E-02 -4.54225117E-02 -2.14024254E-02