 Entering Gaussian System, Link 0=/opt/cluster/programs/g09_d.01/g09//g09
 Input=/home/unibas/boittier/RDKit_G2/O.pdb/SCAN_1_2_6_8_S_17_20.0/2_SCAN_1_2_6_8_F/2_SCAN_O.pdb.com
 Output=/scratch/boittier/2_SCAN_O.pdb/2_SCAN_O.pdb.out
 Initial command:
 /opt/cluster/programs/g09_d.01/g09/l1.exe "/scratch/boittier/2_SCAN_O.pdb/Gau-181776.inp" -scrdir="/scratch/boittier/2_SCAN_O.pdb/"
 Entering Link 1 = /opt/cluster/programs/g09_d.01/g09/l1.exe PID=    181780.
  
 Copyright (c) 1988,1990,1992,1993,1995,1998,2003,2009,2013,
            Gaussian, Inc.  All Rights Reserved.
  
 This is part of the Gaussian(R) 09 program.  It is based on
 the Gaussian(R) 03 system (copyright 2003, Gaussian, Inc.),
 the Gaussian(R) 98 system (copyright 1998, Gaussian, Inc.),
 the Gaussian(R) 94 system (copyright 1995, Gaussian, Inc.),
 the Gaussian 92(TM) system (copyright 1992, Gaussian, Inc.),
 the Gaussian 90(TM) system (copyright 1990, Gaussian, Inc.),
 the Gaussian 88(TM) system (copyright 1988, Gaussian, Inc.),
 the Gaussian 86(TM) system (copyright 1986, Carnegie Mellon
 University), and the Gaussian 82(TM) system (copyright 1983,
 Carnegie Mellon University). Gaussian is a federally registered
 trademark of Gaussian, Inc.
  
 This software contains proprietary and confidential information,
 including trade secrets, belonging to Gaussian, Inc.
  
 This software is provided under written license and may be
 used, copied, transmitted, or stored only in accord with that
 written license.
  
 The following legend is applicable only to US Government
 contracts under FAR:
  
                    RESTRICTED RIGHTS LEGEND
  
 Use, reproduction and disclosure by the US Government is
 subject to restrictions as set forth in subparagraphs (a)
 and (c) of the Commercial Computer Software - Restricted
 Rights clause in FAR 52.227-19.
  
 Gaussian, Inc.
 340 Quinnipiac St., Bldg. 40, Wallingford CT 06492
  
  
 ---------------------------------------------------------------
 Warning -- This program may not be used in any manner that
 competes with the business of Gaussian, Inc. or will provide
 assistance to any competitor of Gaussian, Inc.  The licensee
 of this program is prohibited from giving any competitor of
 Gaussian, Inc. access to this program.  By using this program,
 the user acknowledges that Gaussian, Inc. is engaged in the
 business of creating and licensing software in the field of
 computational chemistry and represents and warrants to the
 licensee that it is not a competitor of Gaussian, Inc. and that
 it will not use this program in any manner prohibited above.
 ---------------------------------------------------------------
  

 Cite this work as:
 Gaussian 09, Revision D.01,
 M. J. Frisch, G. W. Trucks, H. B. Schlegel, G. E. Scuseria, 
 M. A. Robb, J. R. Cheeseman, G. Scalmani, V. Barone, B. Mennucci, 
 G. A. Petersson, H. Nakatsuji, M. Caricato, X. Li, H. P. Hratchian, 
 A. F. Izmaylov, J. Bloino, G. Zheng, J. L. Sonnenberg, M. Hada, 
 M. Ehara, K. Toyota, R. Fukuda, J. Hasegawa, M. Ishida, T. Nakajima, 
 Y. Honda, O. Kitao, H. Nakai, T. Vreven, J. A. Montgomery, Jr., 
 J. E. Peralta, F. Ogliaro, M. Bearpark, J. J. Heyd, E. Brothers, 
 K. N. Kudin, V. N. Staroverov, T. Keith, R. Kobayashi, J. Normand, 
 K. Raghavachari, A. Rendell, J. C. Burant, S. S. Iyengar, J. Tomasi, 
 M. Cossi, N. Rega, J. M. Millam, M. Klene, J. E. Knox, J. B. Cross, 
 V. Bakken, C. Adamo, J. Jaramillo, R. Gomperts, R. E. Stratmann, 
 O. Yazyev, A. J. Austin, R. Cammi, C. Pomelli, J. W. Ochterski, 
 R. L. Martin, K. Morokuma, V. G. Zakrzewski, G. A. Voth, 
 P. Salvador, J. J. Dannenberg, S. Dapprich, A. D. Daniels, 
 O. Farkas, J. B. Foresman, J. V. Ortiz, J. Cioslowski, 
 and D. J. Fox, Gaussian, Inc., Wallingford CT, 2013.
 
 ******************************************
 Gaussian 09:  ES64L-G09RevD.01 24-Apr-2013
                26-May-2021 
 ******************************************
 %chk=/home/unibas/boittier/RDKit_G2/O.pdb/SCAN_1_2_6_8_S_17_20.0/2_SCAN_1_2_6_8_
 F/O.pdb.chk
 %nproc=8
 Will use up to    8 processors via shared memory.
 %mem=16GB
 -----------------------------
 #p wB97XD/6-31+G Opt=ModRedun
 -----------------------------
 1/14=-1,18=120,19=15,26=3,38=1/1,3;
 2/9=110,12=2,17=6,18=5,40=1/2;
 3/5=1,6=6,7=10,11=2,16=1,25=1,30=1,71=1,74=-58/1,2,3;
 4//1;
 5/5=2,38=5/2;
 6/7=2,8=2,9=2,10=2,28=1/1;
 7//1,2,3,16;
 1/14=-1,18=20,19=15,26=3/3(2);
 2/9=110/2;
 99//99;
 2/9=110/2;
 3/5=1,6=6,7=10,11=2,16=1,25=1,30=1,71=1,74=-58/1,2,3;
 4/5=5,16=3,69=1/1;
 5/5=2,38=5/2;
 7//1,2,3,16;
 1/14=-1,18=20,19=15,26=3/3(-5);
 2/9=110/2;
 6/7=2,8=2,9=2,10=2,19=2,28=1/1;
 99/9=1/99;
 Leave Link    1 at Wed May 26 09:01:13 2021, MaxMem=  2147483648 cpu:         0.2
 (Enter /opt/cluster/programs/g09_d.01/g09/l101.exe)
 -----
 O.pdb
 -----
 Symbolic Z-matrix:
 Charge =  0 Multiplicity = 1
 C                     1.7204   -0.63546  -0.14529 
 C                     0.4967    0.18491   0.12099 
 H                     1.79754  -1.46553   0.56029 
 H                     2.61088  -0.00899  -0.09521 
 H                     1.63252  -1.06125  -1.15064 
 O                    -0.60624  -0.60011   0.36102 
 O                     0.4225    1.40814   0.02001 
 C                    -1.88447  -0.16496  -0.20268 
 H                    -2.192     0.78879   0.22896 
 H                    -2.58718  -0.95264   0.0572 
 H                    -1.78757  -0.07157  -1.28695 
 
 The following ModRedundant input section has been read:
 D       1       2       6       8 F                                           
 
 NAtoms=     11 NQM=       11 NQMF=       0 NMMI=      0 NMMIF=      0
                NMic=       0 NMicF=      0.
                    Isotopes and Nuclear Properties:
 (Nuclear quadrupole moments (NQMom) in fm**2, nuclear magnetic moments (NMagM)
  in nuclear magnetons)

  Atom         1           2           3           4           5           6           7           8           9          10
 IAtWgt=          12          12           1           1           1          16          16          12           1           1
 AtmWgt=  12.0000000  12.0000000   1.0078250   1.0078250   1.0078250  15.9949146  15.9949146  12.0000000   1.0078250   1.0078250
 NucSpn=           0           0           1           1           1           0           0           0           1           1
 AtZEff=   0.0000000   0.0000000   0.0000000   0.0000000   0.0000000   0.0000000   0.0000000   0.0000000   0.0000000   0.0000000
 NQMom=    0.0000000   0.0000000   0.0000000   0.0000000   0.0000000   0.0000000   0.0000000   0.0000000   0.0000000   0.0000000
 NMagM=    0.0000000   0.0000000   2.7928460   2.7928460   2.7928460   0.0000000   0.0000000   0.0000000   2.7928460   2.7928460
 AtZNuc=   6.0000000   6.0000000   1.0000000   1.0000000   1.0000000   8.0000000   8.0000000   6.0000000   1.0000000   1.0000000

  Atom        11
 IAtWgt=           1
 AtmWgt=   1.0078250
 NucSpn=           1
 AtZEff=   0.0000000
 NQMom=    0.0000000
 NMagM=    2.7928460
 AtZNuc=   1.0000000
 Leave Link  101 at Wed May 26 09:01:14 2021, MaxMem=  2147483648 cpu:         4.2
 (Enter /opt/cluster/programs/g09_d.01/g09/l103.exe)

 GradGradGradGradGradGradGradGradGradGradGradGradGradGradGradGradGradGrad
 Berny optimization.
 Initialization pass.
                           ----------------------------
                           !    Initial Parameters    !
                           ! (Angstroms and Degrees)  !
 --------------------------                            --------------------------
 ! Name  Definition              Value          Derivative Info.                !
 --------------------------------------------------------------------------------
 ! R1    R(1,2)                  1.4971         estimate D2E/DX2                !
 ! R2    R(1,3)                  1.0922         estimate D2E/DX2                !
 ! R3    R(1,4)                  1.0899         estimate D2E/DX2                !
 ! R4    R(1,5)                  1.0953         estimate D2E/DX2                !
 ! R5    R(2,6)                  1.3749         estimate D2E/DX2                !
 ! R6    R(2,7)                  1.2296         estimate D2E/DX2                !
 ! R7    R(6,8)                  1.4632         estimate D2E/DX2                !
 ! R8    R(8,9)                  1.0911         estimate D2E/DX2                !
 ! R9    R(8,10)                 1.0871         estimate D2E/DX2                !
 ! R10   R(8,11)                 1.0926         estimate D2E/DX2                !
 ! A1    A(2,1,3)              111.0573         estimate D2E/DX2                !
 ! A2    A(2,1,4)              110.1617         estimate D2E/DX2                !
 ! A3    A(2,1,5)              108.1006         estimate D2E/DX2                !
 ! A4    A(3,1,4)              110.4543         estimate D2E/DX2                !
 ! A5    A(3,1,5)              107.6491         estimate D2E/DX2                !
 ! A6    A(4,1,5)              109.3388         estimate D2E/DX2                !
 ! A7    A(1,2,6)              111.9546         estimate D2E/DX2                !
 ! A8    A(1,2,7)              125.4384         estimate D2E/DX2                !
 ! A9    A(6,2,7)              122.2712         estimate D2E/DX2                !
 ! A10   A(2,6,8)              117.6275         estimate D2E/DX2                !
 ! A11   A(6,8,9)              110.7187         estimate D2E/DX2                !
 ! A12   A(6,8,10)             104.8986         estimate D2E/DX2                !
 ! A13   A(6,8,11)             109.2841         estimate D2E/DX2                !
 ! A14   A(9,8,10)             110.8909         estimate D2E/DX2                !
 ! A15   A(9,8,11)             110.0517         estimate D2E/DX2                !
 ! A16   A(10,8,11)            110.8852         estimate D2E/DX2                !
 ! D1    D(3,1,2,6)            -43.8296         estimate D2E/DX2                !
 ! D2    D(3,1,2,7)            142.7293         estimate D2E/DX2                !
 ! D3    D(4,1,2,6)           -166.532          estimate D2E/DX2                !
 ! D4    D(4,1,2,7)             20.0269         estimate D2E/DX2                !
 ! D5    D(5,1,2,6)             74.0518         estimate D2E/DX2                !
 ! D6    D(5,1,2,7)            -99.3893         estimate D2E/DX2                !
 ! D7    D(1,2,6,8)           -140.6147         Frozen                          !
 ! D8    D(7,2,6,8)             33.0663         estimate D2E/DX2                !
 ! D9    D(2,6,8,9)            -63.6371         estimate D2E/DX2                !
 ! D10   D(2,6,8,10)           176.6839         estimate D2E/DX2                !
 ! D11   D(2,6,8,11)            57.7425         estimate D2E/DX2                !
 --------------------------------------------------------------------------------
 Trust Radius=3.00D-01 FncErr=1.00D-07 GrdErr=1.00D-06
 Number of steps in this run=     47 maximum allowed number of steps=    100.
 GradGradGradGradGradGradGradGradGradGradGradGradGradGradGradGradGradGrad

 Leave Link  103 at Wed May 26 09:01:14 2021, MaxMem=  2147483648 cpu:         0.1
 (Enter /opt/cluster/programs/g09_d.01/g09/l202.exe)
                          Input orientation:                          
 ---------------------------------------------------------------------
 Center     Atomic      Atomic             Coordinates (Angstroms)
 Number     Number       Type             X           Y           Z
 ---------------------------------------------------------------------
      1          6           0        1.720396   -0.635458   -0.145286
      2          6           0        0.496696    0.184910    0.120992
      3          1           0        1.797541   -1.465533    0.560290
      4          1           0        2.610879   -0.008988   -0.095209
      5          1           0        1.632521   -1.061248   -1.150644
      6          8           0       -0.606240   -0.600113    0.361017
      7          8           0        0.422498    1.408141    0.020006
      8          6           0       -1.884469   -0.164957   -0.202677
      9          1           0       -2.192000    0.788785    0.228955
     10          1           0       -2.587182   -0.952637    0.057204
     11          1           0       -1.787567   -0.071574   -1.286953
 ---------------------------------------------------------------------
                    Distance matrix (angstroms):
                    1          2          3          4          5
     1  C    0.000000
     2  C    1.497114   0.000000
     3  H    1.092160   2.146891   0.000000
     4  H    1.089923   2.134036   1.792406   0.000000
     5  H    1.095337   2.111887   1.765778   1.782801   0.000000
     6  O    2.381350   1.374897   2.562582   3.302639   2.740404
     7  O    2.426553   1.229633   3.231200   2.609701   2.988722
     8  C    3.635893   2.428398   3.978796   4.499337   3.751160
     9  H    4.180355   2.757790   4.594363   4.879464   4.466864
    10  H    4.323983   3.287611   4.443192   5.285219   4.390511
    11  H    3.731913   2.695543   4.267133   4.557466   3.563010
                    6          7          8          9         10
     6  O    0.000000
     7  O    2.282033   0.000000
     8  C    1.463209   2.801129   0.000000
     9  H    2.112135   2.694970   1.091103   0.000000
    10  H    2.034873   3.825288   1.087099   1.793939   0.000000
    11  H    2.095398   2.963458   1.092595   1.789346   1.795108
                   11
    11  H    0.000000
 Stoichiometry    C3H6O2
 Framework group  C1[X(C3H6O2)]
 Deg. of freedom    27
 Full point group                 C1      NOp   1
 Largest Abelian subgroup         C1      NOp   1
 Largest concise Abelian subgroup C1      NOp   1
                         Standard orientation:                         
 ---------------------------------------------------------------------
 Center     Atomic      Atomic             Coordinates (Angstroms)
 Number     Number       Type             X           Y           Z
 ---------------------------------------------------------------------
      1          6           0       -1.720396   -0.635458    0.145286
      2          6           0       -0.496696    0.184910   -0.120992
      3          1           0       -1.797541   -1.465533   -0.560290
      4          1           0       -2.610879   -0.008988    0.095209
      5          1           0       -1.632521   -1.061248    1.150644
      6          8           0        0.606240   -0.600113   -0.361017
      7          8           0       -0.422498    1.408141   -0.020006
      8          6           0        1.884469   -0.164957    0.202677
      9          1           0        2.192000    0.788785   -0.228955
     10          1           0        2.587182   -0.952637   -0.057204
     11          1           0        1.787567   -0.071574    1.286953
 ---------------------------------------------------------------------
 Rotational constants (GHZ):      9.3609738      4.0767289      3.0580854
 Leave Link  202 at Wed May 26 09:01:14 2021, MaxMem=  2147483648 cpu:         0.0
 (Enter /opt/cluster/programs/g09_d.01/g09/l301.exe)
 Standard basis: 6-31+G (6D, 7F)
 Ernie: Thresh=  0.10000D-02 Tol=  0.10000D-05 Strict=F.
 There are    77 symmetry adapted cartesian basis functions of A   symmetry.
 There are    77 symmetry adapted basis functions of A   symmetry.
    77 basis functions,   154 primitive gaussians,    77 cartesian basis functions
    20 alpha electrons       20 beta electrons
       nuclear repulsion energy       179.1448012568 Hartrees.
 IExCor= 4639 DFT=T Ex+Corr=wB97XD ExCW=0 ScaHFX=  1.000000
 ScaDFX=  1.000000  1.000000  1.000000  1.000000 ScalE2=  1.000000  1.000000
 IRadAn=      0 IRanWt=     -1 IRanGd=            0 ICorTp=0 IEmpDi=121
  HFx wShort=  0.000000 wLong=  0.200000 cFull=  0.222036 cShort=  0.000000 cLong=  0.777964
  DFx wShort=  0.000000 wLong=  0.200000 cFull=  0.000000 cShort=  0.000000 cLong=  1.000000
 NAtoms=   11 NActive=   11 NUniq=   11 SFac= 1.00D+00 NAtFMM=   60 NAOKFM=F Big=F
 Integral buffers will be    131072 words long.
 Raffenetti 2 integral format.
 Two-electron integral symmetry is turned on.
 R6Disp:  Grimme-D2 Dispersion energy=       -0.0031763503 Hartrees.
 Nuclear repulsion after empirical dispersion term =      179.1416249065 Hartrees.
 Leave Link  301 at Wed May 26 09:01:14 2021, MaxMem=  2147483648 cpu:         0.3
 (Enter /opt/cluster/programs/g09_d.01/g09/l302.exe)
 NPDir=0 NMtPBC=     1 NCelOv=     1 NCel=       1 NClECP=     1 NCelD=      1
         NCelK=      1 NCelE2=     1 NClLst=     1 CellRange=     0.0.
 One-electron integrals computed using PRISM.
 NBasis=    77 RedAO= T EigKep=  1.28D-04  NBF=    77
 NBsUse=    77 1.00D-06 EigRej= -1.00D+00 NBFU=    77
 Precomputing XC quadrature grid using
 IXCGrd= 4 IRadAn=           0 IRanWt=          -1 IRanGd=           0 AccXCQ= 0.00D+00.
 Generated NRdTot=       0 NPtTot=           0 NUsed=           0 NTot=          32
 NSgBfM=    77    77    77    77    77 MxSgAt=    11 MxSgA2=    11.
 Leave Link  302 at Wed May 26 09:01:14 2021, MaxMem=  2147483648 cpu:         0.9
 (Enter /opt/cluster/programs/g09_d.01/g09/l303.exe)
 DipDrv:  MaxL=1.
 Leave Link  303 at Wed May 26 09:01:14 2021, MaxMem=  2147483648 cpu:         0.3
 (Enter /opt/cluster/programs/g09_d.01/g09/l401.exe)
 ExpMin= 4.38D-02 ExpMax= 5.48D+03 ExpMxC= 8.25D+02 IAcc=2 IRadAn=         4 AccDes= 0.00D+00
 Harris functional with IExCor= 4639 and IRadAn=       4 diagonalized for initial guess.
 HarFok:  IExCor= 4639 AccDes= 0.00D+00 IRadAn=         4 IDoV= 1 UseB2=F ITyADJ=14
 ICtDFT=  3500011 ScaDFX=  1.000000  1.000000  1.000000  1.000000
 FoFCou: FMM=F IPFlag=           0 FMFlag=      100000 FMFlg1=           0
         NFxFlg=           0 DoJE=T BraDBF=F KetDBF=T FulRan=T
         wScrn=  0.000000 ICntrl=     500 IOpCl=  0 I1Cent=   200000004 NGrid=           0
         NMat0=    1 NMatS0=      1 NMatT0=    0 NMatD0=    1 NMtDS0=    0 NMtDT0=    0
 Petite list used in FoFCou.
 Harris En= -257.363187226735    
 JPrj=0 DoOrth=F DoCkMO=F.
 Leave Link  401 at Wed May 26 09:01:14 2021, MaxMem=  2147483648 cpu:         1.4
 (Enter /opt/cluster/programs/g09_d.01/g09/l502.exe)
 Closed shell SCF:
 Using DIIS extrapolation, IDIIS=  1040.
 Integral symmetry usage will be decided dynamically.
 Keep R1 ints in memory in canonical form, NReq=9956864.
 IVT=       37546 IEndB=       37546 NGot=  2147483648 MDV=  2138425091
 LenX=  2138425091 LenY=  2138418721
 Requested convergence on RMS density matrix=1.00D-08 within 128 cycles.
 Requested convergence on MAX density matrix=1.00D-06.
 Requested convergence on             energy=1.00D-06.
 No special actions if energy rises.
 FoFCou: FMM=F IPFlag=           0 FMFlag=           0 FMFlg1=           0
         NFxFlg=           0 DoJE=F BraDBF=F KetDBF=F FulRan=T
         wScrn=  0.000000 ICntrl=     600 IOpCl=  0 I1Cent=           0 NGrid=           0
         NMat0=    1 NMatS0=   3003 NMatT0=    0 NMatD0=    1 NMtDS0=    0 NMtDT0=    0
 Symmetry not used in FoFCou.

 Cycle   1  Pass 1  IDiag  1:
 E= -268.121010182603    
 DIIS: error= 2.80D-02 at cycle   1 NSaved=   1.
 NSaved= 1 IEnMin= 1 EnMin= -268.121010182603     IErMin= 1 ErrMin= 2.80D-02
 ErrMax= 2.80D-02  0.00D+00 EMaxC= 1.00D-01 BMatC= 1.43D-01 BMatP= 1.43D-01
 IDIUse=3 WtCom= 7.20D-01 WtEn= 2.80D-01
 Coeff-Com:  0.100D+01
 Coeff-En:   0.100D+01
 Coeff:      0.100D+01
 Gap=     0.523 Goal=   None    Shift=    0.000
 GapD=    0.523 DampG=2.000 DampE=0.500 DampFc=1.0000 IDamp=-1.
 RMSDP=1.03D-02 MaxDP=2.10D-01              OVMax= 9.82D-02

 Cycle   2  Pass 1  IDiag  1:
 E= -268.137141696451     Delta-E=       -0.016131513848 Rises=F Damp=F
 DIIS: error= 3.28D-02 at cycle   2 NSaved=   2.
 NSaved= 2 IEnMin= 2 EnMin= -268.137141696451     IErMin= 1 ErrMin= 2.80D-02
 ErrMax= 3.28D-02  0.00D+00 EMaxC= 1.00D-01 BMatC= 9.96D-02 BMatP= 1.43D-01
 IDIUse=3 WtCom= 6.72D-01 WtEn= 3.28D-01
 Coeff-Com:  0.447D+00 0.553D+00
 Coeff-En:   0.445D+00 0.555D+00
 Coeff:      0.447D+00 0.553D+00
 Gap=     0.434 Goal=   None    Shift=    0.000
 RMSDP=5.58D-03 MaxDP=8.04D-02 DE=-1.61D-02 OVMax= 7.64D-02

 Cycle   3  Pass 1  IDiag  1:
 E= -268.206344540443     Delta-E=       -0.069202843992 Rises=F Damp=F
 DIIS: error= 9.85D-03 at cycle   3 NSaved=   3.
 NSaved= 3 IEnMin= 3 EnMin= -268.206344540443     IErMin= 3 ErrMin= 9.85D-03
 ErrMax= 9.85D-03  0.00D+00 EMaxC= 1.00D-01 BMatC= 9.85D-03 BMatP= 9.96D-02
 IDIUse=3 WtCom= 9.02D-01 WtEn= 9.85D-02
 Coeff-Com:  0.102D+00 0.257D+00 0.641D+00
 Coeff-En:   0.000D+00 0.000D+00 0.100D+01
 Coeff:      0.923D-01 0.232D+00 0.676D+00
 Gap=     0.447 Goal=   None    Shift=    0.000
 RMSDP=1.58D-03 MaxDP=2.44D-02 DE=-6.92D-02 OVMax= 3.96D-02

 Cycle   4  Pass 1  IDiag  1:
 E= -268.212063814315     Delta-E=       -0.005719273872 Rises=F Damp=F
 DIIS: error= 4.20D-03 at cycle   4 NSaved=   4.
 NSaved= 4 IEnMin= 4 EnMin= -268.212063814315     IErMin= 4 ErrMin= 4.20D-03
 ErrMax= 4.20D-03  0.00D+00 EMaxC= 1.00D-01 BMatC= 2.20D-03 BMatP= 9.85D-03
 IDIUse=3 WtCom= 9.58D-01 WtEn= 4.20D-02
 Coeff-Com: -0.232D-02 0.521D-01 0.372D+00 0.578D+00
 Coeff-En:   0.000D+00 0.000D+00 0.179D+00 0.821D+00
 Coeff:     -0.223D-02 0.499D-01 0.364D+00 0.589D+00
 Gap=     0.422 Goal=   None    Shift=    0.000
 RMSDP=1.16D-03 MaxDP=2.23D-02 DE=-5.72D-03 OVMax= 1.12D-02

 Cycle   5  Pass 1  IDiag  1:
 E= -268.213638859167     Delta-E=       -0.001575044852 Rises=F Damp=F
 DIIS: error= 9.74D-04 at cycle   5 NSaved=   5.
 NSaved= 5 IEnMin= 5 EnMin= -268.213638859167     IErMin= 5 ErrMin= 9.74D-04
 ErrMax= 9.74D-04  0.00D+00 EMaxC= 1.00D-01 BMatC= 1.09D-04 BMatP= 2.20D-03
 IDIUse=3 WtCom= 9.90D-01 WtEn= 9.74D-03
 Coeff-Com: -0.590D-02 0.103D-01 0.153D+00 0.310D+00 0.532D+00
 Coeff-En:   0.000D+00 0.000D+00 0.000D+00 0.000D+00 0.100D+01
 Coeff:     -0.584D-02 0.102D-01 0.152D+00 0.307D+00 0.536D+00
 Gap=     0.419 Goal=   None    Shift=    0.000
 RMSDP=1.53D-04 MaxDP=2.21D-03 DE=-1.58D-03 OVMax= 2.44D-03

 Cycle   6  Pass 1  IDiag  1:
 E= -268.213726032226     Delta-E=       -0.000087173059 Rises=F Damp=F
 DIIS: error= 1.26D-04 at cycle   6 NSaved=   6.
 NSaved= 6 IEnMin= 6 EnMin= -268.213726032226     IErMin= 6 ErrMin= 1.26D-04
 ErrMax= 1.26D-04  0.00D+00 EMaxC= 1.00D-01 BMatC= 2.33D-06 BMatP= 1.09D-04
 IDIUse=3 WtCom= 9.99D-01 WtEn= 1.26D-03
 Coeff-Com: -0.172D-03-0.701D-02-0.289D-01-0.420D-01 0.444D-01 0.103D+01
 Coeff-En:   0.000D+00 0.000D+00 0.000D+00 0.000D+00 0.000D+00 0.100D+01
 Coeff:     -0.171D-03-0.700D-02-0.288D-01-0.419D-01 0.444D-01 0.103D+01
 Gap=     0.419 Goal=   None    Shift=    0.000
 RMSDP=1.85D-04 MaxDP=4.07D-03 DE=-8.72D-05 OVMax= 1.04D-03

 Cycle   7  Pass 1  IDiag  1:
 E= -268.213730386075     Delta-E=       -0.000004353850 Rises=F Damp=F
 DIIS: error= 4.59D-05 at cycle   7 NSaved=   7.
 NSaved= 7 IEnMin= 7 EnMin= -268.213730386075     IErMin= 7 ErrMin= 4.59D-05
 ErrMax= 4.59D-05  0.00D+00 EMaxC= 1.00D-01 BMatC= 2.54D-07 BMatP= 2.33D-06
 IDIUse=1 WtCom= 1.00D+00 WtEn= 0.00D+00
 Coeff-Com:  0.458D-03-0.300D-02-0.194D-01-0.366D-01-0.205D-01 0.314D+00
 Coeff-Com:  0.765D+00
 Coeff:      0.458D-03-0.300D-02-0.194D-01-0.366D-01-0.205D-01 0.314D+00
 Coeff:      0.765D+00
 Gap=     0.419 Goal=   None    Shift=    0.000
 RMSDP=3.13D-05 MaxDP=5.70D-04 DE=-4.35D-06 OVMax= 2.84D-04

 Cycle   8  Pass 1  IDiag  1:
 E= -268.213730813066     Delta-E=       -0.000000426991 Rises=F Damp=F
 DIIS: error= 1.41D-05 at cycle   8 NSaved=   8.
 NSaved= 8 IEnMin= 8 EnMin= -268.213730813066     IErMin= 8 ErrMin= 1.41D-05
 ErrMax= 1.41D-05  0.00D+00 EMaxC= 1.00D-01 BMatC= 1.73D-08 BMatP= 2.54D-07
 IDIUse=1 WtCom= 1.00D+00 WtEn= 0.00D+00
 Coeff-Com: -0.336D-04 0.892D-03 0.446D-02 0.543D-02-0.206D-02-0.138D+00
 Coeff-Com: -0.519D-01 0.118D+01
 Coeff:     -0.336D-04 0.892D-03 0.446D-02 0.543D-02-0.206D-02-0.138D+00
 Coeff:     -0.519D-01 0.118D+01
 Gap=     0.419 Goal=   None    Shift=    0.000
 RMSDP=1.06D-05 MaxDP=1.19D-04 DE=-4.27D-07 OVMax= 1.87D-04

 Cycle   9  Pass 1  IDiag  1:
 E= -268.213730865686     Delta-E=       -0.000000052620 Rises=F Damp=F
 DIIS: error= 2.62D-06 at cycle   9 NSaved=   9.
 NSaved= 9 IEnMin= 9 EnMin= -268.213730865686     IErMin= 9 ErrMin= 2.62D-06
 ErrMax= 2.62D-06  0.00D+00 EMaxC= 1.00D-01 BMatC= 5.10D-10 BMatP= 1.73D-08
 IDIUse=1 WtCom= 1.00D+00 WtEn= 0.00D+00
 Coeff-Com: -0.128D-04 0.282D-04 0.382D-03 0.868D-03 0.207D-02 0.418D-02
 Coeff-Com: -0.286D-01-0.147D+00 0.117D+01
 Coeff:     -0.128D-04 0.282D-04 0.382D-03 0.868D-03 0.207D-02 0.418D-02
 Coeff:     -0.286D-01-0.147D+00 0.117D+01
 Gap=     0.419 Goal=   None    Shift=    0.000
 RMSDP=2.31D-06 MaxDP=3.30D-05 DE=-5.26D-08 OVMax= 3.25D-05

 Cycle  10  Pass 1  IDiag  1:
 E= -268.213730867569     Delta-E=       -0.000000001883 Rises=F Damp=F
 DIIS: error= 7.42D-07 at cycle  10 NSaved=  10.
 NSaved=10 IEnMin=10 EnMin= -268.213730867569     IErMin=10 ErrMin= 7.42D-07
 ErrMax= 7.42D-07  0.00D+00 EMaxC= 1.00D-01 BMatC= 3.88D-11 BMatP= 5.10D-10
 IDIUse=1 WtCom= 1.00D+00 WtEn= 0.00D+00
 Coeff-Com:  0.462D-06-0.434D-04-0.185D-03-0.200D-03 0.448D-03 0.789D-02
 Coeff-Com: -0.195D-02-0.812D-01 0.176D+00 0.899D+00
 Coeff:      0.462D-06-0.434D-04-0.185D-03-0.200D-03 0.448D-03 0.789D-02
 Coeff:     -0.195D-02-0.812D-01 0.176D+00 0.899D+00
 Gap=     0.419 Goal=   None    Shift=    0.000
 RMSDP=4.41D-07 MaxDP=6.76D-06 DE=-1.88D-09 OVMax= 6.57D-06

 Cycle  11  Pass 1  IDiag  1:
 E= -268.213730867677     Delta-E=       -0.000000000108 Rises=F Damp=F
 DIIS: error= 2.87D-07 at cycle  11 NSaved=  11.
 NSaved=11 IEnMin=11 EnMin= -268.213730867677     IErMin=11 ErrMin= 2.87D-07
 ErrMax= 2.87D-07  0.00D+00 EMaxC= 1.00D-01 BMatC= 7.18D-12 BMatP= 3.88D-11
 IDIUse=1 WtCom= 1.00D+00 WtEn= 0.00D+00
 Coeff-Com:  0.143D-05-0.158D-04-0.982D-04-0.165D-03-0.155D-03 0.163D-02
 Coeff-Com:  0.276D-02-0.367D-02-0.101D+00 0.257D+00 0.844D+00
 Coeff:      0.143D-05-0.158D-04-0.982D-04-0.165D-03-0.155D-03 0.163D-02
 Coeff:      0.276D-02-0.367D-02-0.101D+00 0.257D+00 0.844D+00
 Gap=     0.419 Goal=   None    Shift=    0.000
 RMSDP=1.26D-07 MaxDP=1.98D-06 DE=-1.08D-10 OVMax= 3.27D-06

 Cycle  12  Pass 1  IDiag  1:
 E= -268.213730867698     Delta-E=       -0.000000000020 Rises=F Damp=F
 DIIS: error= 1.55D-07 at cycle  12 NSaved=  12.
 NSaved=12 IEnMin=12 EnMin= -268.213730867698     IErMin=12 ErrMin= 1.55D-07
 ErrMax= 1.55D-07  0.00D+00 EMaxC= 1.00D-01 BMatC= 4.91D-13 BMatP= 7.18D-12
 IDIUse=1 WtCom= 1.00D+00 WtEn= 0.00D+00
 Coeff-Com: -0.341D-06 0.744D-05 0.371D-04 0.518D-04-0.494D-04-0.119D-02
 Coeff-Com: -0.249D-03 0.102D-01-0.548D-02-0.142D+00-0.139D+00 0.128D+01
 Coeff:     -0.341D-06 0.744D-05 0.371D-04 0.518D-04-0.494D-04-0.119D-02
 Coeff:     -0.249D-03 0.102D-01-0.548D-02-0.142D+00-0.139D+00 0.128D+01
 Gap=     0.419 Goal=   None    Shift=    0.000
 RMSDP=7.34D-08 MaxDP=1.40D-06 DE=-2.05D-11 OVMax= 2.01D-06

 Cycle  13  Pass 1  IDiag  1:
 E= -268.213730867700     Delta-E=       -0.000000000003 Rises=F Damp=F
 DIIS: error= 3.91D-08 at cycle  13 NSaved=  13.
 NSaved=13 IEnMin=13 EnMin= -268.213730867700     IErMin=13 ErrMin= 3.91D-08
 ErrMax= 3.91D-08  0.00D+00 EMaxC= 1.00D-01 BMatC= 2.80D-14 BMatP= 4.91D-13
 IDIUse=1 WtCom= 1.00D+00 WtEn= 0.00D+00
 Coeff-Com: -0.171D-07-0.661D-06-0.153D-05 0.127D-05 0.250D-04 0.195D-03
 Coeff-Com: -0.117D-03-0.244D-02 0.866D-02 0.231D-01-0.220D-01-0.359D+00
 Coeff-Com:  0.135D+01
 Coeff:     -0.171D-07-0.661D-06-0.153D-05 0.127D-05 0.250D-04 0.195D-03
 Coeff:     -0.117D-03-0.244D-02 0.866D-02 0.231D-01-0.220D-01-0.359D+00
 Coeff:      0.135D+01
 Gap=     0.419 Goal=   None    Shift=    0.000
 RMSDP=1.94D-08 MaxDP=2.26D-07 DE=-2.73D-12 OVMax= 5.64D-07

 Cycle  14  Pass 1  IDiag  1:
 E= -268.213730867703     Delta-E=       -0.000000000002 Rises=F Damp=F
 DIIS: error= 6.62D-09 at cycle  14 NSaved=  14.
 NSaved=14 IEnMin=14 EnMin= -268.213730867703     IErMin=14 ErrMin= 6.62D-09
 ErrMax= 6.62D-09  0.00D+00 EMaxC= 1.00D-01 BMatC= 1.12D-15 BMatP= 2.80D-14
 IDIUse=1 WtCom= 1.00D+00 WtEn= 0.00D+00
 Coeff-Com:  0.163D-07-0.707D-08-0.773D-06-0.202D-05-0.500D-05-0.236D-04
 Coeff-Com:  0.475D-04 0.372D-03-0.242D-02-0.113D-02 0.117D-01 0.568D-01
 Coeff-Com: -0.426D+00 0.136D+01
 Coeff:      0.163D-07-0.707D-08-0.773D-06-0.202D-05-0.500D-05-0.236D-04
 Coeff:      0.475D-04 0.372D-03-0.242D-02-0.113D-02 0.117D-01 0.568D-01
 Coeff:     -0.426D+00 0.136D+01
 Gap=     0.419 Goal=   None    Shift=    0.000
 RMSDP=3.21D-09 MaxDP=3.69D-08 DE=-2.27D-12 OVMax= 9.51D-08

 SCF Done:  E(RwB97XD) =  -268.213730868     A.U. after   14 cycles
            NFock= 14  Conv=0.32D-08     -V/T= 2.0057
 KE= 2.666804986554D+02 PE=-9.859121043782D+02 EE= 2.718762499487D+02
 Leave Link  502 at Wed May 26 09:01:16 2021, MaxMem=  2147483648 cpu:        15.3
 (Enter /opt/cluster/programs/g09_d.01/g09/l601.exe)
 Copying SCF densities to generalized density rwf, IOpCl= 0 IROHF=0.

 **********************************************************************

            Population analysis using the SCF density.

 **********************************************************************

 Orbital symmetries:
       Occupied  (A) (A) (A) (A) (A) (A) (A) (A) (A) (A) (A) (A)
                 (A) (A) (A) (A) (A) (A) (A) (A)
       Virtual   (A) (A) (A) (A) (A) (A) (A) (A) (A) (A) (A) (A)
                 (A) (A) (A) (A) (A) (A) (A) (A) (A) (A) (A) (A)
                 (A) (A) (A) (A) (A) (A) (A) (A) (A) (A) (A) (A)
                 (A) (A) (A) (A) (A) (A) (A) (A) (A) (A) (A) (A)
                 (A) (A) (A) (A) (A) (A) (A) (A) (A)
 The electronic state is 1-A.
 Alpha  occ. eigenvalues --  -19.31882 -19.27906 -10.45179 -10.35835 -10.31190
 Alpha  occ. eigenvalues --   -1.22061  -1.13518  -0.87947  -0.81582  -0.66491
 Alpha  occ. eigenvalues --   -0.59584  -0.58498  -0.56841  -0.53053  -0.51861
 Alpha  occ. eigenvalues --   -0.49840  -0.46543  -0.43764  -0.38680  -0.36740
 Alpha virt. eigenvalues --    0.05181   0.07122   0.08188   0.10100   0.10282
 Alpha virt. eigenvalues --    0.11081   0.12745   0.13074   0.15301   0.15796
 Alpha virt. eigenvalues --    0.16387   0.19222   0.20527   0.22573   0.24556
 Alpha virt. eigenvalues --    0.25941   0.27134   0.28211   0.30012   0.31650
 Alpha virt. eigenvalues --    0.33568   0.35021   0.35602   0.36812   0.37048
 Alpha virt. eigenvalues --    0.39681   0.41268   0.42176   0.43240   0.45695
 Alpha virt. eigenvalues --    0.55861   0.71972   0.74388   0.74586   0.75901
 Alpha virt. eigenvalues --    0.78080   0.82924   0.84558   0.92160   0.94128
 Alpha virt. eigenvalues --    1.07535   1.09527   1.12600   1.15922   1.17916
 Alpha virt. eigenvalues --    1.20722   1.25140   1.28035   1.32167   1.36682
 Alpha virt. eigenvalues --    1.41251   1.43741   1.46196   1.48660   1.61223
 Alpha virt. eigenvalues --    1.96322   2.00245
          Condensed to atoms (all electrons):
               1          2          3          4          5          6
     1  C    7.055806  -0.797079   0.359175   0.350450   0.352422  -0.559895
     2  C   -0.797079   6.018782  -0.026144  -0.015605  -0.009100   0.263218
     3  H    0.359175  -0.026144   0.460818  -0.022828  -0.022082   0.002031
     4  H    0.350450  -0.015605  -0.022828   0.463471  -0.021569   0.010918
     5  H    0.352422  -0.009100  -0.022082  -0.021569   0.464304  -0.000607
     6  O   -0.559895   0.263218   0.002031   0.010918  -0.000607   8.899584
     7  O   -0.062123   0.280052   0.005835  -0.004676  -0.004320  -0.234948
     8  C   -0.032834  -0.094848  -0.000074   0.000144  -0.000593   0.058288
     9  H   -0.006960  -0.002081  -0.000003   0.000012  -0.000015  -0.028293
    10  H    0.000273   0.003952  -0.000005   0.000001  -0.000012  -0.059054
    11  H    0.007427  -0.004655   0.000005  -0.000020   0.000172  -0.053334
               7          8          9         10         11
     1  C   -0.062123  -0.032834  -0.006960   0.000273   0.007427
     2  C    0.280052  -0.094848  -0.002081   0.003952  -0.004655
     3  H    0.005835  -0.000074  -0.000003  -0.000005   0.000005
     4  H   -0.004676   0.000144   0.000012   0.000001  -0.000020
     5  H   -0.004320  -0.000593  -0.000015  -0.000012   0.000172
     6  O   -0.234948   0.058288  -0.028293  -0.059054  -0.053334
     7  O    8.476421  -0.026352   0.004744  -0.000038   0.001550
     8  C   -0.026352   5.301019   0.378934   0.400495   0.386269
     9  H    0.004744   0.378934   0.482916  -0.026857  -0.034702
    10  H   -0.000038   0.400495  -0.026857   0.486463  -0.027270
    11  H    0.001550   0.386269  -0.034702  -0.027270   0.515640
 Mulliken charges:
               1
     1  C   -0.666661
     2  C    0.383509
     3  H    0.243272
     4  H    0.239702
     5  H    0.241402
     6  O   -0.297908
     7  O   -0.436147
     8  C   -0.370447
     9  H    0.232307
    10  H    0.222053
    11  H    0.208918
 Sum of Mulliken charges =   0.00000
 Mulliken charges with hydrogens summed into heavy atoms:
               1
     1  C    0.057715
     2  C    0.383509
     6  O   -0.297908
     7  O   -0.436147
     8  C    0.292831
 Electronic spatial extent (au):  <R**2>=            436.4422
 Charge=              0.0000 electrons
 Dipole moment (field-independent basis, Debye):
    X=              0.5600    Y=             -2.1503    Z=              1.0508  Tot=              2.4579
 Quadrupole moment (field-independent basis, Debye-Ang):
   XX=            -23.5270   YY=            -36.2561   ZZ=            -29.9658
   XY=              2.3771   XZ=              0.8947   YZ=             -0.9909
 Traceless Quadrupole moment (field-independent basis, Debye-Ang):
   XX=              6.3893   YY=             -6.3398   ZZ=             -0.0495
   XY=              2.3771   XZ=              0.8947   YZ=             -0.9909
 Octapole moment (field-independent basis, Debye-Ang**2):
  XXX=              7.6132  YYY=             -6.6425  ZZZ=              1.0976  XYY=              2.2965
  XXY=             -2.3840  XXZ=              0.2833  XZZ=             -0.0699  YZZ=              0.1113
  YYZ=             -0.4146  XYZ=             -0.3874
 Hexadecapole moment (field-independent basis, Debye-Ang**3):
 XXXX=           -336.8331 YYYY=           -157.8127 ZZZZ=            -48.1320 XXXY=             -7.7070
 XXXZ=             -0.8163 YYYX=              3.3630 YYYZ=              0.7767 ZZZX=              0.6772
 ZZZY=             -1.1037 XXYY=            -82.1628 XXZZ=            -69.3331 YYZZ=            -32.1106
 XXYZ=              0.1994 YYXZ=              0.0243 ZZXY=              1.3226
 N-N= 1.791416249065D+02 E-N=-9.859121044652D+02  KE= 2.666804986554D+02
 No NMR shielding tensors so no spin-rotation constants.
 Leave Link  601 at Wed May 26 09:01:16 2021, MaxMem=  2147483648 cpu:         0.6
 (Enter /opt/cluster/programs/g09_d.01/g09/l701.exe)
 Compute integral first derivatives.
 ... and contract with generalized density number  0.
 R6Disp: Adding Grimme-D2 dispersion energy 1st derivatives to the gradient.
 Leave Link  701 at Wed May 26 09:01:16 2021, MaxMem=  2147483648 cpu:         0.6
 (Enter /opt/cluster/programs/g09_d.01/g09/l702.exe)
 L702 exits ... SP integral derivatives will be done elsewhere.
 Leave Link  702 at Wed May 26 09:01:17 2021, MaxMem=  2147483648 cpu:         0.2
 (Enter /opt/cluster/programs/g09_d.01/g09/l703.exe)
 Compute integral first derivatives, UseDBF=F ICtDFT=           0.
 Integral derivatives from FoFJK, PRISM(SPDF).
 Calling FoFJK, ICntrl=      2127 FMM=F ISym2X=0 I1Cent= 0 IOpClX= 0 NMat=1 NMatS=1 NMatT=0.
 FoFJK:  IHMeth= 1 ICntrl=    2127 DoSepK=T KAlg= 0 I1Cent=   0 FoldK=F
 IRaf=         1 NMat=   1 IRICut=       1 DoRegI=T DoRafI=F ISym2E= 0.
 FoFCou: FMM=F IPFlag=           0 FMFlag=      100000 FMFlg1=         800
         NFxFlg=           0 DoJE=F BraDBF=F KetDBF=F FulRan=T
         wScrn=  0.000000 ICntrl=    2527 IOpCl=  0 I1Cent=           0 NGrid=           0
         NMat0=    1 NMatS0=      1 NMatT0=    0 NMatD0=    1 NMtDS0=    0 NMtDT0=    0
 Symmetry not used in FoFCou.
 Leave Link  703 at Wed May 26 09:01:17 2021, MaxMem=  2147483648 cpu:         3.6
 (Enter /opt/cluster/programs/g09_d.01/g09/l716.exe)
 Dipole        = 2.20320450D-01-8.45975435D-01 4.13430754D-01
 ***** Axes restored to original set *****
 -------------------------------------------------------------------
 Center     Atomic                   Forces (Hartrees/Bohr)
 Number     Number              X              Y              Z
 -------------------------------------------------------------------
      1        6           0.001685774    0.000006425    0.007710877
      2        6          -0.003148125    0.002222885   -0.007395697
      3        1           0.000000835    0.000004793    0.000006217
      4        1          -0.000001706   -0.000001365   -0.000009576
      5        1          -0.000003926   -0.000009180    0.000000533
      6        8           0.003063312   -0.006603854   -0.007365137
      7        8           0.000000988   -0.000017817   -0.000014717
      8        6          -0.001591775    0.004406153    0.007044064
      9        1           0.000000520    0.000004792    0.000001815
     10        1          -0.000000659   -0.000003165    0.000016931
     11        1          -0.000005238   -0.000009667    0.000004689
 -------------------------------------------------------------------
 Cartesian Forces:  Max     0.007710877 RMS     0.003068194
 Leave Link  716 at Wed May 26 09:01:17 2021, MaxMem=  2147483648 cpu:         0.2
 (Enter /opt/cluster/programs/g09_d.01/g09/l103.exe)

 GradGradGradGradGradGradGradGradGradGradGradGradGradGradGradGradGradGrad
 Berny optimization.
 FormGI is forming the generalized inverse of G from B-inverse, IUseBI=4.
 Internal  Forces:  Max     0.012843868 RMS     0.002682631
 Search for a local minimum.
 Step number   1 out of a maximum of   47
 All quantities printed in internal units (Hartrees-Bohrs-Radians)
 RMS Force = .64355D-05 SwitMx=.10000D-02 MixMth= 2
 Mixed Optimization -- En-DIIS/RFO-DIIS
 Second derivative matrix not updated -- first step.
 ITU=  0
     Eigenvalues ---    0.00804   0.00856   0.01304   0.07289   0.07692
     Eigenvalues ---    0.10108   0.10630   0.16000   0.16000   0.16000
     Eigenvalues ---    0.16000   0.16000   0.16000   0.24841   0.25000
     Eigenvalues ---    0.25000   0.32682   0.34203   0.34514   0.34564
     Eigenvalues ---    0.34686   0.34822   0.35150   0.36565   0.50047
     Eigenvalues ---    0.912391000.000001000.000001000.000001000.00000
     Eigenvalues --- 1000.000001000.000001000.000001000.000001000.00000
     Eigenvalues --- 1000.000001000.00000
 RFO step:  Lambda= 0.00000000D+00 EMin= 8.04128149D-03
 Linear search not attempted -- first point.
 Iteration  1 RMS(Cart)=  0.00004266 RMS(Int)=  0.00000000
 Iteration  2 RMS(Cart)=  0.00000000 RMS(Int)=  0.00000000
 Iteration  1 RMS(Cart)=  0.00000000 RMS(Int)=  0.00000000
 ITry= 1 IFail=0 DXMaxC= 1.10D-04 DCOld= 1.00D+10 DXMaxT= 3.00D-01 DXLimC= 3.00D+00 Rises=F
 Variable       Old X    -DE/DX   Delta X   Delta X   Delta X     New X
                                 (Linear)    (Quad)   (Total)
    R1        2.82913   0.00000   0.00000   0.00001   0.00001   2.82914
    R2        2.06388   0.00000   0.00000   0.00001   0.00001   2.06389
    R3        2.05966   0.00000   0.00000  -0.00001  -0.00001   2.05965
    R4        2.06989   0.00000   0.00000   0.00000   0.00000   2.06989
    R5        2.59818   0.00002   0.00000   0.00004   0.00004   2.59822
    R6        2.32367  -0.00002   0.00000  -0.00002  -0.00002   2.32365
    R7        2.76506  -0.00001   0.00000  -0.00002  -0.00002   2.76504
    R8        2.06189   0.00000   0.00000   0.00001   0.00001   2.06190
    R9        2.05432   0.00000   0.00000   0.00001   0.00001   2.05433
   R10        2.06471   0.00000   0.00000   0.00000   0.00000   2.06471
    A1        1.93832  -0.00001   0.00000  -0.00004  -0.00004   1.93827
    A2        1.92269   0.00000   0.00000   0.00003   0.00003   1.92272
    A3        1.88671   0.00000   0.00000   0.00001   0.00001   1.88672
    A4        1.92779   0.00000   0.00000   0.00000   0.00000   1.92779
    A5        1.87883   0.00000   0.00000  -0.00001  -0.00001   1.87882
    A6        1.90832   0.00000   0.00000   0.00002   0.00002   1.90834
    A7        1.95398   0.00014   0.00000  -0.00005  -0.00005   1.95393
    A8        2.18931   0.00078   0.00000   0.00002   0.00002   2.18933
    A9        2.13404  -0.00039   0.00000   0.00003   0.00003   2.13406
   A10        2.05299  -0.00002   0.00000  -0.00006  -0.00006   2.05293
   A11        1.93241   0.00000   0.00000  -0.00002  -0.00002   1.93239
   A12        1.83083   0.00000   0.00000  -0.00001  -0.00001   1.83082
   A13        1.90737   0.00000   0.00000   0.00002   0.00002   1.90739
   A14        1.93541   0.00000   0.00000   0.00000   0.00000   1.93541
   A15        1.92077   0.00000   0.00000   0.00000   0.00000   1.92076
   A16        1.93531   0.00000   0.00000   0.00001   0.00001   1.93532
    D1       -0.76497   0.00253   0.00000   0.00000   0.00000  -0.76497
    D2        2.49110  -0.00253   0.00000   0.00008   0.00008   2.49117
    D3       -2.90653   0.00253   0.00000   0.00002   0.00002  -2.90652
    D4        0.34954  -0.00252   0.00000   0.00009   0.00009   0.34962
    D5        1.29245   0.00252   0.00000  -0.00003  -0.00003   1.29242
    D6       -1.73467  -0.00253   0.00000   0.00004   0.00004  -1.73463
    D7       -2.45419  -0.01284   0.00000   0.00000   0.00000  -2.45419
    D8        0.57712  -0.00789   0.00000  -0.00007  -0.00007   0.57704
    D9       -1.11068   0.00000   0.00000   0.00002   0.00002  -1.11066
   D10        3.08372   0.00000   0.00000   0.00003   0.00003   3.08375
   D11        1.00780   0.00000   0.00000   0.00002   0.00002   1.00781
         Item               Value     Threshold  Converged?
 Maximum Force            0.000021     0.000450     YES
 RMS     Force            0.000006     0.000300     YES
 Maximum Displacement     0.000110     0.001800     YES
 RMS     Displacement     0.000043     0.001200     YES
 Predicted change in Energy=-2.227712D-09
 Optimization completed.
    -- Stationary point found.
                           ----------------------------
                           !   Optimized Parameters   !
                           ! (Angstroms and Degrees)  !
 --------------------------                            --------------------------
 ! Name  Definition              Value          Derivative Info.                !
 --------------------------------------------------------------------------------
 ! R1    R(1,2)                  1.4971         -DE/DX =    0.0                 !
 ! R2    R(1,3)                  1.0922         -DE/DX =    0.0                 !
 ! R3    R(1,4)                  1.0899         -DE/DX =    0.0                 !
 ! R4    R(1,5)                  1.0953         -DE/DX =    0.0                 !
 ! R5    R(2,6)                  1.3749         -DE/DX =    0.0                 !
 ! R6    R(2,7)                  1.2296         -DE/DX =    0.0                 !
 ! R7    R(6,8)                  1.4632         -DE/DX =    0.0                 !
 ! R8    R(8,9)                  1.0911         -DE/DX =    0.0                 !
 ! R9    R(8,10)                 1.0871         -DE/DX =    0.0                 !
 ! R10   R(8,11)                 1.0926         -DE/DX =    0.0                 !
 ! A1    A(2,1,3)              111.0573         -DE/DX =    0.0                 !
 ! A2    A(2,1,4)              110.1617         -DE/DX =    0.0                 !
 ! A3    A(2,1,5)              108.1006         -DE/DX =    0.0                 !
 ! A4    A(3,1,4)              110.4543         -DE/DX =    0.0                 !
 ! A5    A(3,1,5)              107.6491         -DE/DX =    0.0                 !
 ! A6    A(4,1,5)              109.3388         -DE/DX =    0.0                 !
 ! A7    A(1,2,6)              111.9546         -DE/DX =    0.0001              !
 ! A8    A(1,2,7)              125.4384         -DE/DX =    0.0008              !
 ! A9    A(6,2,7)              122.2712         -DE/DX =   -0.0004              !
 ! A10   A(2,6,8)              117.6275         -DE/DX =    0.0                 !
 ! A11   A(6,8,9)              110.7187         -DE/DX =    0.0                 !
 ! A12   A(6,8,10)             104.8986         -DE/DX =    0.0                 !
 ! A13   A(6,8,11)             109.2841         -DE/DX =    0.0                 !
 ! A14   A(9,8,10)             110.8909         -DE/DX =    0.0                 !
 ! A15   A(9,8,11)             110.0517         -DE/DX =    0.0                 !
 ! A16   A(10,8,11)            110.8852         -DE/DX =    0.0                 !
 ! D1    D(3,1,2,6)            -43.8296         -DE/DX =    0.0025              !
 ! D2    D(3,1,2,7)            142.7293         -DE/DX =   -0.0025              !
 ! D3    D(4,1,2,6)           -166.532          -DE/DX =    0.0025              !
 ! D4    D(4,1,2,7)             20.0269         -DE/DX =   -0.0025              !
 ! D5    D(5,1,2,6)             74.0518         -DE/DX =    0.0025              !
 ! D6    D(5,1,2,7)            -99.3893         -DE/DX =   -0.0025              !
 ! D7    D(1,2,6,8)           -140.6147         -DE/DX =   -0.0128              !
 ! D8    D(7,2,6,8)             33.0663         -DE/DX =   -0.0079              !
 ! D9    D(2,6,8,9)            -63.6371         -DE/DX =    0.0                 !
 ! D10   D(2,6,8,10)           176.6839         -DE/DX =    0.0                 !
 ! D11   D(2,6,8,11)            57.7425         -DE/DX =    0.0                 !
 --------------------------------------------------------------------------------
 Lowest energy point so far.  Saving SCF results.
 GradGradGradGradGradGradGradGradGradGradGradGradGradGradGradGradGradGrad

 Largest change from initial coordinates is atom   11       0.000 Angstoms.
 Leave Link  103 at Wed May 26 09:01:17 2021, MaxMem=  2147483648 cpu:         0.2
 (Enter /opt/cluster/programs/g09_d.01/g09/l202.exe)
                          Input orientation:                          
 ---------------------------------------------------------------------
 Center     Atomic      Atomic             Coordinates (Angstroms)
 Number     Number       Type             X           Y           Z
 ---------------------------------------------------------------------
      1          6           0        1.720396   -0.635458   -0.145286
      2          6           0        0.496696    0.184910    0.120992
      3          1           0        1.797541   -1.465533    0.560290
      4          1           0        2.610879   -0.008988   -0.095209
      5          1           0        1.632521   -1.061248   -1.150644
      6          8           0       -0.606240   -0.600113    0.361017
      7          8           0        0.422498    1.408141    0.020006
      8          6           0       -1.884469   -0.164957   -0.202677
      9          1           0       -2.192000    0.788785    0.228955
     10          1           0       -2.587182   -0.952637    0.057204
     11          1           0       -1.787567   -0.071574   -1.286953
 ---------------------------------------------------------------------
                    Distance matrix (angstroms):
                    1          2          3          4          5
     1  C    0.000000
     2  C    1.497114   0.000000
     3  H    1.092160   2.146891   0.000000
     4  H    1.089923   2.134036   1.792406   0.000000
     5  H    1.095337   2.111887   1.765778   1.782801   0.000000
     6  O    2.381350   1.374897   2.562582   3.302639   2.740404
     7  O    2.426553   1.229633   3.231200   2.609701   2.988722
     8  C    3.635893   2.428398   3.978796   4.499337   3.751160
     9  H    4.180355   2.757790   4.594363   4.879464   4.466864
    10  H    4.323983   3.287611   4.443192   5.285219   4.390511
    11  H    3.731913   2.695543   4.267133   4.557466   3.563010
                    6          7          8          9         10
     6  O    0.000000
     7  O    2.282033   0.000000
     8  C    1.463209   2.801129   0.000000
     9  H    2.112135   2.694970   1.091103   0.000000
    10  H    2.034873   3.825288   1.087099   1.793939   0.000000
    11  H    2.095398   2.963458   1.092595   1.789346   1.795108
                   11
    11  H    0.000000
 Stoichiometry    C3H6O2
 Framework group  C1[X(C3H6O2)]
 Deg. of freedom    27
 Full point group                 C1      NOp   1
 RotChk:  IX=0 Diff= 2.06D-16
 Largest Abelian subgroup         C1      NOp   1
 Largest concise Abelian subgroup C1      NOp   1
                         Standard orientation:                         
 ---------------------------------------------------------------------
 Center     Atomic      Atomic             Coordinates (Angstroms)
 Number     Number       Type             X           Y           Z
 ---------------------------------------------------------------------
      1          6           0       -1.720396   -0.635458    0.145286
      2          6           0       -0.496696    0.184910   -0.120992
      3          1           0       -1.797541   -1.465533   -0.560290
      4          1           0       -2.610879   -0.008988    0.095209
      5          1           0       -1.632521   -1.061248    1.150644
      6          8           0        0.606240   -0.600113   -0.361017
      7          8           0       -0.422498    1.408141   -0.020006
      8          6           0        1.884469   -0.164957    0.202677
      9          1           0        2.192000    0.788785   -0.228955
     10          1           0        2.587182   -0.952637   -0.057204
     11          1           0        1.787567   -0.071574    1.286953
 ---------------------------------------------------------------------
 Rotational constants (GHZ):      9.3609738      4.0767289      3.0580854
 Leave Link  202 at Wed May 26 09:01:17 2021, MaxMem=  2147483648 cpu:         0.1
 (Enter /opt/cluster/programs/g09_d.01/g09/l9999.exe)
 1\1\GINC-NODE06\FOpt\RwB97XD\6-31+G\C3H6O2\BOITTIER\26-May-2021\0\\#p 
 wB97XD/6-31+G Opt=ModRedun\\O.pdb\\0,1\C,1.720396,-0.635458,-0.145286\
 C,0.496696,0.18491,0.120992\H,1.797541,-1.465533,0.56029\H,2.610879,-0
 .008988,-0.095209\H,1.632521,-1.061248,-1.150644\O,-0.60624,-0.600113,
 0.361017\O,0.422498,1.408141,0.020006\C,-1.884469,-0.164957,-0.202677\
 H,-2.192,0.788785,0.228955\H,-2.587182,-0.952637,0.057204\H,-1.787567,
 -0.071574,-1.286953\\Version=ES64L-G09RevD.01\State=1-A\HF=-268.213730
 9\RMSD=3.209e-09\RMSF=3.068e-03\Dipole=-0.2203204,-0.8459754,-0.413430
 8\Quadrupole=4.7502988,-4.7134878,-0.036811,-1.7673087,0.6652202,0.736
 6889\PG=C01 [X(C3H6O2)]\\@


 TELEVISION IS CALLED A MEDIUM BECAUSE IT ISN'T
 RARE, AND IT ISN'T WELL DONE.
 Job cpu time:       0 days  0 hours  0 minutes 29.0 seconds.
 File lengths (MBytes):  RWF=      5 Int=      0 D2E=      0 Chk=      2 Scr=      1
 Normal termination of Gaussian 09 at Wed May 26 09:01:17 2021.
