O.pdb                                                                   
FOpt      RwB97XD                                                     6-31+G              
Number of atoms                            I               11
Info1-9                                    I   N=           9
          22          22           0           0           0         100
           2          18        -802
Charge                                     I                0
Multiplicity                               I                1
Number of electrons                        I               40
Number of alpha electrons                  I               20
Number of beta electrons                   I               20
Number of basis functions                  I               77
Number of independent functions            I               77
Number of point charges in /Mol/           I                0
Number of translation vectors              I                0
Atomic numbers                             I   N=          11
           6           6           1           1           1           8
           8           6           1           1           1
Nuclear charges                            R   N=          11
  6.00000000E+00  6.00000000E+00  1.00000000E+00  1.00000000E+00  1.00000000E+00
  8.00000000E+00  8.00000000E+00  6.00000000E+00  1.00000000E+00  1.00000000E+00
  1.00000000E+00
Current cartesian coordinates              R   N=          33
  3.01050947E+00 -1.49104305E+00  3.14488223E-01  9.70663497E-01  3.86184433E-01
 -2.51222082E-01  2.50245660E+00 -2.49840881E+00  2.05122024E+00  4.81445716E+00
 -5.33354414E-01  5.79597902E-01  3.15351072E+00 -2.89345039E+00 -1.19421243E+00
 -1.25917177E+00 -7.57530735E-01 -1.00927627E+00  1.12795485E+00  2.67692179E+00
  6.40106933E-02 -3.51793874E+00 -3.36289993E-01  5.24240265E-01 -3.31149371E+00
 -1.32651027E+00  2.32662326E+00 -5.07005963E+00 -1.13936880E+00 -5.56339153E-01
 -3.81853936E+00  1.68284647E+00  8.30181257E-01
Force Field                                I                0
Int Atom Types                             I   N=          11
           0           0           0           0           0           0
           0           0           0           0           0
MM charges                                 R   N=          11
  0.00000000E+00  0.00000000E+00  0.00000000E+00  0.00000000E+00  0.00000000E+00
  0.00000000E+00  0.00000000E+00  0.00000000E+00  0.00000000E+00  0.00000000E+00
  0.00000000E+00
Integer atomic weights                     I   N=          11
          12          12           1           1           1          16
          16          12           1           1           1
Real atomic weights                        R   N=          11
  1.20000000E+01  1.20000000E+01  1.00782504E+00  1.00782504E+00  1.00782504E+00
  1.59949146E+01  1.59949146E+01  1.20000000E+01  1.00782504E+00  1.00782504E+00
  1.00782504E+00
Atom fragment info                         I   N=          11
           0           0           0           0           0           0
           0           0           0           0           0
Atom residue num                           I   N=          11
           0           0           0           0           0           0
           0           0           0           0           0
Nuclear spins                              I   N=          11
           0           0           1           1           1           0
           0           0           1           1           1
Nuclear ZEff                               R   N=          11
 -3.60000000E+00 -3.60000000E+00 -1.00000000E+00 -1.00000000E+00 -1.00000000E+00
 -5.60000000E+00 -5.60000000E+00 -3.60000000E+00 -1.00000000E+00 -1.00000000E+00
 -1.00000000E+00
Nuclear ZNuc                               R   N=          11
  6.00000000E+00  6.00000000E+00  1.00000000E+00  1.00000000E+00  1.00000000E+00
  8.00000000E+00  8.00000000E+00  6.00000000E+00  1.00000000E+00  1.00000000E+00
  1.00000000E+00
Nuclear QMom                               R   N=          11
  0.00000000E+00  0.00000000E+00  0.00000000E+00  0.00000000E+00  0.00000000E+00
  0.00000000E+00  0.00000000E+00  0.00000000E+00  0.00000000E+00  0.00000000E+00
  0.00000000E+00
Nuclear GFac                               R   N=          11
  0.00000000E+00  0.00000000E+00  2.79284600E+00  2.79284600E+00  2.79284600E+00
  0.00000000E+00  0.00000000E+00  0.00000000E+00  2.79284600E+00  2.79284600E+00
  2.79284600E+00
MicOpt                                     I   N=          11
          -1          -1          -1          -1          -1          -1
          -1          -1          -1          -1          -1
Number of contracted shells                I               32
Number of primitive shells                 I               79
Pure/Cartesian d shells                    I                1
Pure/Cartesian f shells                    I                0
Highest angular momentum                   I                1
Largest degree of contraction              I                6
Shell types                                I   N=          32
           0          -1          -1          -1           0          -1
          -1          -1           0           0           0           0
           0           0           0          -1          -1          -1
           0          -1          -1          -1           0          -1
          -1          -1           0           0           0           0
           0           0
Number of primitives per shell             I   N=          32
           6           3           1           1           6           3
           1           1           3           1           3           1
           3           1           6           3           1           1
           6           3           1           1           6           3
           1           1           3           1           3           1
           3           1
Shell to atom map                          I   N=          32
           1           1           1           1           2           2
           2           2           3           3           4           4
           5           5           6           6           6           6
           7           7           7           7           8           8
           8           8           9           9          10          10
          11          11
Primitive exponents                        R   N=          79
  3.04752488E+03  4.57369518E+02  1.03948685E+02  2.92101553E+01  9.28666296E+00
  3.16392696E+00  7.86827235E+00  1.88128854E+00  5.44249258E-01  1.68714478E-01
  4.38000000E-02  3.04752488E+03  4.57369518E+02  1.03948685E+02  2.92101553E+01
  9.28666296E+00  3.16392696E+00  7.86827235E+00  1.88128854E+00  5.44249258E-01
  1.68714478E-01  4.38000000E-02  1.87311370E+01  2.82539436E+00  6.40121692E-01
  1.61277759E-01  1.87311370E+01  2.82539436E+00  6.40121692E-01  1.61277759E-01
  1.87311370E+01  2.82539436E+00  6.40121692E-01  1.61277759E-01  5.48467166E+03
  8.25234946E+02  1.88046958E+02  5.29645000E+01  1.68975704E+01  5.79963534E+00
  1.55396162E+01  3.59993359E+00  1.01376175E+00  2.70005823E-01  8.45000000E-02
  5.48467166E+03  8.25234946E+02  1.88046958E+02  5.29645000E+01  1.68975704E+01
  5.79963534E+00  1.55396162E+01  3.59993359E+00  1.01376175E+00  2.70005823E-01
  8.45000000E-02  3.04752488E+03  4.57369518E+02  1.03948685E+02  2.92101553E+01
  9.28666296E+00  3.16392696E+00  7.86827235E+00  1.88128854E+00  5.44249258E-01
  1.68714478E-01  4.38000000E-02  1.87311370E+01  2.82539436E+00  6.40121692E-01
  1.61277759E-01  1.87311370E+01  2.82539436E+00  6.40121692E-01  1.61277759E-01
  1.87311370E+01  2.82539436E+00  6.40121692E-01  1.61277759E-01
Contraction coefficients                   R   N=          79
  1.83473713E-03  1.40373228E-02  6.88426223E-02  2.32184443E-01  4.67941348E-01
  3.62311985E-01 -1.19332420E-01 -1.60854152E-01  1.14345644E+00  1.00000000E+00
  1.00000000E+00  1.83473713E-03  1.40373228E-02  6.88426223E-02  2.32184443E-01
  4.67941348E-01  3.62311985E-01 -1.19332420E-01 -1.60854152E-01  1.14345644E+00
  1.00000000E+00  1.00000000E+00  3.34946043E-02  2.34726953E-01  8.13757326E-01
  1.00000000E+00  3.34946043E-02  2.34726953E-01  8.13757326E-01  1.00000000E+00
  3.34946043E-02  2.34726953E-01  8.13757326E-01  1.00000000E+00  1.83107443E-03
  1.39501722E-02  6.84450781E-02  2.32714336E-01  4.70192898E-01  3.58520853E-01
 -1.10777550E-01 -1.48026263E-01  1.13076702E+00  1.00000000E+00  1.00000000E+00
  1.83107443E-03  1.39501722E-02  6.84450781E-02  2.32714336E-01  4.70192898E-01
  3.58520853E-01 -1.10777550E-01 -1.48026263E-01  1.13076702E+00  1.00000000E+00
  1.00000000E+00  1.83473713E-03  1.40373228E-02  6.88426223E-02  2.32184443E-01
  4.67941348E-01  3.62311985E-01 -1.19332420E-01 -1.60854152E-01  1.14345644E+00
  1.00000000E+00  1.00000000E+00  3.34946043E-02  2.34726953E-01  8.13757326E-01
  1.00000000E+00  3.34946043E-02  2.34726953E-01  8.13757326E-01  1.00000000E+00
  3.34946043E-02  2.34726953E-01  8.13757326E-01  1.00000000E+00
P(S=P) Contraction coefficients            R   N=          79
  0.00000000E+00  0.00000000E+00  0.00000000E+00  0.00000000E+00  0.00000000E+00
  0.00000000E+00  6.89990666E-02  3.16423961E-01  7.44308291E-01  1.00000000E+00
  1.00000000E+00  0.00000000E+00  0.00000000E+00  0.00000000E+00  0.00000000E+00
  0.00000000E+00  0.00000000E+00  6.89990666E-02  3.16423961E-01  7.44308291E-01
  1.00000000E+00  1.00000000E+00  0.00000000E+00  0.00000000E+00  0.00000000E+00
  0.00000000E+00  0.00000000E+00  0.00000000E+00  0.00000000E+00  0.00000000E+00
  0.00000000E+00  0.00000000E+00  0.00000000E+00  0.00000000E+00  0.00000000E+00
  0.00000000E+00  0.00000000E+00  0.00000000E+00  0.00000000E+00  0.00000000E+00
  7.08742682E-02  3.39752839E-01  7.27158577E-01  1.00000000E+00  1.00000000E+00
  0.00000000E+00  0.00000000E+00  0.00000000E+00  0.00000000E+00  0.00000000E+00
  0.00000000E+00  7.08742682E-02  3.39752839E-01  7.27158577E-01  1.00000000E+00
  1.00000000E+00  0.00000000E+00  0.00000000E+00  0.00000000E+00  0.00000000E+00
  0.00000000E+00  0.00000000E+00  6.89990666E-02  3.16423961E-01  7.44308291E-01
  1.00000000E+00  1.00000000E+00  0.00000000E+00  0.00000000E+00  0.00000000E+00
  0.00000000E+00  0.00000000E+00  0.00000000E+00  0.00000000E+00  0.00000000E+00
  0.00000000E+00  0.00000000E+00  0.00000000E+00  0.00000000E+00
Coordinates of each shell                  R   N=          96
  3.01050971E+00 -1.49104224E+00  3.14488601E-01  3.01050971E+00 -1.49104224E+00
  3.14488601E-01  3.01050971E+00 -1.49104224E+00  3.14488601E-01  3.01050971E+00
 -1.49104224E+00  3.14488601E-01  9.70663376E-01  3.86184856E-01 -2.51221704E-01
  9.70663376E-01  3.86184856E-01 -2.51221704E-01  9.70663376E-01  3.86184856E-01
 -2.51221704E-01  9.70663376E-01  3.86184856E-01 -2.51221704E-01  2.50245704E+00
 -2.49840809E+00  2.05122062E+00  2.50245704E+00 -2.49840809E+00  2.05122062E+00
  4.81445721E+00 -5.33353250E-01  5.79598280E-01  4.81445721E+00 -5.33353250E-01
  5.79598280E-01  3.15351123E+00 -2.89344954E+00 -1.19421205E+00  3.15351123E+00
 -2.89344954E+00 -1.19421205E+00 -1.25917167E+00 -7.57530742E-01 -1.00927589E+00
 -1.25917167E+00 -7.57530742E-01 -1.00927589E+00 -1.25917167E+00 -7.57530742E-01
 -1.00927589E+00 -1.25917167E+00 -7.57530742E-01 -1.00927589E+00  1.12795429E+00
  2.67692224E+00  6.40110712E-02  1.12795429E+00  2.67692224E+00  6.40110712E-02
  1.12795429E+00  2.67692224E+00  6.40110712E-02  1.12795429E+00  2.67692224E+00
  6.40110712E-02 -3.51793872E+00 -3.36290435E-01  5.24240643E-01 -3.51793872E+00
 -3.36290435E-01  5.24240643E-01 -3.51793872E+00 -3.36290435E-01  5.24240643E-01
 -3.51793872E+00 -3.36290435E-01  5.24240643E-01 -3.31149351E+00 -1.32651067E+00
  2.32662363E+00 -3.31149351E+00 -1.32651067E+00  2.32662363E+00 -5.07005945E+00
 -1.13936954E+00 -5.56338775E-01 -5.07005945E+00 -1.13936954E+00 -5.56338775E-01
 -3.81853973E+00  1.68284597E+00  8.30181635E-01 -3.81853973E+00  1.68284597E+00
  8.30181635E-01
Constraint Structure                       R   N=          33
  3.01050971E+00 -1.49104224E+00  3.14488601E-01  9.70663376E-01  3.86184856E-01
 -2.51221704E-01  2.50245704E+00 -2.49840809E+00  2.05122062E+00  4.81445721E+00
 -5.33353250E-01  5.79598280E-01  3.15351123E+00 -2.89344954E+00 -1.19421205E+00
 -1.25917167E+00 -7.57530742E-01 -1.00927589E+00  1.12795429E+00  2.67692224E+00
  6.40110712E-02 -3.51793872E+00 -3.36290435E-01  5.24240643E-01 -3.31149351E+00
 -1.32651067E+00  2.32662363E+00 -5.07005945E+00 -1.13936954E+00 -5.56338775E-01
 -3.81853973E+00  1.68284597E+00  8.30181635E-01
Num ILSW                                   I              100
ILSW                                       I   N=         100
           0           1           0           0           2           0
           0           0           0           0        4639          -1
           0           0           0           0           2           0
           0           0           0           0           1           0
           1           0           0           0           0           0
           0           0      100000           0          -1           0
           0           0           0           0           0           0
           0           0           0           1           0           0
           0           0           1           0           0           0
           0           0         121          41           0           0
           0           0          58           0           0           0
           0           0           0          11           0           0
           0           0           0           0           0           0
           0           0           0           0           0           0
           0           0           0           0           0           0
           0           0           0           0           0           0
           0           0           0           0
Num RLSW                                   I               41
RLSW                                       R   N=          41
  1.00000000E+00  1.00000000E+00  1.00000000E+00  1.00000000E+00  1.00000000E+00
  0.00000000E+00  2.00000000E-01  2.22036000E-01  0.00000000E+00  7.77964000E-01
  0.00000000E+00  2.00000000E-01  0.00000000E+00  0.00000000E+00  1.00000000E+00
  0.00000000E+00  0.00000000E+00  1.00000000E+00  0.00000000E+00  0.00000000E+00
  0.00000000E+00  0.00000000E+00  1.00000000E+00  0.00000000E+00  0.00000000E+00
  0.00000000E+00  0.00000000E+00  1.00000000E+00  0.00000000E+00  0.00000000E+00
  0.00000000E+00  0.00000000E+00  1.00000000E+00  0.00000000E+00  0.00000000E+00
  0.00000000E+00  0.00000000E+00  0.00000000E+00  1.00000000E+00  1.00000000E+00
  0.00000000E+00
MxBond                                     I                4
NBond                                      I   N=          11
           4           3           1           1           1           2
           1           4           1           1           1
IBond                                      I   N=          44
           2           3           4           5           1           6
           7           0           1           0           0           0
           1           0           0           0           1           0
           0           0           2           8           0           0
           2           0           0           0           6           9
          10          11           8           0           0           0
           8           0           0           0           8           0
           0           0
RBond                                      R   N=          44
  1.00000000E+00  1.00000000E+00  1.00000000E+00  1.00000000E+00  1.00000000E+00
  1.50000000E+00  2.00000000E+00  0.00000000E+00  1.00000000E+00  0.00000000E+00
  0.00000000E+00  0.00000000E+00  1.00000000E+00  0.00000000E+00  0.00000000E+00
  0.00000000E+00  1.00000000E+00  0.00000000E+00  0.00000000E+00  0.00000000E+00
  1.50000000E+00  1.00000000E+00  0.00000000E+00  0.00000000E+00  2.00000000E+00
  0.00000000E+00  0.00000000E+00  0.00000000E+00  1.00000000E+00  1.00000000E+00
  1.00000000E+00  1.00000000E+00  1.00000000E+00  0.00000000E+00  0.00000000E+00
  0.00000000E+00  1.00000000E+00  0.00000000E+00  0.00000000E+00  0.00000000E+00
  1.00000000E+00  0.00000000E+00  0.00000000E+00  0.00000000E+00
Virial Ratio                               R      2.005746484345669E+00
SCF Energy                                 R     -2.682060974840405E+02
Total Energy                               R     -2.682060974840405E+02
RMS Force                                  R      3.099891784615634E-03
RMS Density                                R      4.812687941564218E-09
External E-field                           R   N=          35
  0.00000000E+00  0.00000000E+00  0.00000000E+00  0.00000000E+00  0.00000000E+00
  0.00000000E+00  0.00000000E+00  0.00000000E+00  0.00000000E+00  0.00000000E+00
  0.00000000E+00  0.00000000E+00  0.00000000E+00  0.00000000E+00  0.00000000E+00
  0.00000000E+00  0.00000000E+00  0.00000000E+00  0.00000000E+00  0.00000000E+00
  0.00000000E+00  0.00000000E+00  0.00000000E+00  0.00000000E+00  0.00000000E+00
  0.00000000E+00  0.00000000E+00  0.00000000E+00  0.00000000E+00  0.00000000E+00
  0.00000000E+00  0.00000000E+00  0.00000000E+00  0.00000000E+00  0.00000000E+00
IOpCl                                      I                0
IROHF                                      I                0
Alpha Orbital Energies                     R   N=          77
 -1.93096669E+01 -1.92838896E+01 -1.04541292E+01 -1.03612562E+01 -1.03137292E+01
 -1.21706826E+00 -1.13551675E+00 -8.77617639E-01 -8.18124854E-01 -6.64290167E-01
 -5.96197852E-01 -5.83357188E-01 -5.69946994E-01 -5.31111649E-01 -5.22776751E-01
 -5.03029385E-01 -4.67718300E-01 -4.32869133E-01 -3.80975140E-01 -3.68065825E-01
  4.33666203E-02  6.93355720E-02  8.15536275E-02  1.00750216E-01  1.04904842E-01
  1.08452681E-01  1.25737651E-01  1.31359039E-01  1.49701542E-01  1.54648555E-01
  1.64609191E-01  1.80974140E-01  2.01378790E-01  2.27772552E-01  2.44546455E-01
  2.59001744E-01  2.73326304E-01  2.84401990E-01  2.98664546E-01  3.21468434E-01
  3.33559472E-01  3.44999148E-01  3.59422623E-01  3.73618041E-01  3.81423497E-01
  4.01901789E-01  4.07725153E-01  4.25830388E-01  4.39031952E-01  4.51453842E-01
  5.61176769E-01  7.20110726E-01  7.21793377E-01  7.54327301E-01  7.58122308E-01
  7.70336209E-01  8.26856589E-01  8.71996978E-01  9.16054475E-01  9.29100038E-01
  1.08473654E+00  1.09635028E+00  1.11752097E+00  1.16124883E+00  1.16493011E+00
  1.19888602E+00  1.24671287E+00  1.28183120E+00  1.34452265E+00  1.36884332E+00
  1.40917590E+00  1.45164692E+00  1.46853810E+00  1.48461931E+00  1.59801239E+00
  1.93936178E+00  2.00886760E+00
Alpha MO coefficients                      R   N=        5929
 -4.45075383E-05 -5.69969215E-04  1.30434281E-04 -3.86991086E-05  2.30745962E-05
  2.42787922E-03  2.77853719E-04  1.37756389E-03  8.80717552E-05  1.52274517E-02
 -3.56550101E-03  1.68666269E-03 -6.84000844E-04  8.08281238E-05  3.65351297E-04
 -3.88570278E-04 -1.51782391E-04 -4.42321399E-05  2.23788090E-03 -4.70575437E-03
 -1.16709735E-03 -1.26411899E-03 -1.97250474E-02 -6.61880782E-04  5.17750423E-03
 -1.08698058E-03  3.14197267E-06 -4.44980784E-04 -1.94895106E-04 -6.53545133E-04
  4.61687009E-05 -4.54513528E-04  9.95228246E-01  2.97564947E-02  2.13063957E-04
  1.14229077E-03  1.39762465E-03 -2.10477325E-02 -1.02711636E-03 -2.27355057E-03
 -2.47992338E-03  1.06867152E-02  4.97170388E-04  6.05998871E-04  7.62685867E-04
 -7.09350892E-04 -1.86188308E-04 -2.93589718E-05  1.15418804E-04  4.48154619E-05
  2.48245533E-04  1.06873834E-03 -1.17950562E-04  7.47135500E-05  1.85475218E-04
  3.66127193E-04 -1.38311073E-04  4.26112772E-04 -3.76506165E-06  8.20566524E-05
  6.25265417E-04 -4.06786053E-05 -2.87042307E-04  3.14505911E-03  8.85361604E-04
 -1.85360793E-05 -7.09481775E-04  4.48447444E-04 -4.59777556E-04  1.54514290E-04
  7.92265742E-04 -2.58379441E-04 -6.50461609E-04 -2.20135026E-04 -8.91815726E-04
 -2.76432070E-04 -1.04617779E-03 -9.35977551E-06 -2.43252807E-04  3.23929551E-05
 -1.00316845E-04  1.23910395E-05  2.55722691E-03 -1.99770784E-03 -7.91532407E-04
 -1.08904167E-03  6.91472166E-03 -9.01789523E-04  1.84367039E-03  4.30421424E-04
  2.34360160E-04  2.81829339E-04  1.68207925E-04 -6.42095580E-05 -4.04289834E-05
  7.25929168E-03 -7.13631972E-04  9.80856030E-03  1.32018241E-03 -1.36869865E-02
 -7.12741546E-04 -8.49044071E-04 -1.95264138E-03 -4.20561583E-05 -4.43704271E-05
  1.75737376E-04  2.95360473E-04 -2.24356250E-04 -4.17619085E-04  7.15801409E-04
 -1.65914898E-04 -1.94060391E-04  2.12913224E-05 -5.96000503E-05  6.42690451E-04
  8.95410739E-04 -1.25863563E-03  1.80276705E-04 -2.71272488E-04  6.74753295E-04
 -6.29540305E-04 -3.96604108E-04  9.95238301E-01  2.98659071E-02 -2.47615346E-04
 -2.25482947E-03 -2.70480958E-04 -2.37809534E-02  8.06568398E-04  5.82011207E-03
  6.76030411E-04  7.83305291E-03 -3.22497126E-04 -6.65812897E-04  3.60177485E-04
  3.18062545E-05  3.13765011E-04  9.35226395E-05 -2.76396340E-05  2.85695834E-05
 -1.08953791E-04 -4.99842438E-04  1.44996580E-04 -9.42589993E-04  2.51938755E-03
  9.61273545E-04  5.72662618E-04  6.92228783E-05  9.97428627E-05  9.50570015E-04
 -1.10666052E-04 -2.15151617E-04  5.36867835E-05 -3.78167557E-04  7.54724919E-04
 -7.27050461E-04  1.09340745E-04 -3.21578668E-04  6.81902037E-05  5.83555516E-03
 -1.04445179E-03  2.35994575E-03 -6.14507426E-04 -3.24238540E-03  1.12584311E-03
 -1.60159048E-03  1.54970011E-05  9.95558119E-01  3.68332833E-02 -9.37569336E-04
  8.44390007E-04 -1.11318209E-04 -3.45998273E-02  4.14641841E-04  2.06383428E-04
 -1.04036948E-05 -7.39332510E-03  3.80045565E-03  1.33848032E-03  6.15213050E-04
 -2.13413001E-04  5.07171005E-04 -1.52382323E-04 -1.31662976E-03 -1.26935778E-04
 -3.76886571E-04  4.60065302E-05  4.59922723E-04 -1.70421704E-04 -1.01035581E-04
 -7.62377147E-05 -1.54918875E-04 -1.87350747E-05 -1.15949564E-04 -1.02116990E-04
  8.90467000E-03  7.23552879E-03  1.87634449E-03  1.23118839E-03 -1.46457322E-04
 -6.23943218E-05  1.26362534E-05  5.31548390E-04  8.75009117E-05  1.00674746E-03
  2.39311306E-04 -4.68274144E-05  8.23232003E-06  8.97397990E-03 -1.82096427E-04
 -4.94793402E-03 -4.02115906E-04 -1.59252988E-04 -6.84048680E-04 -5.67627681E-05
  1.34467199E-05 -1.98594639E-05  2.08978697E-03  7.37479490E-04  3.35791332E-04
  3.32342820E-04  6.78929154E-03  1.97549233E-03 -1.81416307E-04 -1.11695354E-03
 -1.60992751E-04 -9.99981190E-04 -5.57965981E-05  1.06810961E-03 -8.05946245E-05
 -1.60956878E-03  1.08323001E-04  2.19184794E-04 -1.07357941E-04 -4.72881818E-05
  3.87422754E-05  1.98160374E-04  4.55570739E-04  5.87875928E-04 -2.75308514E-04
 -2.12378949E-03  1.57717645E-04 -3.11944311E-04  8.29361241E-04 -8.35717444E-06
 -6.65024442E-04  9.83544133E-05  9.37082759E-07  7.74116594E-05  3.06103022E-03
 -1.50626132E-03  1.40216987E-03 -4.21532464E-04  9.88715654E-03 -1.47154942E-03
 -1.44696113E-03 -1.79707899E-03  2.65768567E-04 -3.87321951E-04 -7.59404112E-05
 -2.12600064E-04 -2.87616534E-05  6.18060113E-04  6.10154977E-05  5.67894622E-04
  7.12059235E-05  2.22490218E-05 -8.69435946E-05 -4.02316896E-05 -9.01902322E-04
 -3.77033048E-04  4.17702788E-04  1.35485359E-02 -6.88954799E-03  1.39758322E-03
  4.95213904E-03  1.95567967E-05  2.34379731E-04 -1.75012478E-06 -1.82656341E-05
  1.33245721E-05 -1.53855177E-03  5.74016959E-04  8.09386349E-04 -3.21671945E-05
 -2.91099011E-03  5.91345634E-04  9.51377015E-04  1.11500439E-03  9.95546588E-01
  3.71489727E-02  1.02785979E-03 -1.94063418E-04 -5.69881881E-04 -3.58686545E-02
 -3.08966578E-03  5.64513650E-04  1.75630406E-03 -1.20346242E-02 -3.78633449E-03
  2.81608461E-04  1.90411317E-03 -4.57044217E-04  5.56846023E-03 -4.98977112E-04
  5.37881780E-03 -5.81986990E-04  5.82996894E-03  9.95472792E-01  3.75639232E-02
 -4.45008135E-04  4.55759584E-05  2.19655661E-05 -3.88298286E-02  3.43013535E-03
 -1.91836275E-03  5.52830279E-04 -1.09414978E-02  1.51469654E-03 -1.68850219E-03
  6.01141831E-04 -7.22766376E-04 -7.45845855E-04 -5.04672305E-04  4.78909316E-04
 -1.07946652E-04  5.80595409E-03  6.76582613E-03 -4.89809656E-03  1.58673086E-03
  5.82969227E-03  3.18757075E-03 -2.06121503E-04  1.11885888E-04 -4.88770687E-04
  7.89613374E-03 -5.48474129E-04  6.80233996E-03 -5.38509826E-04  7.74850781E-03
 -1.55272222E-05 -4.02955156E-04 -1.68575357E-04 -4.95153379E-05 -1.14446788E-04
  8.08551519E-04  6.13366144E-04  8.40735472E-04  6.36445906E-04  5.70699633E-03
  1.10419741E-03  2.80026629E-05  1.41679043E-03 -4.58822586E-06 -1.98980620E-04
 -6.49717116E-06  1.12623845E-04  3.34164712E-05  5.45368541E-04 -7.22258580E-04
 -3.43406674E-04 -4.01675411E-04  2.01589937E-03 -6.01426838E-04 -1.40253695E-03
  2.50334530E-04 -5.74528671E-05  2.71126540E-04  5.84786765E-05 -6.05150307E-05
  6.08479631E-05 -1.32245684E-03 -1.00293196E-03  3.53255738E-04 -2.86222757E-04
  8.41779272E-04  5.65126364E-06 -1.25745959E-04 -1.90249282E-04  1.81103478E-04
 -5.56600661E-05  1.56017550E-05 -4.27032873E-04  2.96385711E-05 -2.87096804E-04
 -1.79027852E-02  3.57674871E-02 -1.95592184E-02  1.74311353E-02 -4.33335453E-03
 -4.61643117E-03  7.51960372E-03 -4.85823782E-03  3.53139853E-03 -9.04303915E-02
  1.60427072E-02 -1.54192662E-02  1.36288541E-03 -1.23312996E-01  2.52328129E-01
 -6.23276830E-02  9.36085470E-02  5.22066767E-05  4.74692310E-02  2.58073158E-02
 -5.06327495E-02  2.82368153E-03  1.27150532E-01  1.31527031E-02 -1.98563932E-02
  1.30510819E-02  5.73583726E-03 -3.09054784E-04  5.42794363E-03 -7.87974829E-05
  5.52083821E-03  3.98501186E-04 -1.32832042E-01  2.84666384E-01  3.37454430E-02
  5.87120690E-02  6.14589728E-02  3.08708338E-01  1.41658407E-02  3.96999163E-02
  4.01302163E-02 -4.77018698E-02 -1.70554775E-02 -5.83324527E-03 -1.17368618E-02
 -1.30954806E-01  2.86672432E-01 -1.79037218E-02 -1.32106803E-01 -1.87387398E-02
  2.81568281E-01 -1.13213518E-02 -5.29517941E-02 -7.06780260E-03 -1.43050009E-03
 -7.68838310E-03 -3.19421095E-03 -5.53121586E-03 -3.65886860E-02  6.61669098E-02
  4.44656231E-02 -4.33501566E-03 -2.53689912E-02  2.89214559E-02  1.20856807E-04
  2.12056791E-03  8.94538687E-03 -8.90468485E-03  5.91025372E-04 -2.34988127E-03
 -1.43249172E-03  1.06843986E-02 -3.55711927E-03  1.02898661E-02  2.54997245E-03
  1.10885046E-02  2.64506035E-03  2.20004746E-03 -1.95967529E-03 -5.21781462E-03
 -1.21108271E-02 -2.10585196E-03 -6.02555857E-03 -1.12419781E-02 -1.39907019E-02
 -6.21106138E-03 -1.26309333E-01  2.85065940E-02 -1.45641152E-02  8.92677406E-03
  3.18348016E-02 -6.88928234E-02 -9.65791515E-02 -1.97767845E-01 -4.60814940E-02
 -4.85828553E-03  3.48293204E-02  6.29795479E-02  1.74159915E-02  9.38950862E-02
  3.75728033E-02 -3.77907323E-02  8.18145195E-03  4.56565532E-04  5.16366373E-03
 -2.28906611E-03  6.12604449E-03  7.83451663E-04  1.79178839E-03 -1.52403427E-01
  3.28557666E-01  3.08962419E-04  3.62314048E-02  6.68697752E-02  3.84762686E-01
  6.77384969E-03  2.68912518E-02  4.91139155E-02 -1.38735540E-03  2.53693117E-02
 -1.44791775E-03 -5.45572898E-03  1.43782948E-01 -3.16613818E-01 -1.29612349E-03
  1.25253358E-01  1.42134468E-02 -3.25941422E-01 -1.19247207E-03  5.38973206E-02
  5.26012402E-03 -2.23873942E-02 -8.60182231E-03  1.61836624E-02 -1.48896956E-04
 -5.13266102E-02  9.97105085E-02  5.80100258E-02 -1.03476432E-02 -3.60673593E-02
  4.30361636E-02 -8.20847609E-03  2.50728965E-05  3.30156524E-03  3.76482961E-02
  1.70844670E-02  3.33028318E-03 -9.62431531E-03  1.76261364E-02  1.11049304E-03
  1.66882267E-02  3.33725012E-03  1.65926652E-02 -2.00784107E-03 -1.57324589E-01
  2.95314594E-01 -4.85484416E-02  2.63052747E-02 -1.08402630E-02  3.03654451E-01
 -1.46027166E-02  2.23789066E-03 -3.04336396E-03  4.87690622E-02 -6.50133883E-03
  1.29051120E-02 -1.66925148E-03 -8.15094045E-02  1.72354334E-01  6.62766885E-02
 -1.72179574E-01 -2.73824596E-04  1.36921129E-01  5.87307028E-03 -7.91375527E-03
  3.15392648E-03  1.71042348E-02 -2.54169179E-02 -1.34704450E-02 -3.57822381E-03
  9.52176437E-02  4.10679023E-03  8.61727143E-02  3.32075863E-03  9.32799726E-02
  3.78532258E-03  1.07116660E-02 -2.36564164E-02  1.56541885E-01 -8.42012501E-03
 -2.12090643E-02 -3.12450904E-02  6.69108672E-02 -7.26383658E-03 -1.22826420E-02
  1.74217208E-03 -2.63640490E-02  2.43872694E-03  5.41686876E-03  4.72097805E-02
 -1.07448349E-01  2.29672482E-02 -1.36660704E-04  5.45307418E-03 -1.24387189E-01
  1.02327800E-02  3.45080515E-03  1.18762463E-03 -2.67872950E-02  2.57095633E-03
  1.59455498E-02  4.77033505E-04  8.49880056E-02 -1.64782641E-01 -1.97473883E-02
  5.86128869E-03  2.36305293E-02 -1.60957817E-01 -1.94217830E-03 -4.11437807E-03
 -7.56115325E-04 -5.33908625E-02 -1.74256482E-02  2.14555231E-03  8.09727620E-03
 -4.73595954E-02 -2.44401979E-03 -5.31865089E-02 -9.25223924E-03 -4.86900041E-02
 -3.49633056E-04 -1.01487734E-01  1.90836509E-01  1.33446035E-02  4.48177513E-03
  1.31162844E-02  2.12810925E-01  7.31366650E-03  5.63249180E-03  5.26155037E-03
  9.86061925E-02 -1.63556451E-02  1.44147497E-02 -7.31981943E-03  1.69418783E-02
 -4.20027027E-02  1.58855302E-01  5.62697339E-03  7.33174320E-02 -2.96599547E-02
  5.20649604E-03 -1.12544440E-02  1.00591759E-02 -1.39082241E-01 -6.03329127E-03
  2.24491470E-02  2.92777030E-04  7.19416884E-02  1.18101284E-02  7.41856967E-02
  6.37727897E-03  6.41125627E-02  3.82707273E-03  4.52132859E-02 -1.02766409E-01
 -1.90541975E-01 -4.79782829E-02  4.19306987E-02 -1.48434778E-01 -8.64261926E-02
 -2.53866888E-02  1.14532429E-02 -3.57596199E-02  2.90532349E-02  1.20800031E-03
 -1.00855889E-02 -3.71936059E-03  6.87949263E-03  3.55511930E-02  6.30767615E-04
  2.06576191E-02  1.55600624E-02  1.25497418E-02 -2.85890496E-03  7.81686096E-03
  1.74942650E-02  5.07566293E-03 -5.12434795E-03 -1.79195027E-03 -1.56381091E-01
  3.04966371E-01 -2.80355282E-02 -1.03134567E-02  8.76962736E-03  3.33537517E-01
 -3.39825550E-03 -7.85394941E-04  7.35636234E-03  6.69058860E-02  1.93883068E-02