 Entering Gaussian System, Link 0=/opt/cluster/programs/g09_d.01/g09//g09
 Input=/home/unibas/boittier/RDKit_G2/N.pdb/SCAN_1_2_6_8_S_17_20.0/7_SCAN_1_2_6_8_F/7_SCAN_N.pdb.com
 Output=/scratch/boittier/7_SCAN_N.pdb/7_SCAN_N.pdb.out
 Initial command:
 /opt/cluster/programs/g09_d.01/g09/l1.exe "/scratch/boittier/7_SCAN_N.pdb/Gau-145390.inp" -scrdir="/scratch/boittier/7_SCAN_N.pdb/"
 Entering Link 1 = /opt/cluster/programs/g09_d.01/g09/l1.exe PID=    145391.
  
 Copyright (c) 1988,1990,1992,1993,1995,1998,2003,2009,2013,
            Gaussian, Inc.  All Rights Reserved.
  
 This is part of the Gaussian(R) 09 program.  It is based on
 the Gaussian(R) 03 system (copyright 2003, Gaussian, Inc.),
 the Gaussian(R) 98 system (copyright 1998, Gaussian, Inc.),
 the Gaussian(R) 94 system (copyright 1995, Gaussian, Inc.),
 the Gaussian 92(TM) system (copyright 1992, Gaussian, Inc.),
 the Gaussian 90(TM) system (copyright 1990, Gaussian, Inc.),
 the Gaussian 88(TM) system (copyright 1988, Gaussian, Inc.),
 the Gaussian 86(TM) system (copyright 1986, Carnegie Mellon
 University), and the Gaussian 82(TM) system (copyright 1983,
 Carnegie Mellon University). Gaussian is a federally registered
 trademark of Gaussian, Inc.
  
 This software contains proprietary and confidential information,
 including trade secrets, belonging to Gaussian, Inc.
  
 This software is provided under written license and may be
 used, copied, transmitted, or stored only in accord with that
 written license.
  
 The following legend is applicable only to US Government
 contracts under FAR:
  
                    RESTRICTED RIGHTS LEGEND
  
 Use, reproduction and disclosure by the US Government is
 subject to restrictions as set forth in subparagraphs (a)
 and (c) of the Commercial Computer Software - Restricted
 Rights clause in FAR 52.227-19.
  
 Gaussian, Inc.
 340 Quinnipiac St., Bldg. 40, Wallingford CT 06492
  
  
 ---------------------------------------------------------------
 Warning -- This program may not be used in any manner that
 competes with the business of Gaussian, Inc. or will provide
 assistance to any competitor of Gaussian, Inc.  The licensee
 of this program is prohibited from giving any competitor of
 Gaussian, Inc. access to this program.  By using this program,
 the user acknowledges that Gaussian, Inc. is engaged in the
 business of creating and licensing software in the field of
 computational chemistry and represents and warrants to the
 licensee that it is not a competitor of Gaussian, Inc. and that
 it will not use this program in any manner prohibited above.
 ---------------------------------------------------------------
  

 Cite this work as:
 Gaussian 09, Revision D.01,
 M. J. Frisch, G. W. Trucks, H. B. Schlegel, G. E. Scuseria, 
 M. A. Robb, J. R. Cheeseman, G. Scalmani, V. Barone, B. Mennucci, 
 G. A. Petersson, H. Nakatsuji, M. Caricato, X. Li, H. P. Hratchian, 
 A. F. Izmaylov, J. Bloino, G. Zheng, J. L. Sonnenberg, M. Hada, 
 M. Ehara, K. Toyota, R. Fukuda, J. Hasegawa, M. Ishida, T. Nakajima, 
 Y. Honda, O. Kitao, H. Nakai, T. Vreven, J. A. Montgomery, Jr., 
 J. E. Peralta, F. Ogliaro, M. Bearpark, J. J. Heyd, E. Brothers, 
 K. N. Kudin, V. N. Staroverov, T. Keith, R. Kobayashi, J. Normand, 
 K. Raghavachari, A. Rendell, J. C. Burant, S. S. Iyengar, J. Tomasi, 
 M. Cossi, N. Rega, J. M. Millam, M. Klene, J. E. Knox, J. B. Cross, 
 V. Bakken, C. Adamo, J. Jaramillo, R. Gomperts, R. E. Stratmann, 
 O. Yazyev, A. J. Austin, R. Cammi, C. Pomelli, J. W. Ochterski, 
 R. L. Martin, K. Morokuma, V. G. Zakrzewski, G. A. Voth, 
 P. Salvador, J. J. Dannenberg, S. Dapprich, A. D. Daniels, 
 O. Farkas, J. B. Foresman, J. V. Ortiz, J. Cioslowski, 
 and D. J. Fox, Gaussian, Inc., Wallingford CT, 2013.
 
 ******************************************
 Gaussian 09:  ES64L-G09RevD.01 24-Apr-2013
                26-May-2021 
 ******************************************
 %chk=/home/unibas/boittier/RDKit_G2/N.pdb/SCAN_1_2_6_8_S_17_20.0/7_SCAN_1_2_6_8_
 F/N.pdb.chk
 %nproc=8
 Will use up to    8 processors via shared memory.
 %mem=16GB
 -----------------------------
 #p wB97XD/6-31+G Opt=ModRedun
 -----------------------------
 1/14=-1,18=120,19=15,26=3,38=1/1,3;
 2/9=110,12=2,17=6,18=5,40=1/2;
 3/5=1,6=6,7=10,11=2,16=1,25=1,30=1,71=1,74=-58/1,2,3;
 4//1;
 5/5=2,38=5/2;
 6/7=2,8=2,9=2,10=2,28=1/1;
 7//1,2,3,16;
 1/14=-1,18=20,19=15,26=3/3(2);
 2/9=110/2;
 99//99;
 2/9=110/2;
 3/5=1,6=6,7=10,11=2,16=1,25=1,30=1,71=1,74=-58/1,2,3;
 4/5=5,16=3,69=1/1;
 5/5=2,38=5/2;
 7//1,2,3,16;
 1/14=-1,18=20,19=15,26=3/3(-5);
 2/9=110/2;
 6/7=2,8=2,9=2,10=2,19=2,28=1/1;
 99/9=1/99;
 Leave Link    1 at Wed May 26 09:20:48 2021, MaxMem=  2147483648 cpu:         0.2
 (Enter /opt/cluster/programs/g09_d.01/g09/l101.exe)
 -----
 N.pdb
 -----
 Symbolic Z-matrix:
 Charge =  0 Multiplicity = 1
 C                     2.6749    0.73631   0.11208 
 C                     1.47519  -0.1309   -0.14719 
 H                     2.84694   1.42872  -0.72001 
 H                     3.55798   0.11524   0.26458 
 H                     2.50084   1.34135   1.01072 
 C                     0.21147   0.60158  -0.59931 
 O                     1.49827  -1.35549  -0.02199 
 C                    -1.06743   0.07972  -0.00353 
 H                     0.13189   0.52149  -1.6894 
 H                     0.27786   1.66345  -0.35024 
 F                    -1.41695  -1.18284  -0.44041 
 F                    -2.13124   0.92397  -0.33648 
 F                    -1.01476   0.04258   1.38666 
 
 The following ModRedundant input section has been read:
 D       1       2       6       8 F                                           
 
 NAtoms=     13 NQM=       13 NQMF=       0 NMMI=      0 NMMIF=      0
                NMic=       0 NMicF=      0.
                    Isotopes and Nuclear Properties:
 (Nuclear quadrupole moments (NQMom) in fm**2, nuclear magnetic moments (NMagM)
  in nuclear magnetons)

  Atom         1           2           3           4           5           6           7           8           9          10
 IAtWgt=          12          12           1           1           1          12          16          12           1           1
 AtmWgt=  12.0000000  12.0000000   1.0078250   1.0078250   1.0078250  12.0000000  15.9949146  12.0000000   1.0078250   1.0078250
 NucSpn=           0           0           1           1           1           0           0           0           1           1
 AtZEff=   0.0000000   0.0000000   0.0000000   0.0000000   0.0000000   0.0000000   0.0000000   0.0000000   0.0000000   0.0000000
 NQMom=    0.0000000   0.0000000   0.0000000   0.0000000   0.0000000   0.0000000   0.0000000   0.0000000   0.0000000   0.0000000
 NMagM=    0.0000000   0.0000000   2.7928460   2.7928460   2.7928460   0.0000000   0.0000000   0.0000000   2.7928460   2.7928460
 AtZNuc=   6.0000000   6.0000000   1.0000000   1.0000000   1.0000000   6.0000000   8.0000000   6.0000000   1.0000000   1.0000000

  Atom        11          12          13
 IAtWgt=          19          19          19
 AtmWgt=  18.9984033  18.9984033  18.9984033
 NucSpn=           1           1           1
 AtZEff=   0.0000000   0.0000000   0.0000000
 NQMom=    0.0000000   0.0000000   0.0000000
 NMagM=    2.6288670   2.6288670   2.6288670
 AtZNuc=   9.0000000   9.0000000   9.0000000
 Leave Link  101 at Wed May 26 09:20:49 2021, MaxMem=  2147483648 cpu:         4.2
 (Enter /opt/cluster/programs/g09_d.01/g09/l103.exe)

 GradGradGradGradGradGradGradGradGradGradGradGradGradGradGradGradGradGrad
 Berny optimization.
 Initialization pass.
                           ----------------------------
                           !    Initial Parameters    !
                           ! (Angstroms and Degrees)  !
 --------------------------                            --------------------------
 ! Name  Definition              Value          Derivative Info.                !
 --------------------------------------------------------------------------------
 ! R1    R(1,2)                  1.5029         estimate D2E/DX2                !
 ! R2    R(1,3)                  1.0961         estimate D2E/DX2                !
 ! R3    R(1,4)                  1.0903         estimate D2E/DX2                !
 ! R4    R(1,5)                  1.0972         estimate D2E/DX2                !
 ! R5    R(2,6)                  1.529          estimate D2E/DX2                !
 ! R6    R(2,7)                  1.2312         estimate D2E/DX2                !
 ! R7    R(6,8)                  1.5043         estimate D2E/DX2                !
 ! R8    R(6,9)                  1.0959         estimate D2E/DX2                !
 ! R9    R(6,10)                 1.0927         estimate D2E/DX2                !
 ! R10   R(8,11)                 1.381          estimate D2E/DX2                !
 ! R11   R(8,12)                 1.3983         estimate D2E/DX2                !
 ! R12   R(8,13)                 1.3917         estimate D2E/DX2                !
 ! A1    A(2,1,3)              111.0295         estimate D2E/DX2                !
 ! A2    A(2,1,4)              109.9978         estimate D2E/DX2                !
 ! A3    A(2,1,5)              109.4413         estimate D2E/DX2                !
 ! A4    A(3,1,4)              109.8094         estimate D2E/DX2                !
 ! A5    A(3,1,5)              107.3561         estimate D2E/DX2                !
 ! A6    A(4,1,5)              109.1498         estimate D2E/DX2                !
 ! A7    A(1,2,6)              115.7446         estimate D2E/DX2                !
 ! A8    A(1,2,7)              122.7817         estimate D2E/DX2                !
 ! A9    A(6,2,7)              121.469          estimate D2E/DX2                !
 ! A10   A(2,6,8)              114.7942         estimate D2E/DX2                !
 ! A11   A(2,6,9)              108.6102         estimate D2E/DX2                !
 ! A12   A(2,6,10)             110.3593         estimate D2E/DX2                !
 ! A13   A(8,6,9)              107.8701         estimate D2E/DX2                !
 ! A14   A(8,6,10)             107.3679         estimate D2E/DX2                !
 ! A15   A(9,6,10)             107.5868         estimate D2E/DX2                !
 ! A16   A(6,8,11)             114.0198         estimate D2E/DX2                !
 ! A17   A(6,8,12)             110.0619         estimate D2E/DX2                !
 ! A18   A(6,8,13)             111.883          estimate D2E/DX2                !
 ! A19   A(11,8,12)            106.5058         estimate D2E/DX2                !
 ! A20   A(11,8,13)            107.5295         estimate D2E/DX2                !
 ! A21   A(12,8,13)            106.4245         estimate D2E/DX2                !
 ! D1    D(3,1,2,6)            -48.8499         estimate D2E/DX2                !
 ! D2    D(3,1,2,7)            130.3687         estimate D2E/DX2                !
 ! D3    D(4,1,2,6)           -170.6046         estimate D2E/DX2                !
 ! D4    D(4,1,2,7)              8.614          estimate D2E/DX2                !
 ! D5    D(5,1,2,6)             69.4848         estimate D2E/DX2                !
 ! D6    D(5,1,2,7)           -111.2967         estimate D2E/DX2                !
 ! D7    D(1,2,6,8)           -140.2168         Frozen                          !
 ! D8    D(1,2,6,9)             98.9714         estimate D2E/DX2                !
 ! D9    D(1,2,6,10)           -18.7404         estimate D2E/DX2                !
 ! D10   D(7,2,6,8)             40.5535         estimate D2E/DX2                !
 ! D11   D(7,2,6,9)            -80.2584         estimate D2E/DX2                !
 ! D12   D(7,2,6,10)           162.0299         estimate D2E/DX2                !
 ! D13   D(2,6,8,11)           -68.3487         estimate D2E/DX2                !
 ! D14   D(2,6,8,12)           172.055          estimate D2E/DX2                !
 ! D15   D(2,6,8,13)            53.9512         estimate D2E/DX2                !
 ! D16   D(9,6,8,11)            52.8689         estimate D2E/DX2                !
 ! D17   D(9,6,8,12)           -66.7274         estimate D2E/DX2                !
 ! D18   D(9,6,8,13)           175.1688         estimate D2E/DX2                !
 ! D19   D(10,6,8,11)          168.557          estimate D2E/DX2                !
 ! D20   D(10,6,8,12)           48.9607         estimate D2E/DX2                !
 ! D21   D(10,6,8,13)          -69.1431         estimate D2E/DX2                !
 --------------------------------------------------------------------------------
 Trust Radius=3.00D-01 FncErr=1.00D-07 GrdErr=1.00D-06
 Number of steps in this run=     64 maximum allowed number of steps=    100.
 GradGradGradGradGradGradGradGradGradGradGradGradGradGradGradGradGradGrad

 Leave Link  103 at Wed May 26 09:20:49 2021, MaxMem=  2147483648 cpu:         0.1
 (Enter /opt/cluster/programs/g09_d.01/g09/l202.exe)
                          Input orientation:                          
 ---------------------------------------------------------------------
 Center     Atomic      Atomic             Coordinates (Angstroms)
 Number     Number       Type             X           Y           Z
 ---------------------------------------------------------------------
      1          6           0        2.674904    0.736313    0.112083
      2          6           0        1.475193   -0.130895   -0.147186
      3          1           0        2.846938    1.428716   -0.720006
      4          1           0        3.557980    0.115241    0.264580
      5          1           0        2.500837    1.341345    1.010715
      6          6           0        0.211469    0.601575   -0.599307
      7          8           0        1.498273   -1.355486   -0.021991
      8          6           0       -1.067428    0.079717   -0.003533
      9          1           0        0.131888    0.521491   -1.689403
     10          1           0        0.277863    1.663447   -0.350236
     11          9           0       -1.416947   -1.182835   -0.440409
     12          9           0       -2.131235    0.923965   -0.336481
     13          9           0       -1.014764    0.042579    1.386660
 ---------------------------------------------------------------------
                    Distance matrix (angstroms):
                    1          2          3          4          5
     1  C    0.000000
     2  C    1.502856   0.000000
     3  H    1.096079   2.154575   0.000000
     4  H    1.090325   2.137320   1.788912   0.000000
     5  H    1.097225   2.135456   1.767149   1.782582   0.000000
     6  C    2.567634   1.529027   2.764856   3.490266   2.894933
     7  O    2.403759   1.231190   3.171420   2.547068   3.056880
     8  C    3.801254   2.555370   4.201832   4.633308   3.918280
     9  H    3.123849   2.146744   3.022298   3.964996   3.684388
    10  H    2.611345   2.166678   2.606142   3.678873   2.626319
    11  F    4.553199   3.091445   5.007903   5.189596   4.881217
    12  F    4.830672   3.762298   5.018373   5.777757   4.842028
    13  F    3.964778   2.929618   4.612175   4.708963   3.766640
                    6          7          8          9         10
     6  C    0.000000
     7  O    2.412311   0.000000
     8  C    1.504281   2.939893   0.000000
     9  H    1.095927   2.858376   2.115580   0.000000
    10  H    1.092711   3.272782   2.106706   1.765996   0.000000
    11  F    2.420972   2.950151   1.380964   2.619848   3.313885
    12  F    2.379343   4.297456   1.398318   2.667229   2.520075
    13  F    2.400039   3.202224   1.391686   3.317579   2.704608
                   11         12         13
    11  F    0.000000
    12  F    2.227019   0.000000
    13  F    2.236419   2.234405   0.000000
 Stoichiometry    C4H5F3O
 Framework group  C1[X(C4H5F3O)]
 Deg. of freedom    33
 Full point group                 C1      NOp   1
 Largest Abelian subgroup         C1      NOp   1
 Largest concise Abelian subgroup C1      NOp   1
                         Standard orientation:                         
 ---------------------------------------------------------------------
 Center     Atomic      Atomic             Coordinates (Angstroms)
 Number     Number       Type             X           Y           Z
 ---------------------------------------------------------------------
      1          6           0       -2.674904   -0.736313    0.112083
      2          6           0       -1.475193    0.130895   -0.147186
      3          1           0       -2.846938   -1.428716   -0.720006
      4          1           0       -3.557980   -0.115241    0.264580
      5          1           0       -2.500837   -1.341345    1.010715
      6          6           0       -0.211469   -0.601575   -0.599307
      7          8           0       -1.498273    1.355486   -0.021991
      8          6           0        1.067428   -0.079717   -0.003533
      9          1           0       -0.131888   -0.521491   -1.689403
     10          1           0       -0.277863   -1.663447   -0.350236
     11          9           0        1.416947    1.182835   -0.440409
     12          9           0        2.131235   -0.923965   -0.336481
     13          9           0        1.014764   -0.042579    1.386660
 ---------------------------------------------------------------------
 Rotational constants (GHZ):      3.5737978      1.3164856      1.1974596
 Leave Link  202 at Wed May 26 09:20:49 2021, MaxMem=  2147483648 cpu:         0.0
 (Enter /opt/cluster/programs/g09_d.01/g09/l301.exe)
 Standard basis: 6-31+G (6D, 7F)
 Ernie: Thresh=  0.10000D-02 Tol=  0.10000D-05 Strict=F.
 There are   114 symmetry adapted cartesian basis functions of A   symmetry.
 There are   114 symmetry adapted basis functions of A   symmetry.
   114 basis functions,   228 primitive gaussians,   114 cartesian basis functions
    32 alpha electrons       32 beta electrons
       nuclear repulsion energy       403.6277255812 Hartrees.
 IExCor= 4639 DFT=T Ex+Corr=wB97XD ExCW=0 ScaHFX=  1.000000
 ScaDFX=  1.000000  1.000000  1.000000  1.000000 ScalE2=  1.000000  1.000000
 IRadAn=      0 IRanWt=     -1 IRanGd=            0 ICorTp=0 IEmpDi=121
  HFx wShort=  0.000000 wLong=  0.200000 cFull=  0.222036 cShort=  0.000000 cLong=  0.777964
  DFx wShort=  0.000000 wLong=  0.200000 cFull=  0.000000 cShort=  0.000000 cLong=  1.000000
 NAtoms=   13 NActive=   13 NUniq=   13 SFac= 1.00D+00 NAtFMM=   60 NAOKFM=F Big=F
 Integral buffers will be    131072 words long.
 Raffenetti 2 integral format.
 Two-electron integral symmetry is turned on.
 R6Disp:  Grimme-D2 Dispersion energy=       -0.0056626694 Hartrees.
 Nuclear repulsion after empirical dispersion term =      403.6220629117 Hartrees.
 Leave Link  301 at Wed May 26 09:20:49 2021, MaxMem=  2147483648 cpu:         0.3
 (Enter /opt/cluster/programs/g09_d.01/g09/l302.exe)
 NPDir=0 NMtPBC=     1 NCelOv=     1 NCel=       1 NClECP=     1 NCelD=      1
         NCelK=      1 NCelE2=     1 NClLst=     1 CellRange=     0.0.
 One-electron integrals computed using PRISM.
 NBasis=   114 RedAO= T EigKep=  7.71D-05  NBF=   114
 NBsUse=   114 1.00D-06 EigRej= -1.00D+00 NBFU=   114
 Precomputing XC quadrature grid using
 IXCGrd= 4 IRadAn=           0 IRanWt=          -1 IRanGd=           0 AccXCQ= 0.00D+00.
 Generated NRdTot=       0 NPtTot=           0 NUsed=           0 NTot=          32
 NSgBfM=   114   114   114   114   114 MxSgAt=    13 MxSgA2=    13.
 Leave Link  302 at Wed May 26 09:20:49 2021, MaxMem=  2147483648 cpu:         1.0
 (Enter /opt/cluster/programs/g09_d.01/g09/l303.exe)
 DipDrv:  MaxL=1.
 Leave Link  303 at Wed May 26 09:20:50 2021, MaxMem=  2147483648 cpu:         0.3
 (Enter /opt/cluster/programs/g09_d.01/g09/l401.exe)
 ExpMin= 4.38D-02 ExpMax= 7.00D+03 ExpMxC= 1.05D+03 IAcc=2 IRadAn=         4 AccDes= 0.00D+00
 Harris functional with IExCor= 4639 and IRadAn=       4 diagonalized for initial guess.
 HarFok:  IExCor= 4639 AccDes= 0.00D+00 IRadAn=         4 IDoV= 1 UseB2=F ITyADJ=14
 ICtDFT=  3500011 ScaDFX=  1.000000  1.000000  1.000000  1.000000
 FoFCou: FMM=F IPFlag=           0 FMFlag=      100000 FMFlg1=           0
         NFxFlg=           0 DoJE=T BraDBF=F KetDBF=T FulRan=T
         wScrn=  0.000000 ICntrl=     500 IOpCl=  0 I1Cent=   200000004 NGrid=           0
         NMat0=    1 NMatS0=      1 NMatT0=    0 NMatD0=    1 NMtDS0=    0 NMtDT0=    0
 Petite list used in FoFCou.
 Harris En= -511.187003119394    
 JPrj=0 DoOrth=F DoCkMO=F.
 Leave Link  401 at Wed May 26 09:20:50 2021, MaxMem=  2147483648 cpu:         2.0
 (Enter /opt/cluster/programs/g09_d.01/g09/l502.exe)
 Closed shell SCF:
 Using DIIS extrapolation, IDIIS=  1040.
 Integral symmetry usage will be decided dynamically.
 Keep R1 ints in memory in canonical form, NReq=43969700.
 IVT=       59316 IEndB=       59316 NGot=  2147483648 MDV=  2104449753
 LenX=  2104449753 LenY=  2104436316
 Requested convergence on RMS density matrix=1.00D-08 within 128 cycles.
 Requested convergence on MAX density matrix=1.00D-06.
 Requested convergence on             energy=1.00D-06.
 No special actions if energy rises.
 FoFCou: FMM=F IPFlag=           0 FMFlag=           0 FMFlg1=           0
         NFxFlg=           0 DoJE=F BraDBF=F KetDBF=F FulRan=T
         wScrn=  0.000000 ICntrl=     600 IOpCl=  0 I1Cent=           0 NGrid=           0
         NMat0=    1 NMatS0=   6555 NMatT0=    0 NMatD0=    1 NMtDS0=    0 NMtDT0=    0
 Symmetry not used in FoFCou.

 Cycle   1  Pass 1  IDiag  1:
 E= -529.587779903936    
 DIIS: error= 6.33D-02 at cycle   1 NSaved=   1.
 NSaved= 1 IEnMin= 1 EnMin= -529.587779903936     IErMin= 1 ErrMin= 6.33D-02
 ErrMax= 6.33D-02  0.00D+00 EMaxC= 1.00D-01 BMatC= 5.22D-01 BMatP= 5.22D-01
 IDIUse=3 WtCom= 3.67D-01 WtEn= 6.33D-01
 Coeff-Com:  0.100D+01
 Coeff-En:   0.100D+01
 Coeff:      0.100D+01
 Gap=     0.423 Goal=   None    Shift=    0.000
 GapD=    0.423 DampG=2.000 DampE=0.500 DampFc=1.0000 IDamp=-1.
 RMSDP=1.90D-02 MaxDP=9.27D-01              OVMax= 1.30D-01

 Cycle   2  Pass 1  IDiag  1:
 E= -529.733927193124     Delta-E=       -0.146147289188 Rises=F Damp=F
 DIIS: error= 5.27D-02 at cycle   2 NSaved=   2.
 NSaved= 2 IEnMin= 2 EnMin= -529.733927193124     IErMin= 2 ErrMin= 5.27D-02
 ErrMax= 5.27D-02  0.00D+00 EMaxC= 1.00D-01 BMatC= 3.10D-01 BMatP= 5.22D-01
 IDIUse=3 WtCom= 4.73D-01 WtEn= 5.27D-01
 Coeff-Com:  0.430D+00 0.570D+00
 Coeff-En:   0.324D+00 0.676D+00
 Coeff:      0.374D+00 0.626D+00
 Gap=     0.519 Goal=   None    Shift=    0.000
 RMSDP=4.40D-03 MaxDP=7.29D-02 DE=-1.46D-01 OVMax= 7.23D-02

 Cycle   3  Pass 1  IDiag  1:
 E= -529.907265009402     Delta-E=       -0.173337816278 Rises=F Damp=F
 DIIS: error= 1.23D-02 at cycle   3 NSaved=   3.
 NSaved= 3 IEnMin= 3 EnMin= -529.907265009402     IErMin= 3 ErrMin= 1.23D-02
 ErrMax= 1.23D-02  0.00D+00 EMaxC= 1.00D-01 BMatC= 2.36D-02 BMatP= 3.10D-01
 IDIUse=3 WtCom= 8.77D-01 WtEn= 1.23D-01
 Coeff-Com:  0.100D+00 0.261D+00 0.639D+00
 Coeff-En:   0.000D+00 0.000D+00 0.100D+01
 Coeff:      0.880D-01 0.229D+00 0.683D+00
 Gap=     0.390 Goal=   None    Shift=    0.000
 RMSDP=3.96D-03 MaxDP=1.57D-01 DE=-1.73D-01 OVMax= 3.21D-02

 Cycle   4  Pass 1  IDiag  1:
 E= -529.921015604061     Delta-E=       -0.013750594659 Rises=F Damp=F
 DIIS: error= 4.70D-03 at cycle   4 NSaved=   4.
 NSaved= 4 IEnMin= 4 EnMin= -529.921015604061     IErMin= 4 ErrMin= 4.70D-03
 ErrMax= 4.70D-03  0.00D+00 EMaxC= 1.00D-01 BMatC= 3.93D-03 BMatP= 2.36D-02
 IDIUse=3 WtCom= 9.53D-01 WtEn= 4.70D-02
 Coeff-Com: -0.178D-02 0.315D-01 0.337D+00 0.634D+00
 Coeff-En:   0.000D+00 0.000D+00 0.113D+00 0.887D+00
 Coeff:     -0.170D-02 0.300D-01 0.326D+00 0.646D+00
 Gap=     0.378 Goal=   None    Shift=    0.000
 RMSDP=9.01D-04 MaxDP=1.93D-02 DE=-1.38D-02 OVMax= 1.96D-02

 Cycle   5  Pass 1  IDiag  1:
 E= -529.923752491892     Delta-E=       -0.002736887831 Rises=F Damp=F
 DIIS: error= 1.77D-03 at cycle   5 NSaved=   5.
 NSaved= 5 IEnMin= 5 EnMin= -529.923752491892     IErMin= 5 ErrMin= 1.77D-03
 ErrMax= 1.77D-03  0.00D+00 EMaxC= 1.00D-01 BMatC= 3.25D-04 BMatP= 3.93D-03
 IDIUse=3 WtCom= 9.82D-01 WtEn= 1.77D-02
 Coeff-Com: -0.845D-02-0.290D-02 0.146D+00 0.368D+00 0.497D+00
 Coeff-En:   0.000D+00 0.000D+00 0.000D+00 0.000D+00 0.100D+01
 Coeff:     -0.830D-02-0.285D-02 0.143D+00 0.362D+00 0.506D+00
 Gap=     0.382 Goal=   None    Shift=    0.000
 RMSDP=6.35D-04 MaxDP=2.73D-02 DE=-2.74D-03 OVMax= 5.06D-03

 Cycle   6  Pass 1  IDiag  1:
 E= -529.923987025358     Delta-E=       -0.000234533466 Rises=F Damp=F
 DIIS: error= 3.50D-04 at cycle   6 NSaved=   6.
 NSaved= 6 IEnMin= 6 EnMin= -529.923987025358     IErMin= 6 ErrMin= 3.50D-04
 ErrMax= 3.50D-04  0.00D+00 EMaxC= 1.00D-01 BMatC= 7.82D-06 BMatP= 3.25D-04
 IDIUse=3 WtCom= 9.97D-01 WtEn= 3.50D-03
 Coeff-Com: -0.128D-02-0.458D-02-0.547D-02 0.532D-02 0.126D+00 0.880D+00
 Coeff-En:   0.000D+00 0.000D+00 0.000D+00 0.000D+00 0.000D+00 0.100D+01
 Coeff:     -0.127D-02-0.456D-02-0.545D-02 0.530D-02 0.126D+00 0.880D+00
 Gap=     0.382 Goal=   None    Shift=    0.000
 RMSDP=1.47D-04 MaxDP=5.91D-03 DE=-2.35D-04 OVMax= 1.48D-03

 Cycle   7  Pass 1  IDiag  1:
 E= -529.923996024350     Delta-E=       -0.000008998991 Rises=F Damp=F
 DIIS: error= 5.19D-05 at cycle   7 NSaved=   7.
 NSaved= 7 IEnMin= 7 EnMin= -529.923996024350     IErMin= 7 ErrMin= 5.19D-05
 ErrMax= 5.19D-05  0.00D+00 EMaxC= 1.00D-01 BMatC= 6.64D-07 BMatP= 7.82D-06
 IDIUse=1 WtCom= 1.00D+00 WtEn= 0.00D+00
 Coeff-Com:  0.312D-03-0.156D-02-0.157D-01-0.308D-01-0.891D-02 0.295D+00
 Coeff-Com:  0.762D+00
 Coeff:      0.312D-03-0.156D-02-0.157D-01-0.308D-01-0.891D-02 0.295D+00
 Coeff:      0.762D+00
 Gap=     0.382 Goal=   None    Shift=    0.000
 RMSDP=5.49D-05 MaxDP=2.27D-03 DE=-9.00D-06 OVMax= 3.26D-04

 Cycle   8  Pass 1  IDiag  1:
 E= -529.923996891731     Delta-E=       -0.000000867381 Rises=F Damp=F
 DIIS: error= 1.28D-05 at cycle   8 NSaved=   8.
 NSaved= 8 IEnMin= 8 EnMin= -529.923996891731     IErMin= 8 ErrMin= 1.28D-05
 ErrMax= 1.28D-05  0.00D+00 EMaxC= 1.00D-01 BMatC= 2.61D-08 BMatP= 6.64D-07
 IDIUse=1 WtCom= 1.00D+00 WtEn= 0.00D+00
 Coeff-Com:  0.106D-03 0.134D-03-0.117D-02-0.260D-02-0.130D-01-0.275D-01
 Coeff-Com:  0.647D-01 0.979D+00
 Coeff:      0.106D-03 0.134D-03-0.117D-02-0.260D-02-0.130D-01-0.275D-01
 Coeff:      0.647D-01 0.979D+00
 Gap=     0.382 Goal=   None    Shift=    0.000
 RMSDP=1.52D-05 MaxDP=5.14D-04 DE=-8.67D-07 OVMax= 1.35D-04

 Cycle   9  Pass 1  IDiag  1:
 E= -529.923996940938     Delta-E=       -0.000000049208 Rises=F Damp=F
 DIIS: error= 5.23D-06 at cycle   9 NSaved=   9.
 NSaved= 9 IEnMin= 9 EnMin= -529.923996940938     IErMin= 9 ErrMin= 5.23D-06
 ErrMax= 5.23D-06  0.00D+00 EMaxC= 1.00D-01 BMatC= 2.71D-09 BMatP= 2.61D-08
 IDIUse=1 WtCom= 1.00D+00 WtEn= 0.00D+00
 Coeff-Com:  0.104D-04 0.135D-03 0.652D-03 0.132D-02-0.323D-02-0.245D-01
 Coeff-Com: -0.242D-01 0.253D+00 0.796D+00
 Coeff:      0.104D-04 0.135D-03 0.652D-03 0.132D-02-0.323D-02-0.245D-01
 Coeff:     -0.242D-01 0.253D+00 0.796D+00
 Gap=     0.382 Goal=   None    Shift=    0.000
 RMSDP=2.30D-06 MaxDP=4.35D-05 DE=-4.92D-08 OVMax= 4.77D-05

 Cycle  10  Pass 1  IDiag  1:
 E= -529.923996945796     Delta-E=       -0.000000004858 Rises=F Damp=F
 DIIS: error= 3.46D-06 at cycle  10 NSaved=  10.
 NSaved=10 IEnMin=10 EnMin= -529.923996945796     IErMin=10 ErrMin= 3.46D-06
 ErrMax= 3.46D-06  0.00D+00 EMaxC= 1.00D-01 BMatC= 1.01D-09 BMatP= 2.71D-09
 IDIUse=1 WtCom= 1.00D+00 WtEn= 0.00D+00
 Coeff-Com: -0.168D-04 0.351D-04 0.549D-03 0.120D-02 0.126D-02-0.479D-02
 Coeff-Com: -0.242D-01-0.104D+00 0.395D+00 0.735D+00
 Coeff:     -0.168D-04 0.351D-04 0.549D-03 0.120D-02 0.126D-02-0.479D-02
 Coeff:     -0.242D-01-0.104D+00 0.395D+00 0.735D+00
 Gap=     0.382 Goal=   None    Shift=    0.000
 RMSDP=1.10D-06 MaxDP=1.85D-05 DE=-4.86D-09 OVMax= 3.25D-05

 Cycle  11  Pass 1  IDiag  1:
 E= -529.923996947625     Delta-E=       -0.000000001829 Rises=F Damp=F
 DIIS: error= 1.64D-06 at cycle  11 NSaved=  11.
 NSaved=11 IEnMin=11 EnMin= -529.923996947625     IErMin=11 ErrMin= 1.64D-06
 ErrMax= 1.64D-06  0.00D+00 EMaxC= 1.00D-01 BMatC= 6.24D-11 BMatP= 1.01D-09
 IDIUse=1 WtCom= 1.00D+00 WtEn= 0.00D+00
 Coeff-Com:  0.288D-06-0.166D-04-0.107D-03-0.209D-03 0.276D-03 0.333D-02
 Coeff-Com:  0.344D-02-0.283D-01-0.108D+00-0.269D-01 0.116D+01
 Coeff:      0.288D-06-0.166D-04-0.107D-03-0.209D-03 0.276D-03 0.333D-02
 Coeff:      0.344D-02-0.283D-01-0.108D+00-0.269D-01 0.116D+01
 Gap=     0.382 Goal=   None    Shift=    0.000
 RMSDP=5.43D-07 MaxDP=9.94D-06 DE=-1.83D-09 OVMax= 2.27D-05

 Cycle  12  Pass 1  IDiag  1:
 E= -529.923996948051     Delta-E=       -0.000000000426 Rises=F Damp=F
 DIIS: error= 6.65D-07 at cycle  12 NSaved=  12.
 NSaved=12 IEnMin=12 EnMin= -529.923996948051     IErMin=12 ErrMin= 6.65D-07
 ErrMax= 6.65D-07  0.00D+00 EMaxC= 1.00D-01 BMatC= 1.43D-11 BMatP= 6.24D-11
 IDIUse=1 WtCom= 1.00D+00 WtEn= 0.00D+00
 Coeff-Com:  0.259D-05-0.113D-04-0.123D-03-0.264D-03-0.145D-03 0.164D-02
 Coeff-Com:  0.505D-02 0.135D-01-0.104D+00-0.150D+00 0.306D+00 0.929D+00
 Coeff:      0.259D-05-0.113D-04-0.123D-03-0.264D-03-0.145D-03 0.164D-02
 Coeff:      0.505D-02 0.135D-01-0.104D+00-0.150D+00 0.306D+00 0.929D+00
 Gap=     0.382 Goal=   None    Shift=    0.000
 RMSDP=2.45D-07 MaxDP=4.92D-06 DE=-4.26D-10 OVMax= 1.05D-05

 Cycle  13  Pass 1  IDiag  1:
 E= -529.923996948129     Delta-E=       -0.000000000078 Rises=F Damp=F
 DIIS: error= 1.98D-07 at cycle  13 NSaved=  13.
 NSaved=13 IEnMin=13 EnMin= -529.923996948129     IErMin=13 ErrMin= 1.98D-07
 ErrMax= 1.98D-07  0.00D+00 EMaxC= 1.00D-01 BMatC= 1.57D-12 BMatP= 1.43D-11
 IDIUse=1 WtCom= 1.00D+00 WtEn= 0.00D+00
 Coeff-Com: -0.323D-06 0.289D-05 0.255D-04 0.464D-04-0.149D-04-0.691D-03
 Coeff-Com: -0.886D-03 0.427D-02 0.244D-01 0.144D-01-0.214D+00-0.899D-01
 Coeff-Com:  0.126D+01
 Coeff:     -0.323D-06 0.289D-05 0.255D-04 0.464D-04-0.149D-04-0.691D-03
 Coeff:     -0.886D-03 0.427D-02 0.244D-01 0.144D-01-0.214D+00-0.899D-01
 Coeff:      0.126D+01
 Gap=     0.382 Goal=   None    Shift=    0.000
 RMSDP=1.21D-07 MaxDP=2.75D-06 DE=-7.84D-11 OVMax= 4.54D-06

 Cycle  14  Pass 1  IDiag  1:
 E= -529.923996948136     Delta-E=       -0.000000000007 Rises=F Damp=F
 DIIS: error= 2.49D-08 at cycle  14 NSaved=  14.
 NSaved=14 IEnMin=14 EnMin= -529.923996948136     IErMin=14 ErrMin= 2.49D-08
 ErrMax= 2.49D-08  0.00D+00 EMaxC= 1.00D-01 BMatC= 8.62D-14 BMatP= 1.57D-12
 IDIUse=1 WtCom= 1.00D+00 WtEn= 0.00D+00
 Coeff-Com: -0.136D-06 0.995D-06 0.912D-05 0.171D-04 0.848D-05-0.188D-03
 Coeff-Com: -0.318D-03 0.144D-03 0.797D-02 0.832D-02-0.482D-01-0.561D-01
 Coeff-Com:  0.226D+00 0.862D+00
 Coeff:     -0.136D-06 0.995D-06 0.912D-05 0.171D-04 0.848D-05-0.188D-03
 Coeff:     -0.318D-03 0.144D-03 0.797D-02 0.832D-02-0.482D-01-0.561D-01
 Coeff:      0.226D+00 0.862D+00
 Gap=     0.382 Goal=   None    Shift=    0.000
 RMSDP=1.43D-08 MaxDP=4.94D-07 DE=-7.05D-12 OVMax= 3.87D-07

 Cycle  15  Pass 1  IDiag  1:
 E= -529.923996948139     Delta-E=       -0.000000000003 Rises=F Damp=F
 DIIS: error= 7.65D-09 at cycle  15 NSaved=  15.
 NSaved=15 IEnMin=15 EnMin= -529.923996948139     IErMin=15 ErrMin= 7.65D-09
 ErrMax= 7.65D-09  0.00D+00 EMaxC= 1.00D-01 BMatC= 1.39D-14 BMatP= 8.62D-14
 IDIUse=1 WtCom= 1.00D+00 WtEn= 0.00D+00
 Coeff-Com: -0.796D-08-0.167D-07-0.234D-06-0.316D-06 0.569D-05 0.234D-04
 Coeff-Com:  0.216D-04-0.452D-03-0.764D-03 0.705D-03 0.139D-01-0.696D-02
 Coeff-Com: -0.100D+00 0.267D+00 0.827D+00
 Coeff:     -0.796D-08-0.167D-07-0.234D-06-0.316D-06 0.569D-05 0.234D-04
 Coeff:      0.216D-04-0.452D-03-0.764D-03 0.705D-03 0.139D-01-0.696D-02
 Coeff:     -0.100D+00 0.267D+00 0.827D+00
 Gap=     0.382 Goal=   None    Shift=    0.000
 RMSDP=5.83D-09 MaxDP=2.23D-07 DE=-2.96D-12 OVMax= 8.89D-08

 SCF Done:  E(RwB97XD) =  -529.923996948     A.U. after   15 cycles
            NFock= 15  Conv=0.58D-08     -V/T= 2.0052
 KE= 5.271843861583D+02 PE=-2.057836352806D+03 EE= 5.971059067875D+02
 Leave Link  502 at Wed May 26 09:20:55 2021, MaxMem=  2147483648 cpu:        35.5
 (Enter /opt/cluster/programs/g09_d.01/g09/l601.exe)
 Copying SCF densities to generalized density rwf, IOpCl= 0 IROHF=0.

 **********************************************************************

            Population analysis using the SCF density.

 **********************************************************************

 Orbital symmetries:
       Occupied  (A) (A) (A) (A) (A) (A) (A) (A) (A) (A) (A) (A)
                 (A) (A) (A) (A) (A) (A) (A) (A) (A) (A) (A) (A)
                 (A) (A) (A) (A) (A) (A) (A) (A)
       Virtual   (A) (A) (A) (A) (A) (A) (A) (A) (A) (A) (A) (A)
                 (A) (A) (A) (A) (A) (A) (A) (A) (A) (A) (A) (A)
                 (A) (A) (A) (A) (A) (A) (A) (A) (A) (A) (A) (A)
                 (A) (A) (A) (A) (A) (A) (A) (A) (A) (A) (A) (A)
                 (A) (A) (A) (A) (A) (A) (A) (A) (A) (A) (A) (A)
                 (A) (A) (A) (A) (A) (A) (A) (A) (A) (A) (A) (A)
                 (A) (A) (A) (A) (A) (A) (A) (A) (A) (A)
 The electronic state is 1-A.
 Alpha  occ. eigenvalues --  -24.88151 -24.88037 -24.87932 -19.30288 -10.58710
 Alpha  occ. eigenvalues --  -10.43890 -10.36418 -10.32711  -1.42956  -1.34525
 Alpha  occ. eigenvalues --   -1.34290  -1.19564  -0.94919  -0.87908  -0.79238
 Alpha  occ. eigenvalues --   -0.70481  -0.69361  -0.68562  -0.63542  -0.59323
 Alpha  occ. eigenvalues --   -0.58887  -0.56283  -0.56216  -0.55474  -0.53701
 Alpha  occ. eigenvalues --   -0.53061  -0.51739  -0.51478  -0.50598  -0.49257
 Alpha  occ. eigenvalues --   -0.46428  -0.36817
 Alpha virt. eigenvalues --    0.01348   0.05307   0.07880   0.09182   0.09787
 Alpha virt. eigenvalues --    0.10203   0.11587   0.12182   0.12273   0.12998
 Alpha virt. eigenvalues --    0.14687   0.15384   0.16324   0.17209   0.18058
 Alpha virt. eigenvalues --    0.18565   0.18926   0.20351   0.22438   0.23353
 Alpha virt. eigenvalues --    0.25140   0.26819   0.28121   0.29869   0.31974
 Alpha virt. eigenvalues --    0.33046   0.33601   0.34975   0.35681   0.37227
 Alpha virt. eigenvalues --    0.37603   0.39003   0.40115   0.40676   0.42963
 Alpha virt. eigenvalues --    0.44076   0.44537   0.44952   0.45323   0.46268
 Alpha virt. eigenvalues --    0.47210   0.51200   0.52686   0.53152   0.57426
 Alpha virt. eigenvalues --    0.70275   0.70908   0.73158   0.75257   0.79355
 Alpha virt. eigenvalues --    0.83348   0.84885   0.86790   0.88870   0.90748
 Alpha virt. eigenvalues --    0.93897   1.05891   1.09508   1.15499   1.16363
 Alpha virt. eigenvalues --    1.19249   1.21751   1.24710   1.34108   1.39541
 Alpha virt. eigenvalues --    1.44748   1.45955   1.51872   1.57217   1.60298
 Alpha virt. eigenvalues --    1.65145   1.68150   1.69154   1.74185   1.79193
 Alpha virt. eigenvalues --    1.82258   1.84291   1.85664   2.00648   2.31454
 Alpha virt. eigenvalues --    2.33558   2.66919
          Condensed to atoms (all electrons):
               1          2          3          4          5          6
     1  C    7.645944  -0.262238   0.353914   0.353189   0.321664  -1.624067
     2  C   -0.262238   6.332045  -0.063936  -0.026730  -0.004780  -0.956684
     3  H    0.353914  -0.063936   0.485727  -0.020888  -0.025370   0.030783
     4  H    0.353189  -0.026730  -0.020888   0.439216  -0.017463   0.025811
     5  H    0.321664  -0.004780  -0.025370  -0.017463   0.462122   0.023015
     6  C   -1.624067  -0.956684   0.030783   0.025811   0.023015   9.040224
     7  O   -0.115321   0.379962   0.004809  -0.004628   0.001331  -0.192228
     8  C    0.064519   0.001605   0.005371  -0.002580  -0.010128   0.013786
     9  H   -0.003735   0.006421  -0.000165  -0.000105   0.000153   0.308341
    10  H    0.043938  -0.020709  -0.001399   0.000105  -0.000741   0.314014
    11  F    0.022738  -0.004504  -0.000050   0.000009  -0.000041  -0.143278
    12  F    0.003100   0.019481   0.000050   0.000011  -0.000045  -0.130664
    13  F   -0.013386   0.050403   0.000033   0.000002   0.000141  -0.165808
               7          8          9         10         11         12
     1  C   -0.115321   0.064519  -0.003735   0.043938   0.022738   0.003100
     2  C    0.379962   0.001605   0.006421  -0.020709  -0.004504   0.019481
     3  H    0.004809   0.005371  -0.000165  -0.001399  -0.000050   0.000050
     4  H   -0.004628  -0.002580  -0.000105   0.000105   0.000009   0.000011
     5  H    0.001331  -0.010128   0.000153  -0.000741  -0.000041  -0.000045
     6  C   -0.192228   0.013786   0.308341   0.314014  -0.143278  -0.130664
     7  O    8.294682   0.015005  -0.003064   0.006179   0.011415  -0.001124
     8  C    0.015005   5.098439  -0.003768  -0.046746   0.128358   0.133061
     9  H   -0.003064  -0.003768   0.421475  -0.021178  -0.004854  -0.001363
    10  H    0.006179  -0.046746  -0.021178   0.458890   0.007637  -0.002139
    11  F    0.011415   0.128358  -0.004854   0.007637   9.264715  -0.056955
    12  F   -0.001124   0.133061  -0.001363  -0.002139  -0.056955   9.303779
    13  F   -0.008011   0.146285   0.007049  -0.004731  -0.052434  -0.052143
              13
     1  C   -0.013386
     2  C    0.050403
     3  H    0.000033
     4  H    0.000002
     5  H    0.000141
     6  C   -0.165808
     7  O   -0.008011
     8  C    0.146285
     9  H    0.007049
    10  H   -0.004731
    11  F   -0.052434
    12  F   -0.052143
    13  F    9.285733
 Mulliken charges:
               1
     1  C   -0.790260
     2  C    0.549665
     3  H    0.231120
     4  H    0.254050
     5  H    0.250142
     6  C   -0.543243
     7  O   -0.389007
     8  C    0.456793
     9  H    0.294793
    10  H    0.266882
    11  F   -0.172756
    12  F   -0.215047
    13  F   -0.193132
 Sum of Mulliken charges =   0.00000
 Mulliken charges with hydrogens summed into heavy atoms:
               1
     1  C   -0.054948
     2  C    0.549665
     6  C    0.018431
     7  O   -0.389007
     8  C    0.456793
    11  F   -0.172756
    12  F   -0.215047
    13  F   -0.193132
 Electronic spatial extent (au):  <R**2>=           1000.2585
 Charge=              0.0000 electrons
 Dipole moment (field-independent basis, Debye):
    X=             -2.8811    Y=             -3.9835    Z=             -1.4331  Tot=              5.1208
 Quadrupole moment (field-independent basis, Debye-Ang):
   XX=            -46.2244   YY=            -49.6001   ZZ=            -44.6717
   XY=              5.7982   XZ=              0.1559   YZ=              0.5362
 Traceless Quadrupole moment (field-independent basis, Debye-Ang):
   XX=              0.6077   YY=             -2.7680   ZZ=              2.1603
   XY=              5.7982   XZ=              0.1559   YZ=              0.5362
 Octapole moment (field-independent basis, Debye-Ang**2):
  XXX=              3.0907  YYY=             -5.6691  ZZZ=             -2.1737  XYY=              9.3372
  XXY=             -4.4688  XXZ=              3.2659  XZZ=              4.4870  YZZ=              0.2505
  YYZ=              2.3469  XYZ=              0.2814
 Hexadecapole moment (field-independent basis, Debye-Ang**3):
 XXXX=           -761.5347 YYYY=           -233.6163 ZZZZ=           -132.1846 XXXY=             14.0959
 XXXZ=              2.2528 YYYX=              5.6616 YYYZ=             -1.5297 ZZZX=             -2.5290
 ZZZY=             -1.0832 XXYY=           -183.0541 XXZZ=           -153.6721 YYZZ=            -59.3482
 XXYZ=             -0.9335 YYXZ=              2.3600 ZZXY=              0.1923
 N-N= 4.036220629117D+02 E-N=-2.057836353017D+03  KE= 5.271843861583D+02
 No NMR shielding tensors so no spin-rotation constants.
 Leave Link  601 at Wed May 26 09:20:55 2021, MaxMem=  2147483648 cpu:         0.6
 (Enter /opt/cluster/programs/g09_d.01/g09/l701.exe)
 Compute integral first derivatives.
 ... and contract with generalized density number  0.
 R6Disp: Adding Grimme-D2 dispersion energy 1st derivatives to the gradient.
 Leave Link  701 at Wed May 26 09:20:55 2021, MaxMem=  2147483648 cpu:         0.6
 (Enter /opt/cluster/programs/g09_d.01/g09/l702.exe)
 L702 exits ... SP integral derivatives will be done elsewhere.
 Leave Link  702 at Wed May 26 09:20:55 2021, MaxMem=  2147483648 cpu:         0.2
 (Enter /opt/cluster/programs/g09_d.01/g09/l703.exe)
 Compute integral first derivatives, UseDBF=F ICtDFT=           0.
 Integral derivatives from FoFJK, PRISM(SPDF).
 Calling FoFJK, ICntrl=      2127 FMM=F ISym2X=0 I1Cent= 0 IOpClX= 0 NMat=1 NMatS=1 NMatT=0.
 FoFJK:  IHMeth= 1 ICntrl=    2127 DoSepK=T KAlg= 0 I1Cent=   0 FoldK=F
 IRaf=         1 NMat=   1 IRICut=       1 DoRegI=T DoRafI=F ISym2E= 0.
 FoFCou: FMM=F IPFlag=           0 FMFlag=      100000 FMFlg1=         800
         NFxFlg=           0 DoJE=F BraDBF=F KetDBF=F FulRan=T
         wScrn=  0.000000 ICntrl=    2527 IOpCl=  0 I1Cent=           0 NGrid=           0
         NMat0=    1 NMatS0=      1 NMatT0=    0 NMatD0=    1 NMtDS0=    0 NMtDT0=    0
 Symmetry not used in FoFCou.
 Leave Link  703 at Wed May 26 09:20:56 2021, MaxMem=  2147483648 cpu:         8.3
 (Enter /opt/cluster/programs/g09_d.01/g09/l716.exe)
 Dipole        =-1.13350102D+00-1.56722586D+00-5.63837109D-01
 ***** Axes restored to original set *****
 -------------------------------------------------------------------
 Center     Atomic                   Forces (Hartrees/Bohr)
 Number     Number              X              Y              Z
 -------------------------------------------------------------------
      1        6           0.000110589   -0.000038198   -0.000360158
      2        6          -0.000178452   -0.000029091    0.000399001
      3        1          -0.000000814    0.000013392    0.000011194
      4        1           0.000002109    0.000008011   -0.000000438
      5        1          -0.000007942   -0.000007648    0.000013616
      6        6           0.000101081    0.000336912    0.000266537
      7        8           0.000010118   -0.000008743   -0.000014294
      8        6          -0.000043318   -0.000258004   -0.000296791
      9        1           0.000002096    0.000013854   -0.000001593
     10        1          -0.000000528   -0.000001246    0.000011479
     11        9           0.000005054   -0.000001909   -0.000017914
     12        9          -0.000000605   -0.000007533    0.000001728
     13        9           0.000000612   -0.000019799   -0.000012366
 -------------------------------------------------------------------
 Cartesian Forces:  Max     0.000399001 RMS     0.000132911
 Leave Link  716 at Wed May 26 09:20:56 2021, MaxMem=  2147483648 cpu:         0.2
 (Enter /opt/cluster/programs/g09_d.01/g09/l103.exe)

 GradGradGradGradGradGradGradGradGradGradGradGradGradGradGradGradGradGrad
 Berny optimization.
 FormGI is forming the generalized inverse of G from B-inverse, IUseBI=4.
 Internal  Forces:  Max     0.000386467 RMS     0.000084361
 Search for a local minimum.
 Step number   1 out of a maximum of   64
 All quantities printed in internal units (Hartrees-Bohrs-Radians)
 RMS Force = .28902D-05 SwitMx=.10000D-02 MixMth= 2
 Mixed Optimization -- En-DIIS/RFO-DIIS
 Second derivative matrix not updated -- first step.
 ITU=  0
     Eigenvalues ---    0.00499   0.00709   0.00728   0.02949   0.05572
     Eigenvalues ---    0.07271   0.07486   0.08082   0.08780   0.09578
     Eigenvalues ---    0.11931   0.16000   0.16000   0.16000   0.22030
     Eigenvalues ---    0.24997   0.25000   0.25000   0.25000   0.25000
     Eigenvalues ---    0.29513   0.31932   0.32080   0.33991   0.34119
     Eigenvalues ---    0.34137   0.34501   0.34775   0.45900   0.47027
     Eigenvalues ---    0.48926   0.905921000.000001000.000001000.00000
     Eigenvalues --- 1000.000001000.000001000.000001000.000001000.00000
     Eigenvalues --- 1000.000001000.000001000.000001000.000001000.00000
     Eigenvalues --- 1000.000001000.000001000.000001000.000001000.00000
     Eigenvalues --- 1000.000001000.000001000.000001000.00000
 RFO step:  Lambda= 0.00000000D+00 EMin= 4.98976987D-03
 Linear search not attempted -- first point.
 Iteration  1 RMS(Cart)=  0.00004192 RMS(Int)=  0.00000000
 Iteration  2 RMS(Cart)=  0.00000000 RMS(Int)=  0.00000000
 Iteration  1 RMS(Cart)=  0.00000000 RMS(Int)=  0.00000000
 ITry= 1 IFail=0 DXMaxC= 1.01D-04 DCOld= 1.00D+10 DXMaxT= 3.00D-01 DXLimC= 3.00D+00 Rises=F
 Variable       Old X    -DE/DX   Delta X   Delta X   Delta X     New X
                                 (Linear)    (Quad)   (Total)
    R1        2.83999   0.00000   0.00000   0.00001   0.00001   2.83999
    R2        2.07129   0.00000   0.00000   0.00001   0.00001   2.07130
    R3        2.06042   0.00000   0.00000   0.00000   0.00000   2.06042
    R4        2.07345   0.00000   0.00000   0.00000   0.00000   2.07346
    R5        2.88944   0.00000   0.00000  -0.00001  -0.00001   2.88944
    R6        2.32661   0.00001   0.00000   0.00001   0.00001   2.32662
    R7        2.84268   0.00000   0.00000   0.00001   0.00001   2.84269
    R8        2.07100   0.00000   0.00000   0.00001   0.00001   2.07101
    R9        2.06492   0.00000   0.00000  -0.00001  -0.00001   2.06492
   R10        2.60964   0.00000   0.00000   0.00000   0.00000   2.60964
   R11        2.64244   0.00000   0.00000   0.00000   0.00000   2.64244
   R12        2.62990  -0.00001   0.00000  -0.00001  -0.00001   2.62989
    A1        1.93783   0.00000   0.00000   0.00000   0.00000   1.93783
    A2        1.91982   0.00000   0.00000   0.00003   0.00003   1.91985
    A3        1.91011  -0.00001   0.00000  -0.00003  -0.00003   1.91008
    A4        1.91654   0.00000   0.00000  -0.00002  -0.00002   1.91651
    A5        1.87372   0.00000   0.00000   0.00002   0.00002   1.87373
    A6        1.90502   0.00000   0.00000   0.00001   0.00001   1.90503
    A7        2.02012   0.00000   0.00000  -0.00001  -0.00001   2.02011
    A8        2.14294  -0.00001   0.00000  -0.00002  -0.00002   2.14293
    A9        2.12003   0.00001   0.00000   0.00003   0.00003   2.12006
   A10        2.00354   0.00001   0.00000   0.00003   0.00003   2.00356
   A11        1.89561   0.00000   0.00000  -0.00001  -0.00001   1.89559
   A12        1.92613  -0.00001   0.00000  -0.00003  -0.00003   1.92611
   A13        1.88269  -0.00017   0.00000  -0.00001  -0.00001   1.88268
   A14        1.87392   0.00016   0.00000   0.00002   0.00002   1.87395
   A15        1.87774   0.00000   0.00000  -0.00001  -0.00001   1.87774
   A16        1.99002   0.00000   0.00000   0.00002   0.00002   1.99004
   A17        1.92094   0.00000   0.00000   0.00000   0.00000   1.92094
   A18        1.95273   0.00000   0.00000  -0.00002  -0.00002   1.95271
   A19        1.85888   0.00000   0.00000   0.00000   0.00000   1.85888
   A20        1.87674   0.00000   0.00000   0.00001   0.00001   1.87675
   A21        1.85746   0.00000   0.00000   0.00000   0.00000   1.85746
    D1       -0.85259   0.00008   0.00000   0.00005   0.00005  -0.85254
    D2        2.27536  -0.00008   0.00000   0.00002   0.00002   2.27538
    D3       -2.97761   0.00008   0.00000   0.00006   0.00006  -2.97755
    D4        0.15034  -0.00008   0.00000   0.00003   0.00003   0.15037
    D5        1.21274   0.00008   0.00000   0.00005   0.00005   1.21279
    D6       -1.94249  -0.00008   0.00000   0.00002   0.00002  -1.94247
    D7       -2.44725  -0.00039   0.00000   0.00000   0.00000  -2.44725
    D8        1.72738  -0.00018   0.00000   0.00000   0.00000   1.72738
    D9       -0.32708  -0.00017   0.00000   0.00003   0.00003  -0.32705
   D10        0.70779  -0.00022   0.00000   0.00003   0.00003   0.70782
   D11       -1.40077  -0.00002   0.00000   0.00003   0.00003  -1.40074
   D12        2.82796  -0.00001   0.00000   0.00006   0.00006   2.82802
   D13       -1.19291   0.00008   0.00000   0.00001   0.00001  -1.19289
   D14        3.00293   0.00008   0.00000   0.00000   0.00000   3.00293
   D15        0.94163   0.00008   0.00000   0.00002   0.00002   0.94164
   D16        0.92274  -0.00004   0.00000   0.00001   0.00001   0.92275
   D17       -1.16461  -0.00004   0.00000   0.00000   0.00000  -1.16461
   D18        3.05727  -0.00004   0.00000   0.00001   0.00001   3.05728
   D19        2.94187  -0.00004   0.00000   0.00001   0.00001   2.94189
   D20        0.85453  -0.00004   0.00000   0.00000   0.00000   0.85453
   D21       -1.20678  -0.00004   0.00000   0.00001   0.00001  -1.20676
         Item               Value     Threshold  Converged?
 Maximum Force            0.000011     0.000450     YES
 RMS     Force            0.000003     0.000300     YES
 Maximum Displacement     0.000101     0.001800     YES
 RMS     Displacement     0.000042     0.001200     YES
 Predicted change in Energy=-8.998839D-10
 Optimization completed.
    -- Stationary point found.
                           ----------------------------
                           !   Optimized Parameters   !
                           ! (Angstroms and Degrees)  !
 --------------------------                            --------------------------
 ! Name  Definition              Value          Derivative Info.                !
 --------------------------------------------------------------------------------
 ! R1    R(1,2)                  1.5029         -DE/DX =    0.0                 !
 ! R2    R(1,3)                  1.0961         -DE/DX =    0.0                 !
 ! R3    R(1,4)                  1.0903         -DE/DX =    0.0                 !
 ! R4    R(1,5)                  1.0972         -DE/DX =    0.0                 !
 ! R5    R(2,6)                  1.529          -DE/DX =    0.0                 !
 ! R6    R(2,7)                  1.2312         -DE/DX =    0.0                 !
 ! R7    R(6,8)                  1.5043         -DE/DX =    0.0                 !
 ! R8    R(6,9)                  1.0959         -DE/DX =    0.0                 !
 ! R9    R(6,10)                 1.0927         -DE/DX =    0.0                 !
 ! R10   R(8,11)                 1.381          -DE/DX =    0.0                 !
 ! R11   R(8,12)                 1.3983         -DE/DX =    0.0                 !
 ! R12   R(8,13)                 1.3917         -DE/DX =    0.0                 !
 ! A1    A(2,1,3)              111.0295         -DE/DX =    0.0                 !
 ! A2    A(2,1,4)              109.9978         -DE/DX =    0.0                 !
 ! A3    A(2,1,5)              109.4413         -DE/DX =    0.0                 !
 ! A4    A(3,1,4)              109.8094         -DE/DX =    0.0                 !
 ! A5    A(3,1,5)              107.3561         -DE/DX =    0.0                 !
 ! A6    A(4,1,5)              109.1498         -DE/DX =    0.0                 !
 ! A7    A(1,2,6)              115.7446         -DE/DX =    0.0                 !
 ! A8    A(1,2,7)              122.7817         -DE/DX =    0.0                 !
 ! A9    A(6,2,7)              121.469          -DE/DX =    0.0                 !
 ! A10   A(2,6,8)              114.7942         -DE/DX =    0.0                 !
 ! A11   A(2,6,9)              108.6102         -DE/DX =    0.0                 !
 ! A12   A(2,6,10)             110.3593         -DE/DX =    0.0                 !
 ! A13   A(8,6,9)              107.8701         -DE/DX =   -0.0002              !
 ! A14   A(8,6,10)             107.3679         -DE/DX =    0.0002              !
 ! A15   A(9,6,10)             107.5868         -DE/DX =    0.0                 !
 ! A16   A(6,8,11)             114.0198         -DE/DX =    0.0                 !
 ! A17   A(6,8,12)             110.0619         -DE/DX =    0.0                 !
 ! A18   A(6,8,13)             111.883          -DE/DX =    0.0                 !
 ! A19   A(11,8,12)            106.5058         -DE/DX =    0.0                 !
 ! A20   A(11,8,13)            107.5295         -DE/DX =    0.0                 !
 ! A21   A(12,8,13)            106.4245         -DE/DX =    0.0                 !
 ! D1    D(3,1,2,6)            -48.8499         -DE/DX =    0.0001              !
 ! D2    D(3,1,2,7)            130.3687         -DE/DX =   -0.0001              !
 ! D3    D(4,1,2,6)           -170.6046         -DE/DX =    0.0001              !
 ! D4    D(4,1,2,7)              8.614          -DE/DX =   -0.0001              !
 ! D5    D(5,1,2,6)             69.4848         -DE/DX =    0.0001              !
 ! D6    D(5,1,2,7)           -111.2967         -DE/DX =   -0.0001              !
 ! D7    D(1,2,6,8)           -140.2168         -DE/DX =   -0.0004              !
 ! D8    D(1,2,6,9)             98.9714         -DE/DX =   -0.0002              !
 ! D9    D(1,2,6,10)           -18.7404         -DE/DX =   -0.0002              !
 ! D10   D(7,2,6,8)             40.5535         -DE/DX =   -0.0002              !
 ! D11   D(7,2,6,9)            -80.2584         -DE/DX =    0.0                 !
 ! D12   D(7,2,6,10)           162.0299         -DE/DX =    0.0                 !
 ! D13   D(2,6,8,11)           -68.3487         -DE/DX =    0.0001              !
 ! D14   D(2,6,8,12)           172.055          -DE/DX =    0.0001              !
 ! D15   D(2,6,8,13)            53.9512         -DE/DX =    0.0001              !
 ! D16   D(9,6,8,11)            52.8689         -DE/DX =    0.0                 !
 ! D17   D(9,6,8,12)           -66.7274         -DE/DX =    0.0                 !
 ! D18   D(9,6,8,13)           175.1688         -DE/DX =    0.0                 !
 ! D19   D(10,6,8,11)          168.557          -DE/DX =    0.0                 !
 ! D20   D(10,6,8,12)           48.9607         -DE/DX =    0.0                 !
 ! D21   D(10,6,8,13)          -69.1431         -DE/DX =    0.0                 !
 --------------------------------------------------------------------------------
 Lowest energy point so far.  Saving SCF results.
 GradGradGradGradGradGradGradGradGradGradGradGradGradGradGradGradGradGrad

 Largest change from initial coordinates is atom    3       0.000 Angstoms.
 Leave Link  103 at Wed May 26 09:20:56 2021, MaxMem=  2147483648 cpu:         0.1
 (Enter /opt/cluster/programs/g09_d.01/g09/l202.exe)
                          Input orientation:                          
 ---------------------------------------------------------------------
 Center     Atomic      Atomic             Coordinates (Angstroms)
 Number     Number       Type             X           Y           Z
 ---------------------------------------------------------------------
      1          6           0        2.674904    0.736313    0.112083
      2          6           0        1.475193   -0.130895   -0.147186
      3          1           0        2.846938    1.428716   -0.720006
      4          1           0        3.557980    0.115241    0.264580
      5          1           0        2.500837    1.341345    1.010715
      6          6           0        0.211469    0.601575   -0.599307
      7          8           0        1.498273   -1.355486   -0.021991
      8          6           0       -1.067428    0.079717   -0.003533
      9          1           0        0.131888    0.521491   -1.689403
     10          1           0        0.277863    1.663447   -0.350236
     11          9           0       -1.416947   -1.182835   -0.440409
     12          9           0       -2.131235    0.923965   -0.336481
     13          9           0       -1.014764    0.042579    1.386660
 ---------------------------------------------------------------------
                    Distance matrix (angstroms):
                    1          2          3          4          5
     1  C    0.000000
     2  C    1.502856   0.000000
     3  H    1.096079   2.154575   0.000000
     4  H    1.090325   2.137320   1.788912   0.000000
     5  H    1.097225   2.135456   1.767149   1.782582   0.000000
     6  C    2.567634   1.529027   2.764856   3.490266   2.894933
     7  O    2.403759   1.231190   3.171420   2.547068   3.056880
     8  C    3.801254   2.555370   4.201832   4.633308   3.918280
     9  H    3.123849   2.146744   3.022298   3.964996   3.684388
    10  H    2.611345   2.166678   2.606142   3.678873   2.626319
    11  F    4.553199   3.091445   5.007903   5.189596   4.881217
    12  F    4.830672   3.762298   5.018373   5.777757   4.842028
    13  F    3.964778   2.929618   4.612175   4.708963   3.766640
                    6          7          8          9         10
     6  C    0.000000
     7  O    2.412311   0.000000
     8  C    1.504281   2.939893   0.000000
     9  H    1.095927   2.858376   2.115580   0.000000
    10  H    1.092711   3.272782   2.106706   1.765996   0.000000
    11  F    2.420972   2.950151   1.380964   2.619848   3.313885
    12  F    2.379343   4.297456   1.398318   2.667229   2.520075
    13  F    2.400039   3.202224   1.391686   3.317579   2.704608
                   11         12         13
    11  F    0.000000
    12  F    2.227019   0.000000
    13  F    2.236419   2.234405   0.000000
 Stoichiometry    C4H5F3O
 Framework group  C1[X(C4H5F3O)]
 Deg. of freedom    33
 Full point group                 C1      NOp   1
 RotChk:  IX=0 Diff= 3.49D-16
 Largest Abelian subgroup         C1      NOp   1
 Largest concise Abelian subgroup C1      NOp   1
                         Standard orientation:                         
 ---------------------------------------------------------------------
 Center     Atomic      Atomic             Coordinates (Angstroms)
 Number     Number       Type             X           Y           Z
 ---------------------------------------------------------------------
      1          6           0       -2.674904   -0.736313    0.112083
      2          6           0       -1.475193    0.130895   -0.147186
      3          1           0       -2.846938   -1.428716   -0.720006
      4          1           0       -3.557980   -0.115241    0.264580
      5          1           0       -2.500837   -1.341345    1.010715
      6          6           0       -0.211469   -0.601575   -0.599307
      7          8           0       -1.498273    1.355486   -0.021991
      8          6           0        1.067428   -0.079717   -0.003533
      9          1           0       -0.131888   -0.521491   -1.689403
     10          1           0       -0.277863   -1.663447   -0.350236
     11          9           0        1.416947    1.182835   -0.440409
     12          9           0        2.131235   -0.923965   -0.336481
     13          9           0        1.014764   -0.042579    1.386660
 ---------------------------------------------------------------------
 Rotational constants (GHZ):      3.5737978      1.3164856      1.1974596
 Leave Link  202 at Wed May 26 09:20:56 2021, MaxMem=  2147483648 cpu:         0.0
 (Enter /opt/cluster/programs/g09_d.01/g09/l9999.exe)
 1\1\GINC-NODE09\FOpt\RwB97XD\6-31+G\C4H5F3O1\BOITTIER\26-May-2021\0\\#
 p wB97XD/6-31+G Opt=ModRedun\\N.pdb\\0,1\C,2.674904,0.736313,0.112083\
 C,1.475193,-0.130895,-0.147186\H,2.846938,1.428716,-0.720006\H,3.55798
 ,0.115241,0.26458\H,2.500837,1.341345,1.010715\C,0.211469,0.601575,-0.
 599307\O,1.498273,-1.355486,-0.021991\C,-1.067428,0.079717,-0.003533\H
 ,0.131888,0.521491,-1.689403\H,0.277863,1.663447,-0.350236\F,-1.416947
 ,-1.182835,-0.440409\F,-2.131235,0.923965,-0.336481\F,-1.014764,0.0425
 79,1.38666\\Version=ES64L-G09RevD.01\State=1-A\HF=-529.9239969\RMSD=5.
 833e-09\RMSF=1.329e-04\Dipole=1.133501,1.5672259,-0.5638371\Quadrupole
 =0.4518027,-2.0579484,1.6061457,4.3108349,-0.1158841,-0.398618\PG=C01 
 [X(C4H5F3O1)]\\@


 THE MEEK SHALL INHERIT THE EARTH.
 (THE REST OF US WILL ESCAPE TO THE STARS)
 Job cpu time:       0 days  0 hours  0 minutes 54.2 seconds.
 File lengths (MBytes):  RWF=      7 Int=      0 D2E=      0 Chk=      3 Scr=      1
 Normal termination of Gaussian 09 at Wed May 26 09:20:56 2021.
