 Entering Gaussian System, Link 0=/opt/cluster/programs/g09_d.01/g09//g09
 Input=/home/unibas/boittier/RDKit_G2/O.pdb/SCAN_1_2_6_8_S_17_20.0/12_SCAN_1_2_6_8_F/12_SCAN_O.pdb.com
 Output=/scratch/boittier/12_SCAN_O.pdb/12_SCAN_O.pdb.out
 Initial command:
 /opt/cluster/programs/g09_d.01/g09/l1.exe "/scratch/boittier/12_SCAN_O.pdb/Gau-144682.inp" -scrdir="/scratch/boittier/12_SCAN_O.pdb/"
 Entering Link 1 = /opt/cluster/programs/g09_d.01/g09/l1.exe PID=    144684.
  
 Copyright (c) 1988,1990,1992,1993,1995,1998,2003,2009,2013,
            Gaussian, Inc.  All Rights Reserved.
  
 This is part of the Gaussian(R) 09 program.  It is based on
 the Gaussian(R) 03 system (copyright 2003, Gaussian, Inc.),
 the Gaussian(R) 98 system (copyright 1998, Gaussian, Inc.),
 the Gaussian(R) 94 system (copyright 1995, Gaussian, Inc.),
 the Gaussian 92(TM) system (copyright 1992, Gaussian, Inc.),
 the Gaussian 90(TM) system (copyright 1990, Gaussian, Inc.),
 the Gaussian 88(TM) system (copyright 1988, Gaussian, Inc.),
 the Gaussian 86(TM) system (copyright 1986, Carnegie Mellon
 University), and the Gaussian 82(TM) system (copyright 1983,
 Carnegie Mellon University). Gaussian is a federally registered
 trademark of Gaussian, Inc.
  
 This software contains proprietary and confidential information,
 including trade secrets, belonging to Gaussian, Inc.
  
 This software is provided under written license and may be
 used, copied, transmitted, or stored only in accord with that
 written license.
  
 The following legend is applicable only to US Government
 contracts under FAR:
  
                    RESTRICTED RIGHTS LEGEND
  
 Use, reproduction and disclosure by the US Government is
 subject to restrictions as set forth in subparagraphs (a)
 and (c) of the Commercial Computer Software - Restricted
 Rights clause in FAR 52.227-19.
  
 Gaussian, Inc.
 340 Quinnipiac St., Bldg. 40, Wallingford CT 06492
  
  
 ---------------------------------------------------------------
 Warning -- This program may not be used in any manner that
 competes with the business of Gaussian, Inc. or will provide
 assistance to any competitor of Gaussian, Inc.  The licensee
 of this program is prohibited from giving any competitor of
 Gaussian, Inc. access to this program.  By using this program,
 the user acknowledges that Gaussian, Inc. is engaged in the
 business of creating and licensing software in the field of
 computational chemistry and represents and warrants to the
 licensee that it is not a competitor of Gaussian, Inc. and that
 it will not use this program in any manner prohibited above.
 ---------------------------------------------------------------
  

 Cite this work as:
 Gaussian 09, Revision D.01,
 M. J. Frisch, G. W. Trucks, H. B. Schlegel, G. E. Scuseria, 
 M. A. Robb, J. R. Cheeseman, G. Scalmani, V. Barone, B. Mennucci, 
 G. A. Petersson, H. Nakatsuji, M. Caricato, X. Li, H. P. Hratchian, 
 A. F. Izmaylov, J. Bloino, G. Zheng, J. L. Sonnenberg, M. Hada, 
 M. Ehara, K. Toyota, R. Fukuda, J. Hasegawa, M. Ishida, T. Nakajima, 
 Y. Honda, O. Kitao, H. Nakai, T. Vreven, J. A. Montgomery, Jr., 
 J. E. Peralta, F. Ogliaro, M. Bearpark, J. J. Heyd, E. Brothers, 
 K. N. Kudin, V. N. Staroverov, T. Keith, R. Kobayashi, J. Normand, 
 K. Raghavachari, A. Rendell, J. C. Burant, S. S. Iyengar, J. Tomasi, 
 M. Cossi, N. Rega, J. M. Millam, M. Klene, J. E. Knox, J. B. Cross, 
 V. Bakken, C. Adamo, J. Jaramillo, R. Gomperts, R. E. Stratmann, 
 O. Yazyev, A. J. Austin, R. Cammi, C. Pomelli, J. W. Ochterski, 
 R. L. Martin, K. Morokuma, V. G. Zakrzewski, G. A. Voth, 
 P. Salvador, J. J. Dannenberg, S. Dapprich, A. D. Daniels, 
 O. Farkas, J. B. Foresman, J. V. Ortiz, J. Cioslowski, 
 and D. J. Fox, Gaussian, Inc., Wallingford CT, 2013.
 
 ******************************************
 Gaussian 09:  ES64L-G09RevD.01 24-Apr-2013
                26-May-2021 
 ******************************************
 %chk=/home/unibas/boittier/RDKit_G2/O.pdb/SCAN_1_2_6_8_S_17_20.0/12_SCAN_1_2_6_8
 _F/O.pdb.chk
 %nproc=8
 Will use up to    8 processors via shared memory.
 %mem=16GB
 -----------------------------
 #p wB97XD/6-31+G Opt=ModRedun
 -----------------------------
 1/14=-1,18=120,19=15,26=3,38=1/1,3;
 2/9=110,12=2,17=6,18=5,40=1/2;
 3/5=1,6=6,7=10,11=2,16=1,25=1,30=1,71=1,74=-58/1,2,3;
 4//1;
 5/5=2,38=5/2;
 6/7=2,8=2,9=2,10=2,28=1/1;
 7//1,2,3,16;
 1/14=-1,18=20,19=15,26=3/3(2);
 2/9=110/2;
 99//99;
 2/9=110/2;
 3/5=1,6=6,7=10,11=2,16=1,25=1,30=1,71=1,74=-58/1,2,3;
 4/5=5,16=3,69=1/1;
 5/5=2,38=5/2;
 7//1,2,3,16;
 1/14=-1,18=20,19=15,26=3/3(-5);
 2/9=110/2;
 6/7=2,8=2,9=2,10=2,19=2,28=1/1;
 99/9=1/99;
 Leave Link    1 at Wed May 26 09:01:16 2021, MaxMem=  2147483648 cpu:         0.2
 (Enter /opt/cluster/programs/g09_d.01/g09/l101.exe)
 -----
 O.pdb
 -----
 Symbolic Z-matrix:
 Charge =  0 Multiplicity = 1
 C                     0.95658  -1.26834  -0.01901 
 C                     0.57778   0.18888  -0.0324 
 H                     0.41482  -1.81576   0.76017 
 H                     2.02561  -1.36058   0.17047 
 H                     0.70893  -1.72221  -0.9829 
 O                    -0.70721   0.47167  -0.47082 
 O                     1.35295   1.10616   0.19448 
 C                    -1.8495   -0.09776   0.23323 
 H                    -1.86546  -1.18971   0.15341 
 H                    -2.72297   0.31818  -0.26328 
 H                    -1.836     0.21078   1.28198 
 
 The following ModRedundant input section has been read:
 D       1       2       6       8 F                                           
 
 NAtoms=     11 NQM=       11 NQMF=       0 NMMI=      0 NMMIF=      0
                NMic=       0 NMicF=      0.
                    Isotopes and Nuclear Properties:
 (Nuclear quadrupole moments (NQMom) in fm**2, nuclear magnetic moments (NMagM)
  in nuclear magnetons)

  Atom         1           2           3           4           5           6           7           8           9          10
 IAtWgt=          12          12           1           1           1          16          16          12           1           1
 AtmWgt=  12.0000000  12.0000000   1.0078250   1.0078250   1.0078250  15.9949146  15.9949146  12.0000000   1.0078250   1.0078250
 NucSpn=           0           0           1           1           1           0           0           0           1           1
 AtZEff=   0.0000000   0.0000000   0.0000000   0.0000000   0.0000000   0.0000000   0.0000000   0.0000000   0.0000000   0.0000000
 NQMom=    0.0000000   0.0000000   0.0000000   0.0000000   0.0000000   0.0000000   0.0000000   0.0000000   0.0000000   0.0000000
 NMagM=    0.0000000   0.0000000   2.7928460   2.7928460   2.7928460   0.0000000   0.0000000   0.0000000   2.7928460   2.7928460
 AtZNuc=   6.0000000   6.0000000   1.0000000   1.0000000   1.0000000   8.0000000   8.0000000   6.0000000   1.0000000   1.0000000

  Atom        11
 IAtWgt=           1
 AtmWgt=   1.0078250
 NucSpn=           1
 AtZEff=   0.0000000
 NQMom=    0.0000000
 NMagM=    2.7928460
 AtZNuc=   1.0000000
 Leave Link  101 at Wed May 26 09:01:17 2021, MaxMem=  2147483648 cpu:         4.3
 (Enter /opt/cluster/programs/g09_d.01/g09/l103.exe)

 GradGradGradGradGradGradGradGradGradGradGradGradGradGradGradGradGradGrad
 Berny optimization.
 Initialization pass.
                           ----------------------------
                           !    Initial Parameters    !
                           ! (Angstroms and Degrees)  !
 --------------------------                            --------------------------
 ! Name  Definition              Value          Derivative Info.                !
 --------------------------------------------------------------------------------
 ! R1    R(1,2)                  1.5057         estimate D2E/DX2                !
 ! R2    R(1,3)                  1.0956         estimate D2E/DX2                !
 ! R3    R(1,4)                  1.0896         estimate D2E/DX2                !
 ! R4    R(1,5)                  1.0938         estimate D2E/DX2                !
 ! R5    R(2,6)                  1.3869         estimate D2E/DX2                !
 ! R6    R(2,7)                  1.2222         estimate D2E/DX2                !
 ! R7    R(6,8)                  1.4577         estimate D2E/DX2                !
 ! R8    R(8,9)                  1.095          estimate D2E/DX2                !
 ! R9    R(8,10)                 1.0874         estimate D2E/DX2                !
 ! R10   R(8,11)                 1.0933         estimate D2E/DX2                !
 ! A1    A(2,1,3)              111.4383         estimate D2E/DX2                !
 ! A2    A(2,1,4)              109.2865         estimate D2E/DX2                !
 ! A3    A(2,1,5)              109.6813         estimate D2E/DX2                !
 ! A4    A(3,1,4)              108.6142         estimate D2E/DX2                !
 ! A5    A(3,1,5)              107.9046         estimate D2E/DX2                !
 ! A6    A(4,1,5)              109.892          estimate D2E/DX2                !
 ! A7    A(1,2,6)              115.6739         estimate D2E/DX2                !
 ! A8    A(1,2,7)              124.4123         estimate D2E/DX2                !
 ! A9    A(6,2,7)              119.5575         estimate D2E/DX2                !
 ! A10   A(2,6,8)              119.5871         estimate D2E/DX2                !
 ! A11   A(6,8,9)              111.4558         estimate D2E/DX2                !
 ! A12   A(6,8,10)             105.0409         estimate D2E/DX2                !
 ! A13   A(6,8,11)             110.0841         estimate D2E/DX2                !
 ! A14   A(9,8,10)             109.6612         estimate D2E/DX2                !
 ! A15   A(9,8,11)             110.5814         estimate D2E/DX2                !
 ! A16   A(10,8,11)            109.8751         estimate D2E/DX2                !
 ! D1    D(3,1,2,6)            -69.7899         estimate D2E/DX2                !
 ! D2    D(3,1,2,7)            117.1202         estimate D2E/DX2                !
 ! D3    D(4,1,2,6)            170.1627         estimate D2E/DX2                !
 ! D4    D(4,1,2,7)             -2.9272         estimate D2E/DX2                !
 ! D5    D(5,1,2,6)             49.6314         estimate D2E/DX2                !
 ! D6    D(5,1,2,7)           -123.4585         estimate D2E/DX2                !
 ! D7    D(1,2,6,8)             59.3853         Frozen                          !
 ! D8    D(7,2,6,8)           -127.1668         estimate D2E/DX2                !
 ! D9    D(2,6,8,9)            -64.5806         estimate D2E/DX2                !
 ! D10   D(2,6,8,10)           176.7376         estimate D2E/DX2                !
 ! D11   D(2,6,8,11)            58.5035         estimate D2E/DX2                !
 --------------------------------------------------------------------------------
 Trust Radius=3.00D-01 FncErr=1.00D-07 GrdErr=1.00D-06
 Number of steps in this run=     47 maximum allowed number of steps=    100.
 GradGradGradGradGradGradGradGradGradGradGradGradGradGradGradGradGradGrad

 Leave Link  103 at Wed May 26 09:01:17 2021, MaxMem=  2147483648 cpu:         0.1
 (Enter /opt/cluster/programs/g09_d.01/g09/l202.exe)
                          Input orientation:                          
 ---------------------------------------------------------------------
 Center     Atomic      Atomic             Coordinates (Angstroms)
 Number     Number       Type             X           Y           Z
 ---------------------------------------------------------------------
      1          6           0        0.956576   -1.268341   -0.019007
      2          6           0        0.577784    0.188876   -0.032401
      3          1           0        0.414817   -1.815759    0.760166
      4          1           0        2.025611   -1.360575    0.170466
      5          1           0        0.708926   -1.722214   -0.982896
      6          8           0       -0.707211    0.471671   -0.470818
      7          8           0        1.352953    1.106161    0.194475
      8          6           0       -1.849503   -0.097761    0.233225
      9          1           0       -1.865462   -1.189708    0.153411
     10          1           0       -2.722971    0.318180   -0.263283
     11          1           0       -1.835999    0.210779    1.281976
 ---------------------------------------------------------------------
                    Distance matrix (angstroms):
                    1          2          3          4          5
     1  C    0.000000
     2  C    1.505704   0.000000
     3  H    1.095573   2.161778   0.000000
     4  H    1.089607   2.130295   1.774710   0.000000
     5  H    1.093807   2.138435   1.770174   1.787368   0.000000
     6  O    2.449482   1.386865   2.829594   3.352117   2.660977
     7  O    2.416806   1.222199   3.120532   2.556918   3.130604
     8  C    3.050895   2.458544   2.890732   4.076168   3.265480
     9  H    2.828393   2.811489   2.441263   3.894860   2.863954
    10  H    4.014447   3.311346   3.930249   5.055234   4.056965
    11  H    3.417430   2.748530   3.073323   4.314700   3.916982
                    6          7          8          9         10
     6  O    0.000000
     7  O    2.255985   0.000000
     8  C    1.457656   3.421499   0.000000
     9  H    2.119289   3.953593   1.094976   0.000000
    10  H    2.032220   4.176555   1.087416   1.784007   0.000000
    11  H    2.101074   3.486228   1.093279   1.798858   1.784959
                   11
    11  H    0.000000
 Stoichiometry    C3H6O2
 Framework group  C1[X(C3H6O2)]
 Deg. of freedom    27
 Full point group                 C1      NOp   1
 Largest Abelian subgroup         C1      NOp   1
 Largest concise Abelian subgroup C1      NOp   1
                         Standard orientation:                         
 ---------------------------------------------------------------------
 Center     Atomic      Atomic             Coordinates (Angstroms)
 Number     Number       Type             X           Y           Z
 ---------------------------------------------------------------------
      1          6           0       -0.956576    1.268341   -0.019007
      2          6           0       -0.577784   -0.188876   -0.032401
      3          1           0       -0.414817    1.815759    0.760166
      4          1           0       -2.025611    1.360575    0.170466
      5          1           0       -0.708926    1.722214   -0.982896
      6          8           0        0.707211   -0.471671   -0.470818
      7          8           0       -1.352953   -1.106161    0.194475
      8          6           0        1.849503    0.097761    0.233225
      9          1           0        1.865462    1.189708    0.153411
     10          1           0        2.722971   -0.318179   -0.263283
     11          1           0        1.835999   -0.210779    1.281976
 ---------------------------------------------------------------------
 Rotational constants (GHZ):      8.3926174      4.1869711      3.0681379
 Leave Link  202 at Wed May 26 09:01:17 2021, MaxMem=  2147483648 cpu:         0.0
 (Enter /opt/cluster/programs/g09_d.01/g09/l301.exe)
 Standard basis: 6-31+G (6D, 7F)
 Ernie: Thresh=  0.10000D-02 Tol=  0.10000D-05 Strict=F.
 There are    77 symmetry adapted cartesian basis functions of A   symmetry.
 There are    77 symmetry adapted basis functions of A   symmetry.
    77 basis functions,   154 primitive gaussians,    77 cartesian basis functions
    20 alpha electrons       20 beta electrons
       nuclear repulsion energy       178.5282096189 Hartrees.
 IExCor= 4639 DFT=T Ex+Corr=wB97XD ExCW=0 ScaHFX=  1.000000
 ScaDFX=  1.000000  1.000000  1.000000  1.000000 ScalE2=  1.000000  1.000000
 IRadAn=      0 IRanWt=     -1 IRanGd=            0 ICorTp=0 IEmpDi=121
  HFx wShort=  0.000000 wLong=  0.200000 cFull=  0.222036 cShort=  0.000000 cLong=  0.777964
  DFx wShort=  0.000000 wLong=  0.200000 cFull=  0.000000 cShort=  0.000000 cLong=  1.000000
 NAtoms=   11 NActive=   11 NUniq=   11 SFac= 1.00D+00 NAtFMM=   60 NAOKFM=F Big=F
 Integral buffers will be    131072 words long.
 Raffenetti 2 integral format.
 Two-electron integral symmetry is turned on.
 R6Disp:  Grimme-D2 Dispersion energy=       -0.0037302047 Hartrees.
 Nuclear repulsion after empirical dispersion term =      178.5244794141 Hartrees.
 Leave Link  301 at Wed May 26 09:01:17 2021, MaxMem=  2147483648 cpu:         0.3
 (Enter /opt/cluster/programs/g09_d.01/g09/l302.exe)
 NPDir=0 NMtPBC=     1 NCelOv=     1 NCel=       1 NClECP=     1 NCelD=      1
         NCelK=      1 NCelE2=     1 NClLst=     1 CellRange=     0.0.
 One-electron integrals computed using PRISM.
 NBasis=    77 RedAO= T EigKep=  1.98D-04  NBF=    77
 NBsUse=    77 1.00D-06 EigRej= -1.00D+00 NBFU=    77
 Precomputing XC quadrature grid using
 IXCGrd= 4 IRadAn=           0 IRanWt=          -1 IRanGd=           0 AccXCQ= 0.00D+00.
 Generated NRdTot=       0 NPtTot=           0 NUsed=           0 NTot=          32
 NSgBfM=    77    77    77    77    77 MxSgAt=    11 MxSgA2=    11.
 Leave Link  302 at Wed May 26 09:01:17 2021, MaxMem=  2147483648 cpu:         0.9
 (Enter /opt/cluster/programs/g09_d.01/g09/l303.exe)
 DipDrv:  MaxL=1.
 Leave Link  303 at Wed May 26 09:01:17 2021, MaxMem=  2147483648 cpu:         0.2
 (Enter /opt/cluster/programs/g09_d.01/g09/l401.exe)
 ExpMin= 4.38D-02 ExpMax= 5.48D+03 ExpMxC= 8.25D+02 IAcc=2 IRadAn=         4 AccDes= 0.00D+00
 Harris functional with IExCor= 4639 and IRadAn=       4 diagonalized for initial guess.
 HarFok:  IExCor= 4639 AccDes= 0.00D+00 IRadAn=         4 IDoV= 1 UseB2=F ITyADJ=14
 ICtDFT=  3500011 ScaDFX=  1.000000  1.000000  1.000000  1.000000
 FoFCou: FMM=F IPFlag=           0 FMFlag=      100000 FMFlg1=           0
         NFxFlg=           0 DoJE=T BraDBF=F KetDBF=T FulRan=T
         wScrn=  0.000000 ICntrl=     500 IOpCl=  0 I1Cent=   200000004 NGrid=           0
         NMat0=    1 NMatS0=      1 NMatT0=    0 NMatD0=    1 NMtDS0=    0 NMtDT0=    0
 Petite list used in FoFCou.
 Harris En= -257.356165090022    
 JPrj=0 DoOrth=F DoCkMO=F.
 Leave Link  401 at Wed May 26 09:01:17 2021, MaxMem=  2147483648 cpu:         1.4
 (Enter /opt/cluster/programs/g09_d.01/g09/l502.exe)
 Closed shell SCF:
 Using DIIS extrapolation, IDIIS=  1040.
 Integral symmetry usage will be decided dynamically.
 Keep R1 ints in memory in canonical form, NReq=9956864.
 IVT=       37546 IEndB=       37546 NGot=  2147483648 MDV=  2138425091
 LenX=  2138425091 LenY=  2138418721
 Requested convergence on RMS density matrix=1.00D-08 within 128 cycles.
 Requested convergence on MAX density matrix=1.00D-06.
 Requested convergence on             energy=1.00D-06.
 No special actions if energy rises.
 FoFCou: FMM=F IPFlag=           0 FMFlag=           0 FMFlg1=           0
         NFxFlg=           0 DoJE=F BraDBF=F KetDBF=F FulRan=T
         wScrn=  0.000000 ICntrl=     600 IOpCl=  0 I1Cent=           0 NGrid=           0
         NMat0=    1 NMatS0=   3003 NMatT0=    0 NMatD0=    1 NMtDS0=    0 NMtDT0=    0
 Symmetry not used in FoFCou.

 Cycle   1  Pass 1  IDiag  1:
 E= -268.112721771323    
 DIIS: error= 2.15D-02 at cycle   1 NSaved=   1.
 NSaved= 1 IEnMin= 1 EnMin= -268.112721771323     IErMin= 1 ErrMin= 2.15D-02
 ErrMax= 2.15D-02  0.00D+00 EMaxC= 1.00D-01 BMatC= 1.38D-01 BMatP= 1.38D-01
 IDIUse=3 WtCom= 7.85D-01 WtEn= 2.15D-01
 Coeff-Com:  0.100D+01
 Coeff-En:   0.100D+01
 Coeff:      0.100D+01
 Gap=     0.528 Goal=   None    Shift=    0.000
 GapD=    0.528 DampG=2.000 DampE=0.500 DampFc=1.0000 IDamp=-1.
 RMSDP=9.67D-03 MaxDP=1.79D-01              OVMax= 9.30D-02

 Cycle   2  Pass 1  IDiag  1:
 E= -268.135538271832     Delta-E=       -0.022816500508 Rises=F Damp=F
 DIIS: error= 2.66D-02 at cycle   2 NSaved=   2.
 NSaved= 2 IEnMin= 2 EnMin= -268.135538271832     IErMin= 1 ErrMin= 2.15D-02
 ErrMax= 2.66D-02  0.00D+00 EMaxC= 1.00D-01 BMatC= 8.44D-02 BMatP= 1.38D-01
 IDIUse=3 WtCom= 7.34D-01 WtEn= 2.66D-01
 Coeff-Com:  0.429D+00 0.571D+00
 Coeff-En:   0.411D+00 0.589D+00
 Coeff:      0.424D+00 0.576D+00
 Gap=     0.422 Goal=   None    Shift=    0.000
 RMSDP=4.92D-03 MaxDP=7.34D-02 DE=-2.28D-02 OVMax= 6.48D-02

 Cycle   3  Pass 1  IDiag  1:
 E= -268.194751366374     Delta-E=       -0.059213094542 Rises=F Damp=F
 DIIS: error= 8.98D-03 at cycle   3 NSaved=   3.
 NSaved= 3 IEnMin= 3 EnMin= -268.194751366374     IErMin= 3 ErrMin= 8.98D-03
 ErrMax= 8.98D-03  0.00D+00 EMaxC= 1.00D-01 BMatC= 9.24D-03 BMatP= 8.44D-02
 IDIUse=3 WtCom= 9.10D-01 WtEn= 8.98D-02
 Coeff-Com:  0.912D-01 0.266D+00 0.643D+00
 Coeff-En:   0.000D+00 0.000D+00 0.100D+01
 Coeff:      0.831D-01 0.242D+00 0.675D+00
 Gap=     0.435 Goal=   None    Shift=    0.000
 RMSDP=1.51D-03 MaxDP=2.13D-02 DE=-5.92D-02 OVMax= 2.85D-02

 Cycle   4  Pass 1  IDiag  1:
 E= -268.200343413218     Delta-E=       -0.005592046845 Rises=F Damp=F
 DIIS: error= 3.69D-03 at cycle   4 NSaved=   4.
 NSaved= 4 IEnMin= 4 EnMin= -268.200343413218     IErMin= 4 ErrMin= 3.69D-03
 ErrMax= 3.69D-03  0.00D+00 EMaxC= 1.00D-01 BMatC= 1.71D-03 BMatP= 9.24D-03
 IDIUse=3 WtCom= 9.63D-01 WtEn= 3.69D-02
 Coeff-Com: -0.257D-02 0.591D-01 0.360D+00 0.583D+00
 Coeff-En:   0.000D+00 0.000D+00 0.133D+00 0.867D+00
 Coeff:     -0.247D-02 0.569D-01 0.352D+00 0.594D+00
 Gap=     0.413 Goal=   None    Shift=    0.000
 RMSDP=8.35D-04 MaxDP=1.17D-02 DE=-5.59D-03 OVMax= 1.03D-02

 Cycle   5  Pass 1  IDiag  1:
 E= -268.201556868579     Delta-E=       -0.001213455361 Rises=F Damp=F
 DIIS: error= 1.15D-03 at cycle   5 NSaved=   5.
 NSaved= 5 IEnMin= 5 EnMin= -268.201556868579     IErMin= 5 ErrMin= 1.15D-03
 ErrMax= 1.15D-03  0.00D+00 EMaxC= 1.00D-01 BMatC= 1.07D-04 BMatP= 1.71D-03
 IDIUse=3 WtCom= 9.89D-01 WtEn= 1.15D-02
 Coeff-Com: -0.545D-02 0.136D-01 0.149D+00 0.322D+00 0.521D+00
 Coeff-En:   0.000D+00 0.000D+00 0.000D+00 0.000D+00 0.100D+01
 Coeff:     -0.538D-02 0.135D-01 0.148D+00 0.318D+00 0.526D+00
 Gap=     0.409 Goal=   None    Shift=    0.000
 RMSDP=1.58D-04 MaxDP=2.30D-03 DE=-1.21D-03 OVMax= 2.62D-03

 Cycle   6  Pass 1  IDiag  1:
 E= -268.201641990508     Delta-E=       -0.000085121929 Rises=F Damp=F
 DIIS: error= 1.41D-04 at cycle   6 NSaved=   6.
 NSaved= 6 IEnMin= 6 EnMin= -268.201641990508     IErMin= 6 ErrMin= 1.41D-04
 ErrMax= 1.41D-04  0.00D+00 EMaxC= 1.00D-01 BMatC= 2.62D-06 BMatP= 1.07D-04
 IDIUse=3 WtCom= 9.99D-01 WtEn= 1.41D-03
 Coeff-Com: -0.405D-03-0.771D-02-0.252D-01-0.309D-01 0.781D-01 0.986D+00
 Coeff-En:   0.000D+00 0.000D+00 0.000D+00 0.000D+00 0.000D+00 0.100D+01
 Coeff:     -0.405D-03-0.770D-02-0.252D-01-0.308D-01 0.780D-01 0.986D+00
 Gap=     0.410 Goal=   None    Shift=    0.000
 RMSDP=1.57D-04 MaxDP=2.71D-03 DE=-8.51D-05 OVMax= 8.41D-04

 Cycle   7  Pass 1  IDiag  1:
 E= -268.201646248134     Delta-E=       -0.000004257626 Rises=F Damp=F
 DIIS: error= 4.76D-05 at cycle   7 NSaved=   7.
 NSaved= 7 IEnMin= 7 EnMin= -268.201646248134     IErMin= 7 ErrMin= 4.76D-05
 ErrMax= 4.76D-05  0.00D+00 EMaxC= 1.00D-01 BMatC= 2.52D-07 BMatP= 2.62D-06
 IDIUse=1 WtCom= 1.00D+00 WtEn= 0.00D+00
 Coeff-Com:  0.389D-03-0.354D-02-0.190D-01-0.354D-01-0.777D-02 0.298D+00
 Coeff-Com:  0.767D+00
 Coeff:      0.389D-03-0.354D-02-0.190D-01-0.354D-01-0.777D-02 0.298D+00
 Coeff:      0.767D+00
 Gap=     0.410 Goal=   None    Shift=    0.000
 RMSDP=2.82D-05 MaxDP=4.34D-04 DE=-4.26D-06 OVMax= 2.43D-04

 Cycle   8  Pass 1  IDiag  1:
 E= -268.201646665872     Delta-E=       -0.000000417738 Rises=F Damp=F
 DIIS: error= 1.53D-05 at cycle   8 NSaved=   8.
 NSaved= 8 IEnMin= 8 EnMin= -268.201646665872     IErMin= 8 ErrMin= 1.53D-05
 ErrMax= 1.53D-05  0.00D+00 EMaxC= 1.00D-01 BMatC= 1.69D-08 BMatP= 2.52D-07
 IDIUse=1 WtCom= 1.00D+00 WtEn= 0.00D+00
 Coeff-Com:  0.182D-04 0.693D-03 0.235D-02 0.149D-02-0.470D-02-0.103D+00
 Coeff-Com:  0.208D-02 0.110D+01
 Coeff:      0.182D-04 0.693D-03 0.235D-02 0.149D-02-0.470D-02-0.103D+00
 Coeff:      0.208D-02 0.110D+01
 Gap=     0.410 Goal=   None    Shift=    0.000
 RMSDP=8.29D-06 MaxDP=7.03D-05 DE=-4.18D-07 OVMax= 1.53D-04

 Cycle   9  Pass 1  IDiag  1:
 E= -268.201646713932     Delta-E=       -0.000000048060 Rises=F Damp=F
 DIIS: error= 5.13D-06 at cycle   9 NSaved=   9.
 NSaved= 9 IEnMin= 9 EnMin= -268.201646713932     IErMin= 9 ErrMin= 5.13D-06
 ErrMax= 5.13D-06  0.00D+00 EMaxC= 1.00D-01 BMatC= 6.63D-10 BMatP= 1.69D-08
 IDIUse=1 WtCom= 1.00D+00 WtEn= 0.00D+00
 Coeff-Com: -0.212D-04 0.171D-03 0.106D-02 0.194D-02 0.161D-02-0.990D-02
 Coeff-Com: -0.468D-01-0.911D-01 0.114D+01
 Coeff:     -0.212D-04 0.171D-03 0.106D-02 0.194D-02 0.161D-02-0.990D-02
 Coeff:     -0.468D-01-0.911D-01 0.114D+01
 Gap=     0.410 Goal=   None    Shift=    0.000
 RMSDP=2.99D-06 MaxDP=4.22D-05 DE=-4.81D-08 OVMax= 4.45D-05

 Cycle  10  Pass 1  IDiag  1:
 E= -268.201646716809     Delta-E=       -0.000000002877 Rises=F Damp=F
 DIIS: error= 1.46D-06 at cycle  10 NSaved=  10.
 NSaved=10 IEnMin=10 EnMin= -268.201646716809     IErMin=10 ErrMin= 1.46D-06
 ErrMax= 1.46D-06  0.00D+00 EMaxC= 1.00D-01 BMatC= 4.73D-11 BMatP= 6.63D-10
 IDIUse=1 WtCom= 1.00D+00 WtEn= 0.00D+00
 Coeff-Com: -0.756D-06-0.386D-04-0.120D-03-0.107D-03 0.367D-03 0.611D-02
 Coeff-Com: -0.142D-02-0.636D-01 0.326D-01 0.103D+01
 Coeff:     -0.756D-06-0.386D-04-0.120D-03-0.107D-03 0.367D-03 0.611D-02
 Coeff:     -0.142D-02-0.636D-01 0.326D-01 0.103D+01
 Gap=     0.410 Goal=   None    Shift=    0.000
 RMSDP=6.90D-07 MaxDP=1.08D-05 DE=-2.88D-09 OVMax= 9.55D-06

 Cycle  11  Pass 1  IDiag  1:
 E= -268.201646716992     Delta-E=       -0.000000000183 Rises=F Damp=F
 DIIS: error= 4.73D-07 at cycle  11 NSaved=  11.
 NSaved=11 IEnMin=11 EnMin= -268.201646716992     IErMin=11 ErrMin= 4.73D-07
 ErrMax= 4.73D-07  0.00D+00 EMaxC= 1.00D-01 BMatC= 1.05D-11 BMatP= 4.73D-11
 IDIUse=1 WtCom= 1.00D+00 WtEn= 0.00D+00
 Coeff-Com:  0.202D-05-0.329D-04-0.163D-03-0.271D-03-0.107D-03 0.316D-02
 Coeff-Com:  0.490D-02-0.920D-02-0.126D+00 0.330D+00 0.798D+00
 Coeff:      0.202D-05-0.329D-04-0.163D-03-0.271D-03-0.107D-03 0.316D-02
 Coeff:      0.490D-02-0.920D-02-0.126D+00 0.330D+00 0.798D+00
 Gap=     0.410 Goal=   None    Shift=    0.000
 RMSDP=1.46D-07 MaxDP=2.24D-06 DE=-1.83D-10 OVMax= 2.84D-06

 Cycle  12  Pass 1  IDiag  1:
 E= -268.201646717019     Delta-E=       -0.000000000027 Rises=F Damp=F
 DIIS: error= 1.82D-07 at cycle  12 NSaved=  12.
 NSaved=12 IEnMin=12 EnMin= -268.201646717019     IErMin=12 ErrMin= 1.82D-07
 ErrMax= 1.82D-07  0.00D+00 EMaxC= 1.00D-01 BMatC= 6.52D-13 BMatP= 1.05D-11
 IDIUse=1 WtCom= 1.00D+00 WtEn= 0.00D+00
 Coeff-Com: -0.182D-06 0.802D-05 0.322D-04 0.422D-04-0.716D-04-0.104D-02
 Coeff-Com: -0.502D-03 0.808D-02 0.130D-01-0.165D+00-0.108D+00 0.125D+01
 Coeff:     -0.182D-06 0.802D-05 0.322D-04 0.422D-04-0.716D-04-0.104D-02
 Coeff:     -0.502D-03 0.808D-02 0.130D-01-0.165D+00-0.108D+00 0.125D+01
 Gap=     0.410 Goal=   None    Shift=    0.000
 RMSDP=7.46D-08 MaxDP=1.07D-06 DE=-2.70D-11 OVMax= 1.75D-06

 Cycle  13  Pass 1  IDiag  1:
 E= -268.201646717025     Delta-E=       -0.000000000006 Rises=F Damp=F
 DIIS: error= 3.53D-08 at cycle  13 NSaved=  13.
 NSaved=13 IEnMin=13 EnMin= -268.201646717025     IErMin=13 ErrMin= 3.53D-08
 ErrMax= 3.53D-08  0.00D+00 EMaxC= 1.00D-01 BMatC= 2.81D-14 BMatP= 6.52D-13
 IDIUse=1 WtCom= 1.00D+00 WtEn= 0.00D+00
 Coeff-Com: -0.603D-07-0.384D-06 0.111D-05 0.548D-05 0.194D-04 0.122D-03
 Coeff-Com: -0.127D-03-0.171D-02 0.381D-02 0.247D-01-0.134D-01-0.310D+00
 Coeff-Com:  0.130D+01
 Coeff:     -0.603D-07-0.384D-06 0.111D-05 0.548D-05 0.194D-04 0.122D-03
 Coeff:     -0.127D-03-0.171D-02 0.381D-02 0.247D-01-0.134D-01-0.310D+00
 Coeff:      0.130D+01
 Gap=     0.410 Goal=   None    Shift=    0.000
 RMSDP=2.08D-08 MaxDP=3.03D-07 DE=-6.25D-12 OVMax= 4.25D-07

 Cycle  14  Pass 1  IDiag  1:
 E= -268.201646717025     Delta-E=        0.000000000000 Rises=F Damp=F
 DIIS: error= 9.98D-09 at cycle  14 NSaved=  14.
 NSaved=14 IEnMin=13 EnMin= -268.201646717025     IErMin=14 ErrMin= 9.98D-09
 ErrMax= 9.98D-09  0.00D+00 EMaxC= 1.00D-01 BMatC= 1.66D-15 BMatP= 2.81D-14
 IDIUse=1 WtCom= 1.00D+00 WtEn= 0.00D+00
 Coeff-Com:  0.306D-07-0.141D-06-0.173D-05-0.368D-05-0.388D-05-0.715D-05
 Coeff-Com:  0.705D-04 0.287D-03-0.183D-02-0.258D-02 0.917D-02 0.700D-01
 Coeff-Com: -0.558D+00 0.148D+01
 Coeff:      0.306D-07-0.141D-06-0.173D-05-0.368D-05-0.388D-05-0.715D-05
 Coeff:      0.705D-04 0.287D-03-0.183D-02-0.258D-02 0.917D-02 0.700D-01
 Coeff:     -0.558D+00 0.148D+01
 Gap=     0.410 Goal=   None    Shift=    0.000
 RMSDP=3.74D-09 MaxDP=4.05D-08 DE= 3.98D-13 OVMax= 1.32D-07

 SCF Done:  E(RwB97XD) =  -268.201646717     A.U. after   14 cycles
            NFock= 14  Conv=0.37D-08     -V/T= 2.0057
 KE= 2.666733761086D+02 PE=-9.845412672440D+02 EE= 2.711417650042D+02
 Leave Link  502 at Wed May 26 09:01:19 2021, MaxMem=  2147483648 cpu:        15.5
 (Enter /opt/cluster/programs/g09_d.01/g09/l601.exe)
 Copying SCF densities to generalized density rwf, IOpCl= 0 IROHF=0.

 **********************************************************************

            Population analysis using the SCF density.

 **********************************************************************

 Orbital symmetries:
       Occupied  (A) (A) (A) (A) (A) (A) (A) (A) (A) (A) (A) (A)
                 (A) (A) (A) (A) (A) (A) (A) (A)
       Virtual   (A) (A) (A) (A) (A) (A) (A) (A) (A) (A) (A) (A)
                 (A) (A) (A) (A) (A) (A) (A) (A) (A) (A) (A) (A)
                 (A) (A) (A) (A) (A) (A) (A) (A) (A) (A) (A) (A)
                 (A) (A) (A) (A) (A) (A) (A) (A) (A) (A) (A) (A)
                 (A) (A) (A) (A) (A) (A) (A) (A) (A)
 The electronic state is 1-A.
 Alpha  occ. eigenvalues --  -19.31154 -19.28183 -10.45374 -10.36855 -10.31925
 Alpha  occ. eigenvalues --   -1.21536  -1.13952  -0.87245  -0.83184  -0.66890
 Alpha  occ. eigenvalues --   -0.60140  -0.58627  -0.57545  -0.53758  -0.52032
 Alpha  occ. eigenvalues --   -0.50911  -0.47506  -0.42566  -0.38515  -0.36502
 Alpha virt. eigenvalues --    0.04456   0.06441   0.07720   0.09466   0.09631
 Alpha virt. eigenvalues --    0.11813   0.12515   0.12886   0.14570   0.14798
 Alpha virt. eigenvalues --    0.16351   0.17128   0.19316   0.21719   0.23894
 Alpha virt. eigenvalues --    0.27166   0.27194   0.28781   0.29693   0.32204
 Alpha virt. eigenvalues --    0.32954   0.35062   0.36332   0.37584   0.38889
 Alpha virt. eigenvalues --    0.39897   0.40900   0.42813   0.44323   0.45576
 Alpha virt. eigenvalues --    0.56477   0.68552   0.72053   0.73891   0.75932
 Alpha virt. eigenvalues --    0.78418   0.79761   0.85556   0.92693   0.93705
 Alpha virt. eigenvalues --    1.07193   1.10146   1.10852   1.14952   1.16560
 Alpha virt. eigenvalues --    1.20910   1.23923   1.29296   1.34179   1.37833
 Alpha virt. eigenvalues --    1.42527   1.43695   1.44332   1.49412   1.61704
 Alpha virt. eigenvalues --    1.91235   2.01080
          Condensed to atoms (all electrons):
               1          2          3          4          5          6
     1  C    6.608752  -0.310074   0.335228   0.350437   0.377726  -0.467007
     2  C   -0.310074   5.588128  -0.014711  -0.011769  -0.048068   0.183800
     3  H    0.335228  -0.014711   0.486977  -0.020777  -0.025075  -0.000715
     4  H    0.350437  -0.011769  -0.020777   0.445069  -0.020227   0.009062
     5  H    0.377726  -0.048068  -0.025075  -0.020227   0.456849   0.008177
     6  O   -0.467007   0.183800  -0.000715   0.009062   0.008177   8.829108
     7  O   -0.168414   0.332920   0.002645  -0.003232   0.001919  -0.184934
     8  C   -0.067828  -0.095723   0.010087   0.000096  -0.003578   0.081041
     9  H    0.001718   0.002654  -0.001221  -0.000044   0.000615  -0.040718
    10  H   -0.003486  -0.000122   0.000116   0.000001  -0.000031  -0.053203
    11  H    0.003814  -0.007501  -0.000215   0.000002   0.000036  -0.052856
               7          8          9         10         11
     1  C   -0.168414  -0.067828   0.001718  -0.003486   0.003814
     2  C    0.332920  -0.095723   0.002654  -0.000122  -0.007501
     3  H    0.002645   0.010087  -0.001221   0.000116  -0.000215
     4  H   -0.003232   0.000096  -0.000044   0.000001   0.000002
     5  H    0.001919  -0.003578   0.000615  -0.000031   0.000036
     6  O   -0.184934   0.081041  -0.040718  -0.053203  -0.052856
     7  O    8.389868   0.007574  -0.002965  -0.000205   0.006185
     8  C    0.007574   5.311194   0.368424   0.405421   0.384820
     9  H   -0.002965   0.368424   0.546299  -0.027598  -0.042043
    10  H   -0.000205   0.405421  -0.027598   0.472520  -0.027099
    11  H    0.006185   0.384820  -0.042043  -0.027099   0.519074
 Mulliken charges:
               1
     1  C   -0.660865
     2  C    0.380465
     3  H    0.227660
     4  H    0.251381
     5  H    0.251656
     6  O   -0.311756
     7  O   -0.381361
     8  C   -0.401529
     9  H    0.194879
    10  H    0.233686
    11  H    0.215784
 Sum of Mulliken charges =   0.00000
 Mulliken charges with hydrogens summed into heavy atoms:
               1
     1  C    0.069832
     2  C    0.380465
     6  O   -0.311756
     7  O   -0.381361
     8  C    0.242821
 Electronic spatial extent (au):  <R**2>=            435.1481
 Charge=              0.0000 electrons
 Dipole moment (field-independent basis, Debye):
    X=              2.4183    Y=              3.9940    Z=              0.8854  Tot=              4.7523
 Quadrupole moment (field-independent basis, Debye-Ang):
   XX=            -28.8540   YY=            -33.1315   ZZ=            -30.5296
   XY=             -3.3110   XZ=              2.2136   YZ=             -0.3299
 Traceless Quadrupole moment (field-independent basis, Debye-Ang):
   XX=              1.9844   YY=             -2.2931   ZZ=              0.3088
   XY=             -3.3110   XZ=              2.2136   YZ=             -0.3299
 Octapole moment (field-independent basis, Debye-Ang**2):
  XXX=             14.2393  YYY=              3.5613  ZZZ=              0.3523  XYY=              2.8009
  XXY=              4.7916  XXZ=             -0.7382  XZZ=             -0.2476  YZZ=             -0.1462
  YYZ=             -0.5219  XYZ=             -1.3320
 Hexadecapole moment (field-independent basis, Debye-Ang**3):
 XXXX=           -308.0204 YYYY=           -178.9765 ZZZZ=            -52.9601 XXXY=            -12.1535
 XXXZ=             -2.3968 YYYX=             -1.1381 YYYZ=              0.0526 ZZZX=              1.4945
 ZZZY=             -1.9345 XXYY=            -87.7217 XXZZ=            -63.8650 YYZZ=            -36.3529
 XXYZ=              1.9823 YYXZ=              0.9998 ZZXY=              0.3882
 N-N= 1.785244794141D+02 E-N=-9.845412673289D+02  KE= 2.666733761086D+02
 No NMR shielding tensors so no spin-rotation constants.
 Leave Link  601 at Wed May 26 09:01:19 2021, MaxMem=  2147483648 cpu:         0.6
 (Enter /opt/cluster/programs/g09_d.01/g09/l701.exe)
 Compute integral first derivatives.
 ... and contract with generalized density number  0.
 R6Disp: Adding Grimme-D2 dispersion energy 1st derivatives to the gradient.
 Leave Link  701 at Wed May 26 09:01:19 2021, MaxMem=  2147483648 cpu:         0.6
 (Enter /opt/cluster/programs/g09_d.01/g09/l702.exe)
 L702 exits ... SP integral derivatives will be done elsewhere.
 Leave Link  702 at Wed May 26 09:01:19 2021, MaxMem=  2147483648 cpu:         0.2
 (Enter /opt/cluster/programs/g09_d.01/g09/l703.exe)
 Compute integral first derivatives, UseDBF=F ICtDFT=           0.
 Integral derivatives from FoFJK, PRISM(SPDF).
 Calling FoFJK, ICntrl=      2127 FMM=F ISym2X=0 I1Cent= 0 IOpClX= 0 NMat=1 NMatS=1 NMatT=0.
 FoFJK:  IHMeth= 1 ICntrl=    2127 DoSepK=T KAlg= 0 I1Cent=   0 FoldK=F
 IRaf=         1 NMat=   1 IRICut=       1 DoRegI=T DoRafI=F ISym2E= 0.
 FoFCou: FMM=F IPFlag=           0 FMFlag=      100000 FMFlg1=         800
         NFxFlg=           0 DoJE=F BraDBF=F KetDBF=F FulRan=T
         wScrn=  0.000000 ICntrl=    2527 IOpCl=  0 I1Cent=           0 NGrid=           0
         NMat0=    1 NMatS0=      1 NMatT0=    0 NMatD0=    1 NMtDS0=    0 NMtDT0=    0
 Symmetry not used in FoFCou.
 Leave Link  703 at Wed May 26 09:01:20 2021, MaxMem=  2147483648 cpu:         3.7
 (Enter /opt/cluster/programs/g09_d.01/g09/l716.exe)
 Dipole        = 9.51441100D-01 1.57136429D+00 3.48342831D-01
 ***** Axes restored to original set *****
 -------------------------------------------------------------------
 Center     Atomic                   Forces (Hartrees/Bohr)
 Number     Number              X              Y              Z
 -------------------------------------------------------------------
      1        6          -0.001341114   -0.000331537    0.003714548
      2        6           0.002036414   -0.001295628   -0.006791379
      3        1          -0.000006871   -0.000006728   -0.000009467
      4        1          -0.000005620   -0.000010970   -0.000009594
      5        1          -0.000011554    0.000005347   -0.000009668
      6        8          -0.000809321    0.005017883    0.005631368
      7        8           0.000004473   -0.000012340    0.000004308
      8        6           0.000125416   -0.003391347   -0.002548559
      9        1          -0.000002304    0.000008407   -0.000000302
     10        1           0.000003713    0.000016041    0.000009954
     11        1           0.000006769    0.000000872    0.000008790
 -------------------------------------------------------------------
 Cartesian Forces:  Max     0.006791379 RMS     0.002083229
 Leave Link  716 at Wed May 26 09:01:20 2021, MaxMem=  2147483648 cpu:         0.2
 (Enter /opt/cluster/programs/g09_d.01/g09/l103.exe)

 GradGradGradGradGradGradGradGradGradGradGradGradGradGradGradGradGradGrad
 Berny optimization.
 FormGI is forming the generalized inverse of G from B-inverse, IUseBI=4.
 Internal  Forces:  Max     0.006277685 RMS     0.001314300
 Search for a local minimum.
 Step number   1 out of a maximum of   47
 All quantities printed in internal units (Hartrees-Bohrs-Radians)
 RMS Force = .27449D-05 SwitMx=.10000D-02 MixMth= 2
 Mixed Optimization -- En-DIIS/RFO-DIIS
 Second derivative matrix not updated -- first step.
 ITU=  0
     Eigenvalues ---    0.00690   0.00929   0.01166   0.07287   0.07439
     Eigenvalues ---    0.09945   0.10622   0.16000   0.16000   0.16000
     Eigenvalues ---    0.16000   0.16000   0.16000   0.24848   0.25000
     Eigenvalues ---    0.25000   0.31786   0.34176   0.34244   0.34376
     Eigenvalues ---    0.34436   0.34858   0.35113   0.37259   0.47868
     Eigenvalues ---    0.944151000.000001000.000001000.000001000.00000
     Eigenvalues --- 1000.000001000.000001000.000001000.000001000.00000
     Eigenvalues --- 1000.000001000.00000
 RFO step:  Lambda= 0.00000000D+00 EMin= 6.90496088D-03
 Linear search not attempted -- first point.
 Iteration  1 RMS(Cart)=  0.00006998 RMS(Int)=  0.00000000
 Iteration  2 RMS(Cart)=  0.00000000 RMS(Int)=  0.00000000
 Iteration  1 RMS(Cart)=  0.00000000 RMS(Int)=  0.00000000
 ITry= 1 IFail=0 DXMaxC= 2.54D-04 DCOld= 1.00D+10 DXMaxT= 3.00D-01 DXLimC= 3.00D+00 Rises=F
 Variable       Old X    -DE/DX   Delta X   Delta X   Delta X     New X
                                 (Linear)    (Quad)   (Total)
    R1        2.84537   0.00000   0.00000   0.00001   0.00001   2.84538
    R2        2.07033   0.00000   0.00000   0.00000   0.00000   2.07033
    R3        2.05906   0.00000   0.00000   0.00000   0.00000   2.05906
    R4        2.06700   0.00000   0.00000   0.00000   0.00000   2.06699
    R5        2.62080  -0.00001   0.00000  -0.00001  -0.00001   2.62078
    R6        2.30962  -0.00001   0.00000  -0.00001  -0.00001   2.30962
    R7        2.75457   0.00000   0.00000  -0.00001  -0.00001   2.75456
    R8        2.06921   0.00000   0.00000   0.00000   0.00000   2.06920
    R9        2.05492   0.00000   0.00000   0.00000   0.00000   2.05492
   R10        2.06600   0.00000   0.00000   0.00000   0.00000   2.06600
    A1        1.94496   0.00000   0.00000  -0.00001  -0.00001   1.94495
    A2        1.90741   0.00000   0.00000   0.00000   0.00000   1.90741
    A3        1.91430  -0.00001   0.00000  -0.00004  -0.00004   1.91426
    A4        1.89568   0.00000   0.00000   0.00001   0.00001   1.89569
    A5        1.88329   0.00000   0.00000   0.00001   0.00001   1.88330
    A6        1.91798   0.00000   0.00000   0.00003   0.00003   1.91801
    A7        2.01889   0.00006   0.00000  -0.00003  -0.00003   2.01886
    A8        2.17140   0.00038   0.00000   0.00002   0.00002   2.17142
    A9        2.08667  -0.00018   0.00000   0.00000   0.00000   2.08667
   A10        2.08719  -0.00001   0.00000  -0.00002  -0.00002   2.08716
   A11        1.94527   0.00000   0.00000  -0.00001  -0.00001   1.94527
   A12        1.83331   0.00000   0.00000   0.00001   0.00001   1.83332
   A13        1.92133   0.00000   0.00000  -0.00001  -0.00001   1.92132
   A14        1.91395   0.00000   0.00000   0.00001   0.00001   1.91396
   A15        1.93001   0.00000   0.00000  -0.00001  -0.00001   1.93000
   A16        1.91768   0.00000   0.00000   0.00000   0.00000   1.91769
    D1       -1.21806   0.00123   0.00000  -0.00010  -0.00010  -1.21817
    D2        2.04413  -0.00123   0.00000   0.00003   0.00003   2.04417
    D3        2.96990   0.00123   0.00000  -0.00011  -0.00011   2.96979
    D4       -0.05109  -0.00123   0.00000   0.00003   0.00003  -0.05106
    D5        0.86623   0.00123   0.00000  -0.00012  -0.00012   0.86611
    D6       -2.15476  -0.00123   0.00000   0.00002   0.00002  -2.15474
    D7        1.03647  -0.00628   0.00000   0.00000   0.00000   1.03647
    D8       -2.21948  -0.00390   0.00000  -0.00013  -0.00013  -2.21961
    D9       -1.12714   0.00000   0.00000   0.00005   0.00005  -1.12710
   D10        3.08465   0.00000   0.00000   0.00003   0.00003   3.08468
   D11        1.02108   0.00000   0.00000   0.00003   0.00003   1.02111
         Item               Value     Threshold  Converged?
 Maximum Force            0.000007     0.000450     YES
 RMS     Force            0.000003     0.000300     YES
 Maximum Displacement     0.000254     0.001800     YES
 RMS     Displacement     0.000070     0.001200     YES
 Predicted change in Energy=-8.641223D-10
 Optimization completed.
    -- Stationary point found.
                           ----------------------------
                           !   Optimized Parameters   !
                           ! (Angstroms and Degrees)  !
 --------------------------                            --------------------------
 ! Name  Definition              Value          Derivative Info.                !
 --------------------------------------------------------------------------------
 ! R1    R(1,2)                  1.5057         -DE/DX =    0.0                 !
 ! R2    R(1,3)                  1.0956         -DE/DX =    0.0                 !
 ! R3    R(1,4)                  1.0896         -DE/DX =    0.0                 !
 ! R4    R(1,5)                  1.0938         -DE/DX =    0.0                 !
 ! R5    R(2,6)                  1.3869         -DE/DX =    0.0                 !
 ! R6    R(2,7)                  1.2222         -DE/DX =    0.0                 !
 ! R7    R(6,8)                  1.4577         -DE/DX =    0.0                 !
 ! R8    R(8,9)                  1.095          -DE/DX =    0.0                 !
 ! R9    R(8,10)                 1.0874         -DE/DX =    0.0                 !
 ! R10   R(8,11)                 1.0933         -DE/DX =    0.0                 !
 ! A1    A(2,1,3)              111.4383         -DE/DX =    0.0                 !
 ! A2    A(2,1,4)              109.2865         -DE/DX =    0.0                 !
 ! A3    A(2,1,5)              109.6813         -DE/DX =    0.0                 !
 ! A4    A(3,1,4)              108.6142         -DE/DX =    0.0                 !
 ! A5    A(3,1,5)              107.9046         -DE/DX =    0.0                 !
 ! A6    A(4,1,5)              109.892          -DE/DX =    0.0                 !
 ! A7    A(1,2,6)              115.6739         -DE/DX =    0.0001              !
 ! A8    A(1,2,7)              124.4123         -DE/DX =    0.0004              !
 ! A9    A(6,2,7)              119.5575         -DE/DX =   -0.0002              !
 ! A10   A(2,6,8)              119.5871         -DE/DX =    0.0                 !
 ! A11   A(6,8,9)              111.4558         -DE/DX =    0.0                 !
 ! A12   A(6,8,10)             105.0409         -DE/DX =    0.0                 !
 ! A13   A(6,8,11)             110.0841         -DE/DX =    0.0                 !
 ! A14   A(9,8,10)             109.6612         -DE/DX =    0.0                 !
 ! A15   A(9,8,11)             110.5814         -DE/DX =    0.0                 !
 ! A16   A(10,8,11)            109.8751         -DE/DX =    0.0                 !
 ! D1    D(3,1,2,6)            -69.7899         -DE/DX =    0.0012              !
 ! D2    D(3,1,2,7)            117.1202         -DE/DX =   -0.0012              !
 ! D3    D(4,1,2,6)            170.1627         -DE/DX =    0.0012              !
 ! D4    D(4,1,2,7)             -2.9272         -DE/DX =   -0.0012              !
 ! D5    D(5,1,2,6)             49.6314         -DE/DX =    0.0012              !
 ! D6    D(5,1,2,7)           -123.4585         -DE/DX =   -0.0012              !
 ! D7    D(1,2,6,8)             59.3853         -DE/DX =   -0.0063              !
 ! D8    D(7,2,6,8)           -127.1668         -DE/DX =   -0.0039              !
 ! D9    D(2,6,8,9)            -64.5806         -DE/DX =    0.0                 !
 ! D10   D(2,6,8,10)           176.7376         -DE/DX =    0.0                 !
 ! D11   D(2,6,8,11)            58.5035         -DE/DX =    0.0                 !
 --------------------------------------------------------------------------------
 Lowest energy point so far.  Saving SCF results.
 GradGradGradGradGradGradGradGradGradGradGradGradGradGradGradGradGradGrad

 Largest change from initial coordinates is atom    7       0.000 Angstoms.
 Leave Link  103 at Wed May 26 09:01:20 2021, MaxMem=  2147483648 cpu:         0.1
 (Enter /opt/cluster/programs/g09_d.01/g09/l202.exe)
                          Input orientation:                          
 ---------------------------------------------------------------------
 Center     Atomic      Atomic             Coordinates (Angstroms)
 Number     Number       Type             X           Y           Z
 ---------------------------------------------------------------------
      1          6           0        0.956576   -1.268341   -0.019007
      2          6           0        0.577784    0.188876   -0.032401
      3          1           0        0.414817   -1.815759    0.760166
      4          1           0        2.025611   -1.360575    0.170466
      5          1           0        0.708926   -1.722214   -0.982896
      6          8           0       -0.707211    0.471671   -0.470818
      7          8           0        1.352953    1.106161    0.194475
      8          6           0       -1.849503   -0.097761    0.233225
      9          1           0       -1.865462   -1.189708    0.153411
     10          1           0       -2.722971    0.318180   -0.263283
     11          1           0       -1.835999    0.210779    1.281976
 ---------------------------------------------------------------------
                    Distance matrix (angstroms):
                    1          2          3          4          5
     1  C    0.000000
     2  C    1.505704   0.000000
     3  H    1.095573   2.161778   0.000000
     4  H    1.089607   2.130295   1.774710   0.000000
     5  H    1.093807   2.138435   1.770174   1.787368   0.000000
     6  O    2.449482   1.386865   2.829594   3.352117   2.660977
     7  O    2.416806   1.222199   3.120532   2.556918   3.130604
     8  C    3.050895   2.458544   2.890732   4.076168   3.265480
     9  H    2.828393   2.811489   2.441263   3.894860   2.863954
    10  H    4.014447   3.311346   3.930249   5.055234   4.056965
    11  H    3.417430   2.748530   3.073323   4.314700   3.916982
                    6          7          8          9         10
     6  O    0.000000
     7  O    2.255985   0.000000
     8  C    1.457656   3.421499   0.000000
     9  H    2.119289   3.953593   1.094976   0.000000
    10  H    2.032220   4.176555   1.087416   1.784007   0.000000
    11  H    2.101074   3.486228   1.093279   1.798858   1.784959
                   11
    11  H    0.000000
 Stoichiometry    C3H6O2
 Framework group  C1[X(C3H6O2)]
 Deg. of freedom    27
 Full point group                 C1      NOp   1
 RotChk:  IX=0 Diff= 5.72D-16
 Largest Abelian subgroup         C1      NOp   1
 Largest concise Abelian subgroup C1      NOp   1
                         Standard orientation:                         
 ---------------------------------------------------------------------
 Center     Atomic      Atomic             Coordinates (Angstroms)
 Number     Number       Type             X           Y           Z
 ---------------------------------------------------------------------
      1          6           0       -0.956576    1.268341   -0.019007
      2          6           0       -0.577784   -0.188876   -0.032401
      3          1           0       -0.414817    1.815759    0.760166
      4          1           0       -2.025611    1.360575    0.170466
      5          1           0       -0.708926    1.722214   -0.982896
      6          8           0        0.707211   -0.471671   -0.470818
      7          8           0       -1.352953   -1.106161    0.194475
      8          6           0        1.849503    0.097761    0.233225
      9          1           0        1.865462    1.189708    0.153411
     10          1           0        2.722971   -0.318179   -0.263283
     11          1           0        1.835999   -0.210779    1.281976
 ---------------------------------------------------------------------
 Rotational constants (GHZ):      8.3926174      4.1869711      3.0681379
 Leave Link  202 at Wed May 26 09:01:20 2021, MaxMem=  2147483648 cpu:         0.0
 (Enter /opt/cluster/programs/g09_d.01/g09/l9999.exe)
 1\1\GINC-NODE11\FOpt\RwB97XD\6-31+G\C3H6O2\BOITTIER\26-May-2021\0\\#p 
 wB97XD/6-31+G Opt=ModRedun\\O.pdb\\0,1\C,0.956576,-1.268341,-0.019007\
 C,0.577784,0.188876,-0.032401\H,0.414817,-1.815759,0.760166\H,2.025611
 ,-1.360575,0.170466\H,0.708926,-1.722214,-0.982896\O,-0.707211,0.47167
 1,-0.470818\O,1.352953,1.106161,0.194475\C,-1.849503,-0.097761,0.23322
 5\H,-1.865462,-1.189708,0.153411\H,-2.722971,0.31818,-0.263283\H,-1.83
 5999,0.210779,1.281976\\Version=ES64L-G09RevD.01\State=1-A\HF=-268.201
 6467\RMSD=3.739e-09\RMSF=2.083e-03\Dipole=-0.9514414,-1.5713641,0.3483
 428\Quadrupole=1.4753173,-1.7048874,0.2295701,-2.4616547,-1.6457847,0.
 2452411\PG=C01 [X(C3H6O2)]\\@


 THE WHOLE OF SCIENCE IS NOTHING MORE THAN A REFINEMENT OF EVERYDAY THINKING.
                                                              -- A. EINSTEIN
 Job cpu time:       0 days  0 hours  0 minutes 28.7 seconds.
 File lengths (MBytes):  RWF=      5 Int=      0 D2E=      0 Chk=      2 Scr=      1
 Normal termination of Gaussian 09 at Wed May 26 09:01:20 2021.
