 Entering Gaussian System, Link 0=/opt/cluster/programs/g09_d.01/g09//g09
 Input=/home/unibas/boittier/RDKit_G2/O.pdb/SCAN_1_2_6_8_S_17_20.0/10_SCAN_1_2_6_8_F/10_SCAN_O.pdb.com
 Output=/scratch/boittier/10_SCAN_O.pdb/10_SCAN_O.pdb.out
 Initial command:
 /opt/cluster/programs/g09_d.01/g09/l1.exe "/scratch/boittier/10_SCAN_O.pdb/Gau-147537.inp" -scrdir="/scratch/boittier/10_SCAN_O.pdb/"
 Entering Link 1 = /opt/cluster/programs/g09_d.01/g09/l1.exe PID=    147538.
  
 Copyright (c) 1988,1990,1992,1993,1995,1998,2003,2009,2013,
            Gaussian, Inc.  All Rights Reserved.
  
 This is part of the Gaussian(R) 09 program.  It is based on
 the Gaussian(R) 03 system (copyright 2003, Gaussian, Inc.),
 the Gaussian(R) 98 system (copyright 1998, Gaussian, Inc.),
 the Gaussian(R) 94 system (copyright 1995, Gaussian, Inc.),
 the Gaussian 92(TM) system (copyright 1992, Gaussian, Inc.),
 the Gaussian 90(TM) system (copyright 1990, Gaussian, Inc.),
 the Gaussian 88(TM) system (copyright 1988, Gaussian, Inc.),
 the Gaussian 86(TM) system (copyright 1986, Carnegie Mellon
 University), and the Gaussian 82(TM) system (copyright 1983,
 Carnegie Mellon University). Gaussian is a federally registered
 trademark of Gaussian, Inc.
  
 This software contains proprietary and confidential information,
 including trade secrets, belonging to Gaussian, Inc.
  
 This software is provided under written license and may be
 used, copied, transmitted, or stored only in accord with that
 written license.
  
 The following legend is applicable only to US Government
 contracts under FAR:
  
                    RESTRICTED RIGHTS LEGEND
  
 Use, reproduction and disclosure by the US Government is
 subject to restrictions as set forth in subparagraphs (a)
 and (c) of the Commercial Computer Software - Restricted
 Rights clause in FAR 52.227-19.
  
 Gaussian, Inc.
 340 Quinnipiac St., Bldg. 40, Wallingford CT 06492
  
  
 ---------------------------------------------------------------
 Warning -- This program may not be used in any manner that
 competes with the business of Gaussian, Inc. or will provide
 assistance to any competitor of Gaussian, Inc.  The licensee
 of this program is prohibited from giving any competitor of
 Gaussian, Inc. access to this program.  By using this program,
 the user acknowledges that Gaussian, Inc. is engaged in the
 business of creating and licensing software in the field of
 computational chemistry and represents and warrants to the
 licensee that it is not a competitor of Gaussian, Inc. and that
 it will not use this program in any manner prohibited above.
 ---------------------------------------------------------------
  

 Cite this work as:
 Gaussian 09, Revision D.01,
 M. J. Frisch, G. W. Trucks, H. B. Schlegel, G. E. Scuseria, 
 M. A. Robb, J. R. Cheeseman, G. Scalmani, V. Barone, B. Mennucci, 
 G. A. Petersson, H. Nakatsuji, M. Caricato, X. Li, H. P. Hratchian, 
 A. F. Izmaylov, J. Bloino, G. Zheng, J. L. Sonnenberg, M. Hada, 
 M. Ehara, K. Toyota, R. Fukuda, J. Hasegawa, M. Ishida, T. Nakajima, 
 Y. Honda, O. Kitao, H. Nakai, T. Vreven, J. A. Montgomery, Jr., 
 J. E. Peralta, F. Ogliaro, M. Bearpark, J. J. Heyd, E. Brothers, 
 K. N. Kudin, V. N. Staroverov, T. Keith, R. Kobayashi, J. Normand, 
 K. Raghavachari, A. Rendell, J. C. Burant, S. S. Iyengar, J. Tomasi, 
 M. Cossi, N. Rega, J. M. Millam, M. Klene, J. E. Knox, J. B. Cross, 
 V. Bakken, C. Adamo, J. Jaramillo, R. Gomperts, R. E. Stratmann, 
 O. Yazyev, A. J. Austin, R. Cammi, C. Pomelli, J. W. Ochterski, 
 R. L. Martin, K. Morokuma, V. G. Zakrzewski, G. A. Voth, 
 P. Salvador, J. J. Dannenberg, S. Dapprich, A. D. Daniels, 
 O. Farkas, J. B. Foresman, J. V. Ortiz, J. Cioslowski, 
 and D. J. Fox, Gaussian, Inc., Wallingford CT, 2013.
 
 ******************************************
 Gaussian 09:  ES64L-G09RevD.01 24-Apr-2013
                26-May-2021 
 ******************************************
 %chk=/home/unibas/boittier/RDKit_G2/O.pdb/SCAN_1_2_6_8_S_17_20.0/10_SCAN_1_2_6_8
 _F/O.pdb.chk
 %nproc=8
 Will use up to    8 processors via shared memory.
 %mem=16GB
 -----------------------------
 #p wB97XD/6-31+G Opt=ModRedun
 -----------------------------
 1/14=-1,18=120,19=15,26=3,38=1/1,3;
 2/9=110,12=2,17=6,18=5,40=1/2;
 3/5=1,6=6,7=10,11=2,16=1,25=1,30=1,71=1,74=-58/1,2,3;
 4//1;
 5/5=2,38=5/2;
 6/7=2,8=2,9=2,10=2,28=1/1;
 7//1,2,3,16;
 1/14=-1,18=20,19=15,26=3/3(2);
 2/9=110/2;
 99//99;
 2/9=110/2;
 3/5=1,6=6,7=10,11=2,16=1,25=1,30=1,71=1,74=-58/1,2,3;
 4/5=5,16=3,69=1/1;
 5/5=2,38=5/2;
 7//1,2,3,16;
 1/14=-1,18=20,19=15,26=3/3(-5);
 2/9=110/2;
 6/7=2,8=2,9=2,10=2,19=2,28=1/1;
 99/9=1/99;
 Leave Link    1 at Wed May 26 09:01:13 2021, MaxMem=  2147483648 cpu:         0.2
 (Enter /opt/cluster/programs/g09_d.01/g09/l101.exe)
 -----
 O.pdb
 -----
 Symbolic Z-matrix:
 Charge =  0 Multiplicity = 1
 C                     0.69365  -1.34475  -0.02482 
 C                     0.60973   0.16021  -0.00321 
 H                     0.1341   -1.79481   0.80147 
 H                     1.74096  -1.63154   0.06067 
 H                     0.28778  -1.74017  -0.96188 
 O                    -0.63316   0.73035  -0.15559 
 O                     1.5841    0.89706   0.07653 
 C                    -1.85093  -0.02898   0.08202 
 H                    -1.93843  -0.87008  -0.61136 
 H                    -2.65642   0.67961  -0.09669 
 H                    -1.8902   -0.38124   1.11638 
 
 The following ModRedundant input section has been read:
 D       1       2       6       8 F                                           
 
 NAtoms=     11 NQM=       11 NQMF=       0 NMMI=      0 NMMIF=      0
                NMic=       0 NMicF=      0.
                    Isotopes and Nuclear Properties:
 (Nuclear quadrupole moments (NQMom) in fm**2, nuclear magnetic moments (NMagM)
  in nuclear magnetons)

  Atom         1           2           3           4           5           6           7           8           9          10
 IAtWgt=          12          12           1           1           1          16          16          12           1           1
 AtmWgt=  12.0000000  12.0000000   1.0078250   1.0078250   1.0078250  15.9949146  15.9949146  12.0000000   1.0078250   1.0078250
 NucSpn=           0           0           1           1           1           0           0           0           1           1
 AtZEff=   0.0000000   0.0000000   0.0000000   0.0000000   0.0000000   0.0000000   0.0000000   0.0000000   0.0000000   0.0000000
 NQMom=    0.0000000   0.0000000   0.0000000   0.0000000   0.0000000   0.0000000   0.0000000   0.0000000   0.0000000   0.0000000
 NMagM=    0.0000000   0.0000000   2.7928460   2.7928460   2.7928460   0.0000000   0.0000000   0.0000000   2.7928460   2.7928460
 AtZNuc=   6.0000000   6.0000000   1.0000000   1.0000000   1.0000000   8.0000000   8.0000000   6.0000000   1.0000000   1.0000000

  Atom        11
 IAtWgt=           1
 AtmWgt=   1.0078250
 NucSpn=           1
 AtZEff=   0.0000000
 NQMom=    0.0000000
 NMagM=    2.7928460
 AtZNuc=   1.0000000
 Leave Link  101 at Wed May 26 09:01:14 2021, MaxMem=  2147483648 cpu:         4.1
 (Enter /opt/cluster/programs/g09_d.01/g09/l103.exe)

 GradGradGradGradGradGradGradGradGradGradGradGradGradGradGradGradGradGrad
 Berny optimization.
 Initialization pass.
                           ----------------------------
                           !    Initial Parameters    !
                           ! (Angstroms and Degrees)  !
 --------------------------                            --------------------------
 ! Name  Definition              Value          Derivative Info.                !
 --------------------------------------------------------------------------------
 ! R1    R(1,2)                  1.5075         estimate D2E/DX2                !
 ! R2    R(1,3)                  1.0947         estimate D2E/DX2                !
 ! R3    R(1,4)                  1.0892         estimate D2E/DX2                !
 ! R4    R(1,5)                  1.0951         estimate D2E/DX2                !
 ! R5    R(2,6)                  1.3759         estimate D2E/DX2                !
 ! R6    R(2,7)                  1.2242         estimate D2E/DX2                !
 ! R7    R(6,8)                  1.4546         estimate D2E/DX2                !
 ! R8    R(8,9)                  1.0936         estimate D2E/DX2                !
 ! R9    R(8,10)                 1.0876         estimate D2E/DX2                !
 ! R10   R(8,11)                 1.0934         estimate D2E/DX2                !
 ! A1    A(2,1,3)              111.7872         estimate D2E/DX2                !
 ! A2    A(2,1,4)              108.3768         estimate D2E/DX2                !
 ! A3    A(2,1,5)              110.6172         estimate D2E/DX2                !
 ! A4    A(3,1,4)              108.9038         estimate D2E/DX2                !
 ! A5    A(3,1,5)              107.9383         estimate D2E/DX2                !
 ! A6    A(4,1,5)              109.1757         estimate D2E/DX2                !
 ! A7    A(1,2,6)              117.5422         estimate D2E/DX2                !
 ! A8    A(1,2,7)              123.8844         estimate D2E/DX2                !
 ! A9    A(6,2,7)              118.4755         estimate D2E/DX2                !
 ! A10   A(2,6,8)              121.4559         estimate D2E/DX2                !
 ! A11   A(6,8,9)              111.4013         estimate D2E/DX2                !
 ! A12   A(6,8,10)             104.6598         estimate D2E/DX2                !
 ! A13   A(6,8,11)             110.6565         estimate D2E/DX2                !
 ! A14   A(9,8,10)             109.7349         estimate D2E/DX2                !
 ! A15   A(9,8,11)             110.4353         estimate D2E/DX2                !
 ! A16   A(10,8,11)            109.8007         estimate D2E/DX2                !
 ! D1    D(3,1,2,6)            -62.5603         estimate D2E/DX2                !
 ! D2    D(3,1,2,7)            121.1002         estimate D2E/DX2                !
 ! D3    D(4,1,2,6)            177.4106         estimate D2E/DX2                !
 ! D4    D(4,1,2,7)              1.0711         estimate D2E/DX2                !
 ! D5    D(5,1,2,6)             57.7552         estimate D2E/DX2                !
 ! D6    D(5,1,2,7)           -118.5843         estimate D2E/DX2                !
 ! D7    D(1,2,6,8)             19.3854         Frozen                          !
 ! D8    D(7,2,6,8)           -164.0714         estimate D2E/DX2                !
 ! D9    D(2,6,8,9)            -62.5075         estimate D2E/DX2                !
 ! D10   D(2,6,8,10)           178.9764         estimate D2E/DX2                !
 ! D11   D(2,6,8,11)            60.7584         estimate D2E/DX2                !
 --------------------------------------------------------------------------------
 Trust Radius=3.00D-01 FncErr=1.00D-07 GrdErr=1.00D-06
 Number of steps in this run=     47 maximum allowed number of steps=    100.
 GradGradGradGradGradGradGradGradGradGradGradGradGradGradGradGradGradGrad

 Leave Link  103 at Wed May 26 09:01:14 2021, MaxMem=  2147483648 cpu:         0.1
 (Enter /opt/cluster/programs/g09_d.01/g09/l202.exe)
                          Input orientation:                          
 ---------------------------------------------------------------------
 Center     Atomic      Atomic             Coordinates (Angstroms)
 Number     Number       Type             X           Y           Z
 ---------------------------------------------------------------------
      1          6           0        0.693653   -1.344751   -0.024820
      2          6           0        0.609726    0.160212   -0.003213
      3          1           0        0.134104   -1.794806    0.801468
      4          1           0        1.740961   -1.631537    0.060671
      5          1           0        0.287780   -1.740168   -0.961880
      6          8           0       -0.633162    0.730351   -0.155589
      7          8           0        1.584104    0.897062    0.076525
      8          6           0       -1.850934   -0.028976    0.082021
      9          1           0       -1.938428   -0.870078   -0.611364
     10          1           0       -2.656419    0.679611   -0.096687
     11          1           0       -1.890201   -0.381241    1.116375
 ---------------------------------------------------------------------
                    Distance matrix (angstroms):
                    1          2          3          4          5
     1  C    0.000000
     2  C    1.507456   0.000000
     3  H    1.094713   2.166985   0.000000
     4  H    1.089224   2.119938   1.776915   0.000000
     5  H    1.095066   2.152704   1.770875   1.780210   0.000000
     6  O    2.466493   1.375881   2.807325   3.355852   2.757119
     7  O    2.414311   1.224222   3.142323   2.533509   3.116685
     8  C    2.866636   2.469394   2.752478   3.933239   2.931212
     9  H    2.738101   2.815037   2.673313   3.816982   2.415765
    10  H    3.914868   3.308507   3.836201   4.970223   3.907966
    11  H    2.984456   2.792183   2.489004   3.982849   3.302942
                    6          7          8          9         10
     6  O    0.000000
     7  O    2.235607   0.000000
     8  C    1.454649   3.557677   0.000000
     9  H    2.114905   4.000526   1.093568   0.000000
    10  H    2.024750   4.249626   1.087584   1.783799   0.000000
    11  H    2.105630   3.845275   1.093399   1.796210   1.784381
                   11
    11  H    0.000000
 Stoichiometry    C3H6O2
 Framework group  C1[X(C3H6O2)]
 Deg. of freedom    27
 Full point group                 C1      NOp   1
 Largest Abelian subgroup         C1      NOp   1
 Largest concise Abelian subgroup C1      NOp   1
                         Standard orientation:                         
 ---------------------------------------------------------------------
 Center     Atomic      Atomic             Coordinates (Angstroms)
 Number     Number       Type             X           Y           Z
 ---------------------------------------------------------------------
      1          6           0       -0.693653    1.344751   -0.024820
      2          6           0       -0.609726   -0.160212   -0.003213
      3          1           0       -0.134104    1.794806    0.801468
      4          1           0       -1.740961    1.631537    0.060671
      5          1           0       -0.287780    1.740168   -0.961880
      6          8           0        0.633162   -0.730351   -0.155589
      7          8           0       -1.584104   -0.897062    0.076525
      8          6           0        1.850934    0.028976    0.082021
      9          1           0        1.938428    0.870078   -0.611364
     10          1           0        2.656419   -0.679611   -0.096687
     11          1           0        1.890201    0.381241    1.116375
 ---------------------------------------------------------------------
 Rotational constants (GHZ):      8.8633289      4.2394785      2.9965989
 Leave Link  202 at Wed May 26 09:01:14 2021, MaxMem=  2147483648 cpu:         0.0
 (Enter /opt/cluster/programs/g09_d.01/g09/l301.exe)
 Standard basis: 6-31+G (6D, 7F)
 Ernie: Thresh=  0.10000D-02 Tol=  0.10000D-05 Strict=F.
 There are    77 symmetry adapted cartesian basis functions of A   symmetry.
 There are    77 symmetry adapted basis functions of A   symmetry.
    77 basis functions,   154 primitive gaussians,    77 cartesian basis functions
    20 alpha electrons       20 beta electrons
       nuclear repulsion energy       179.1215260556 Hartrees.
 IExCor= 4639 DFT=T Ex+Corr=wB97XD ExCW=0 ScaHFX=  1.000000
 ScaDFX=  1.000000  1.000000  1.000000  1.000000 ScalE2=  1.000000  1.000000
 IRadAn=      0 IRanWt=     -1 IRanGd=            0 ICorTp=0 IEmpDi=121
  HFx wShort=  0.000000 wLong=  0.200000 cFull=  0.222036 cShort=  0.000000 cLong=  0.777964
  DFx wShort=  0.000000 wLong=  0.200000 cFull=  0.000000 cShort=  0.000000 cLong=  1.000000
 NAtoms=   11 NActive=   11 NUniq=   11 SFac= 1.00D+00 NAtFMM=   60 NAOKFM=F Big=F
 Integral buffers will be    131072 words long.
 Raffenetti 2 integral format.
 Two-electron integral symmetry is turned on.
 R6Disp:  Grimme-D2 Dispersion energy=       -0.0039289953 Hartrees.
 Nuclear repulsion after empirical dispersion term =      179.1175970603 Hartrees.
 Leave Link  301 at Wed May 26 09:01:14 2021, MaxMem=  2147483648 cpu:         0.3
 (Enter /opt/cluster/programs/g09_d.01/g09/l302.exe)
 NPDir=0 NMtPBC=     1 NCelOv=     1 NCel=       1 NClECP=     1 NCelD=      1
         NCelK=      1 NCelE2=     1 NClLst=     1 CellRange=     0.0.
 One-electron integrals computed using PRISM.
 NBasis=    77 RedAO= T EigKep=  1.75D-04  NBF=    77
 NBsUse=    77 1.00D-06 EigRej= -1.00D+00 NBFU=    77
 Precomputing XC quadrature grid using
 IXCGrd= 4 IRadAn=           0 IRanWt=          -1 IRanGd=           0 AccXCQ= 0.00D+00.
 Generated NRdTot=       0 NPtTot=           0 NUsed=           0 NTot=          32
 NSgBfM=    77    77    77    77    77 MxSgAt=    11 MxSgA2=    11.
 Leave Link  302 at Wed May 26 09:01:14 2021, MaxMem=  2147483648 cpu:         0.8
 (Enter /opt/cluster/programs/g09_d.01/g09/l303.exe)
 DipDrv:  MaxL=1.
 Leave Link  303 at Wed May 26 09:01:14 2021, MaxMem=  2147483648 cpu:         0.2
 (Enter /opt/cluster/programs/g09_d.01/g09/l401.exe)
 ExpMin= 4.38D-02 ExpMax= 5.48D+03 ExpMxC= 8.25D+02 IAcc=2 IRadAn=         4 AccDes= 0.00D+00
 Harris functional with IExCor= 4639 and IRadAn=       4 diagonalized for initial guess.
 HarFok:  IExCor= 4639 AccDes= 0.00D+00 IRadAn=         4 IDoV= 1 UseB2=F ITyADJ=14
 ICtDFT=  3500011 ScaDFX=  1.000000  1.000000  1.000000  1.000000
 FoFCou: FMM=F IPFlag=           0 FMFlag=      100000 FMFlg1=           0
         NFxFlg=           0 DoJE=T BraDBF=F KetDBF=T FulRan=T
         wScrn=  0.000000 ICntrl=     500 IOpCl=  0 I1Cent=   200000004 NGrid=           0
         NMat0=    1 NMatS0=      1 NMatT0=    0 NMatD0=    1 NMtDS0=    0 NMtDT0=    0
 Petite list used in FoFCou.
 Harris En= -257.363532796754    
 JPrj=0 DoOrth=F DoCkMO=F.
 Leave Link  401 at Wed May 26 09:01:14 2021, MaxMem=  2147483648 cpu:         1.4
 (Enter /opt/cluster/programs/g09_d.01/g09/l502.exe)
 Closed shell SCF:
 Using DIIS extrapolation, IDIIS=  1040.
 Integral symmetry usage will be decided dynamically.
 Keep R1 ints in memory in canonical form, NReq=9956864.
 IVT=       37546 IEndB=       37546 NGot=  2147483648 MDV=  2138425091
 LenX=  2138425091 LenY=  2138418721
 Requested convergence on RMS density matrix=1.00D-08 within 128 cycles.
 Requested convergence on MAX density matrix=1.00D-06.
 Requested convergence on             energy=1.00D-06.
 No special actions if energy rises.
 FoFCou: FMM=F IPFlag=           0 FMFlag=           0 FMFlg1=           0
         NFxFlg=           0 DoJE=F BraDBF=F KetDBF=F FulRan=T
         wScrn=  0.000000 ICntrl=     600 IOpCl=  0 I1Cent=           0 NGrid=           0
         NMat0=    1 NMatS0=   3003 NMatT0=    0 NMatD0=    1 NMtDS0=    0 NMtDT0=    0
 Symmetry not used in FoFCou.

 Cycle   1  Pass 1  IDiag  1:
 E= -268.112833397050    
 DIIS: error= 2.86D-02 at cycle   1 NSaved=   1.
 NSaved= 1 IEnMin= 1 EnMin= -268.112833397050     IErMin= 1 ErrMin= 2.86D-02
 ErrMax= 2.86D-02  0.00D+00 EMaxC= 1.00D-01 BMatC= 1.45D-01 BMatP= 1.45D-01
 IDIUse=3 WtCom= 7.14D-01 WtEn= 2.86D-01
 Coeff-Com:  0.100D+01
 Coeff-En:   0.100D+01
 Coeff:      0.100D+01
 Gap=     0.529 Goal=   None    Shift=    0.000
 GapD=    0.529 DampG=2.000 DampE=0.500 DampFc=1.0000 IDamp=-1.
 RMSDP=1.06D-02 MaxDP=2.05D-01              OVMax= 1.07D-01

 Cycle   2  Pass 1  IDiag  1:
 E= -268.121456519884     Delta-E=       -0.008623122834 Rises=F Damp=F
 DIIS: error= 3.04D-02 at cycle   2 NSaved=   2.
 NSaved= 2 IEnMin= 2 EnMin= -268.121456519884     IErMin= 1 ErrMin= 2.86D-02
 ErrMax= 3.04D-02  0.00D+00 EMaxC= 1.00D-01 BMatC= 1.13D-01 BMatP= 1.45D-01
 IDIUse=3 WtCom= 6.96D-01 WtEn= 3.04D-01
 Coeff-Com:  0.464D+00 0.536D+00
 Coeff-En:   0.473D+00 0.527D+00
 Coeff:      0.467D+00 0.533D+00
 Gap=     0.434 Goal=   None    Shift=    0.000
 RMSDP=4.86D-03 MaxDP=8.42D-02 DE=-8.62D-03 OVMax= 8.31D-02

 Cycle   3  Pass 1  IDiag  1:
 E= -268.200124893520     Delta-E=       -0.078668373636 Rises=F Damp=F
 DIIS: error= 1.33D-02 at cycle   3 NSaved=   3.
 NSaved= 3 IEnMin= 3 EnMin= -268.200124893520     IErMin= 3 ErrMin= 1.33D-02
 ErrMax= 1.33D-02  0.00D+00 EMaxC= 1.00D-01 BMatC= 1.04D-02 BMatP= 1.13D-01
 IDIUse=3 WtCom= 8.67D-01 WtEn= 1.33D-01
 Coeff-Com:  0.105D+00 0.248D+00 0.647D+00
 Coeff-En:   0.000D+00 0.000D+00 0.100D+01
 Coeff:      0.908D-01 0.215D+00 0.694D+00
 Gap=     0.434 Goal=   None    Shift=    0.000
 RMSDP=1.87D-03 MaxDP=2.86D-02 DE=-7.87D-02 OVMax= 4.61D-02

 Cycle   4  Pass 1  IDiag  1:
 E= -268.205968143846     Delta-E=       -0.005843250326 Rises=F Damp=F
 DIIS: error= 4.90D-03 at cycle   4 NSaved=   4.
 NSaved= 4 IEnMin= 4 EnMin= -268.205968143846     IErMin= 4 ErrMin= 4.90D-03
 ErrMax= 4.90D-03  0.00D+00 EMaxC= 1.00D-01 BMatC= 2.56D-03 BMatP= 1.04D-02
 IDIUse=3 WtCom= 9.51D-01 WtEn= 4.90D-02
 Coeff-Com: -0.172D-02 0.458D-01 0.380D+00 0.575D+00
 Coeff-En:   0.000D+00 0.000D+00 0.201D+00 0.799D+00
 Coeff:     -0.164D-02 0.436D-01 0.372D+00 0.586D+00
 Gap=     0.422 Goal=   None    Shift=    0.000
 RMSDP=9.71D-04 MaxDP=1.26D-02 DE=-5.84D-03 OVMax= 1.29D-02

 Cycle   5  Pass 1  IDiag  1:
 E= -268.207803468468     Delta-E=       -0.001835324622 Rises=F Damp=F
 DIIS: error= 1.07D-03 at cycle   5 NSaved=   5.
 NSaved= 5 IEnMin= 5 EnMin= -268.207803468468     IErMin= 5 ErrMin= 1.07D-03
 ErrMax= 1.07D-03  0.00D+00 EMaxC= 1.00D-01 BMatC= 1.18D-04 BMatP= 2.56D-03
 IDIUse=3 WtCom= 9.89D-01 WtEn= 1.07D-02
 Coeff-Com: -0.573D-02 0.602D-02 0.152D+00 0.308D+00 0.540D+00
 Coeff-En:   0.000D+00 0.000D+00 0.000D+00 0.000D+00 0.100D+01
 Coeff:     -0.567D-02 0.595D-02 0.150D+00 0.305D+00 0.545D+00
 Gap=     0.419 Goal=   None    Shift=    0.000
 RMSDP=1.75D-04 MaxDP=2.28D-03 DE=-1.84D-03 OVMax= 2.66D-03

 Cycle   6  Pass 1  IDiag  1:
 E= -268.207898703021     Delta-E=       -0.000095234553 Rises=F Damp=F
 DIIS: error= 1.63D-04 at cycle   6 NSaved=   6.
 NSaved= 6 IEnMin= 6 EnMin= -268.207898703021     IErMin= 6 ErrMin= 1.63D-04
 ErrMax= 1.63D-04  0.00D+00 EMaxC= 1.00D-01 BMatC= 2.75D-06 BMatP= 1.18D-04
 IDIUse=3 WtCom= 9.98D-01 WtEn= 1.63D-03
 Coeff-Com: -0.327D-03-0.689D-02-0.276D-01-0.346D-01 0.552D-01 0.101D+01
 Coeff-En:   0.000D+00 0.000D+00 0.000D+00 0.000D+00 0.000D+00 0.100D+01
 Coeff:     -0.327D-03-0.688D-02-0.276D-01-0.345D-01 0.551D-01 0.101D+01
 Gap=     0.419 Goal=   None    Shift=    0.000
 RMSDP=1.64D-04 MaxDP=3.09D-03 DE=-9.52D-05 OVMax= 1.17D-03

 Cycle   7  Pass 1  IDiag  1:
 E= -268.207903860125     Delta-E=       -0.000005157104 Rises=F Damp=F
 DIIS: error= 4.96D-05 at cycle   7 NSaved=   7.
 NSaved= 7 IEnMin= 7 EnMin= -268.207903860125     IErMin= 7 ErrMin= 4.96D-05
 ErrMax= 4.96D-05  0.00D+00 EMaxC= 1.00D-01 BMatC= 3.30D-07 BMatP= 2.75D-06
 IDIUse=1 WtCom= 1.00D+00 WtEn= 0.00D+00
 Coeff-Com:  0.439D-03-0.269D-02-0.195D-01-0.360D-01-0.201D-01 0.302D+00
 Coeff-Com:  0.776D+00
 Coeff:      0.439D-03-0.269D-02-0.195D-01-0.360D-01-0.201D-01 0.302D+00
 Coeff:      0.776D+00
 Gap=     0.419 Goal=   None    Shift=    0.000
 RMSDP=3.19D-05 MaxDP=5.49D-04 DE=-5.16D-06 OVMax= 3.13D-04

 Cycle   8  Pass 1  IDiag  1:
 E= -268.207904400783     Delta-E=       -0.000000540658 Rises=F Damp=F
 DIIS: error= 1.67D-05 at cycle   8 NSaved=   8.
 NSaved= 8 IEnMin= 8 EnMin= -268.207904400783     IErMin= 8 ErrMin= 1.67D-05
 ErrMax= 1.67D-05  0.00D+00 EMaxC= 1.00D-01 BMatC= 2.56D-08 BMatP= 3.30D-07
 IDIUse=1 WtCom= 1.00D+00 WtEn= 0.00D+00
 Coeff-Com:  0.297D-04 0.604D-03 0.235D-02 0.680D-03-0.562D-02-0.107D+00
 Coeff-Com:  0.221D-01 0.109D+01
 Coeff:      0.297D-04 0.604D-03 0.235D-02 0.680D-03-0.562D-02-0.107D+00
 Coeff:      0.221D-01 0.109D+01
 Gap=     0.419 Goal=   None    Shift=    0.000
 RMSDP=1.02D-05 MaxDP=8.09D-05 DE=-5.41D-07 OVMax= 1.76D-04

 Cycle   9  Pass 1  IDiag  1:
 E= -268.207904462314     Delta-E=       -0.000000061531 Rises=F Damp=F
 DIIS: error= 3.70D-06 at cycle   9 NSaved=   9.
 NSaved= 9 IEnMin= 9 EnMin= -268.207904462314     IErMin= 9 ErrMin= 3.70D-06
 ErrMax= 3.70D-06  0.00D+00 EMaxC= 1.00D-01 BMatC= 6.76D-10 BMatP= 2.56D-08
 IDIUse=1 WtCom= 1.00D+00 WtEn= 0.00D+00
 Coeff-Com: -0.221D-04 0.141D-03 0.114D-02 0.200D-02 0.210D-02-0.137D-01
 Coeff-Com: -0.446D-01-0.340D-01 0.109D+01
 Coeff:     -0.221D-04 0.141D-03 0.114D-02 0.200D-02 0.210D-02-0.137D-01
 Coeff:     -0.446D-01-0.340D-01 0.109D+01
 Gap=     0.419 Goal=   None    Shift=    0.000
 RMSDP=3.64D-06 MaxDP=6.41D-05 DE=-6.15D-08 OVMax= 3.29D-05

 Cycle  10  Pass 1  IDiag  1:
 E= -268.207904464370     Delta-E=       -0.000000002056 Rises=F Damp=F
 DIIS: error= 7.15D-07 at cycle  10 NSaved=  10.
 NSaved=10 IEnMin=10 EnMin= -268.207904464370     IErMin=10 ErrMin= 7.15D-07
 ErrMax= 7.15D-07  0.00D+00 EMaxC= 1.00D-01 BMatC= 4.77D-11 BMatP= 6.76D-10
 IDIUse=1 WtCom= 1.00D+00 WtEn= 0.00D+00
 Coeff-Com: -0.359D-05-0.589D-05 0.641D-04 0.224D-03 0.675D-03 0.275D-02
 Coeff-Com: -0.764D-02-0.496D-01 0.165D+00 0.889D+00
 Coeff:     -0.359D-05-0.589D-05 0.641D-04 0.224D-03 0.675D-03 0.275D-02
 Coeff:     -0.764D-02-0.496D-01 0.165D+00 0.889D+00
 Gap=     0.419 Goal=   None    Shift=    0.000
 RMSDP=7.56D-07 MaxDP=1.39D-05 DE=-2.06D-09 OVMax= 3.88D-06

 Cycle  11  Pass 1  IDiag  1:
 E= -268.207904464455     Delta-E=       -0.000000000085 Rises=F Damp=F
 DIIS: error= 2.45D-07 at cycle  11 NSaved=  11.
 NSaved=11 IEnMin=11 EnMin= -268.207904464455     IErMin=11 ErrMin= 2.45D-07
 ErrMax= 2.45D-07  0.00D+00 EMaxC= 1.00D-01 BMatC= 7.72D-12 BMatP= 4.77D-11
 IDIUse=1 WtCom= 1.00D+00 WtEn= 0.00D+00
 Coeff-Com:  0.115D-05-0.178D-04-0.109D-03-0.165D-03-0.199D-04 0.235D-02
 Coeff-Com:  0.261D-02-0.102D-01-0.758D-01 0.275D+00 0.807D+00
 Coeff:      0.115D-05-0.178D-04-0.109D-03-0.165D-03-0.199D-04 0.235D-02
 Coeff:      0.261D-02-0.102D-01-0.758D-01 0.275D+00 0.807D+00
 Gap=     0.419 Goal=   None    Shift=    0.000
 RMSDP=2.00D-07 MaxDP=3.35D-06 DE=-8.47D-11 OVMax= 1.74D-06

 Cycle  12  Pass 1  IDiag  1:
 E= -268.207904464472     Delta-E=       -0.000000000017 Rises=F Damp=F
 DIIS: error= 1.07D-07 at cycle  12 NSaved=  12.
 NSaved=12 IEnMin=12 EnMin= -268.207904464472     IErMin=12 ErrMin= 1.07D-07
 ErrMax= 1.07D-07  0.00D+00 EMaxC= 1.00D-01 BMatC= 2.03D-13 BMatP= 7.72D-12
 IDIUse=1 WtCom= 1.00D+00 WtEn= 0.00D+00
 Coeff-Com: -0.239D-07 0.342D-05 0.140D-04 0.122D-04-0.487D-04-0.582D-03
 Coeff-Com: -0.778D-04 0.463D-02 0.374D-02-0.102D+00-0.151D+00 0.125D+01
 Coeff:     -0.239D-07 0.342D-05 0.140D-04 0.122D-04-0.487D-04-0.582D-03
 Coeff:     -0.778D-04 0.463D-02 0.374D-02-0.102D+00-0.151D+00 0.125D+01
 Gap=     0.419 Goal=   None    Shift=    0.000
 RMSDP=3.02D-08 MaxDP=3.07D-07 DE=-1.74D-11 OVMax= 1.04D-06

 Cycle  13  Pass 1  IDiag  1:
 E= -268.207904464471     Delta-E=        0.000000000001 Rises=F Damp=F
 DIIS: error= 3.54D-08 at cycle  13 NSaved=  13.
 NSaved=13 IEnMin=12 EnMin= -268.207904464472     IErMin=13 ErrMin= 3.54D-08
 ErrMax= 3.54D-08  0.00D+00 EMaxC= 1.00D-01 BMatC= 1.69D-14 BMatP= 2.03D-13
 IDIUse=1 WtCom= 1.00D+00 WtEn= 0.00D+00
 Coeff-Com: -0.654D-07-0.188D-06 0.216D-05 0.741D-05 0.171D-04 0.765D-04
 Coeff-Com: -0.135D-03-0.107D-02 0.352D-02 0.202D-01 0.447D-02-0.449D+00
 Coeff-Com:  0.142D+01
 Coeff:     -0.654D-07-0.188D-06 0.216D-05 0.741D-05 0.171D-04 0.765D-04
 Coeff:     -0.135D-03-0.107D-02 0.352D-02 0.202D-01 0.447D-02-0.449D+00
 Coeff:      0.142D+01
 Gap=     0.419 Goal=   None    Shift=    0.000
 RMSDP=1.44D-08 MaxDP=2.06D-07 DE= 6.82D-13 OVMax= 4.15D-07

 Cycle  14  Pass 1  IDiag  1:
 E= -268.207904464473     Delta-E=       -0.000000000002 Rises=F Damp=F
 DIIS: error= 5.99D-09 at cycle  14 NSaved=  14.
 NSaved=14 IEnMin=14 EnMin= -268.207904464473     IErMin=14 ErrMin= 5.99D-09
 ErrMax= 5.99D-09  0.00D+00 EMaxC= 1.00D-01 BMatC= 7.78D-16 BMatP= 1.69D-14
 IDIUse=1 WtCom= 1.00D+00 WtEn= 0.00D+00
 Coeff-Com:  0.232D-07-0.430D-07-0.126D-05-0.282D-05-0.317D-05-0.187D-05
 Coeff-Com:  0.486D-04 0.133D-03-0.119D-02-0.197D-02 0.493D-02 0.951D-01
 Coeff-Com: -0.512D+00 0.141D+01
 Coeff:      0.232D-07-0.430D-07-0.126D-05-0.282D-05-0.317D-05-0.187D-05
 Coeff:      0.486D-04 0.133D-03-0.119D-02-0.197D-02 0.493D-02 0.951D-01
 Coeff:     -0.512D+00 0.141D+01
 Gap=     0.419 Goal=   None    Shift=    0.000
 RMSDP=2.91D-09 MaxDP=3.14D-08 DE=-1.93D-12 OVMax= 9.73D-08

 SCF Done:  E(RwB97XD) =  -268.207904464     A.U. after   14 cycles
            NFock= 14  Conv=0.29D-08     -V/T= 2.0057
 KE= 2.666805575335D+02 PE=-9.856764789842D+02 EE= 2.716704199259D+02
 Leave Link  502 at Wed May 26 09:01:16 2021, MaxMem=  2147483648 cpu:        15.4
 (Enter /opt/cluster/programs/g09_d.01/g09/l601.exe)
 Copying SCF densities to generalized density rwf, IOpCl= 0 IROHF=0.

 **********************************************************************

            Population analysis using the SCF density.

 **********************************************************************

 Orbital symmetries:
       Occupied  (A) (A) (A) (A) (A) (A) (A) (A) (A) (A) (A) (A)
                 (A) (A) (A) (A) (A) (A) (A) (A)
       Virtual   (A) (A) (A) (A) (A) (A) (A) (A) (A) (A) (A) (A)
                 (A) (A) (A) (A) (A) (A) (A) (A) (A) (A) (A) (A)
                 (A) (A) (A) (A) (A) (A) (A) (A) (A) (A) (A) (A)
                 (A) (A) (A) (A) (A) (A) (A) (A) (A) (A) (A) (A)
                 (A) (A) (A) (A) (A) (A) (A) (A) (A)
 The electronic state is 1-A.
 Alpha  occ. eigenvalues --  -19.32321 -19.27128 -10.45175 -10.37076 -10.32260
 Alpha  occ. eigenvalues --   -1.21800  -1.13948  -0.87239  -0.84072  -0.67278
 Alpha  occ. eigenvalues --   -0.60704  -0.59306  -0.57567  -0.53718  -0.51674
 Alpha  occ. eigenvalues --   -0.50633  -0.47889  -0.43267  -0.38531  -0.36252
 Alpha virt. eigenvalues --    0.05671   0.06357   0.07656   0.08915   0.09488
 Alpha virt. eigenvalues --    0.12014   0.12615   0.12975   0.14190   0.14905
 Alpha virt. eigenvalues --    0.16854   0.17062   0.19443   0.20815   0.22643
 Alpha virt. eigenvalues --    0.26028   0.27781   0.29185   0.30058   0.31023
 Alpha virt. eigenvalues --    0.34637   0.34977   0.36269   0.36818   0.38974
 Alpha virt. eigenvalues --    0.39580   0.41976   0.44134   0.44487   0.47413
 Alpha virt. eigenvalues --    0.55999   0.67603   0.72471   0.72601   0.74212
 Alpha virt. eigenvalues --    0.76663   0.82045   0.85807   0.93944   0.96514
 Alpha virt. eigenvalues --    1.05635   1.09714   1.11982   1.16047   1.16861
 Alpha virt. eigenvalues --    1.21539   1.24972   1.27733   1.30619   1.36990
 Alpha virt. eigenvalues --    1.41062   1.44648   1.48653   1.55025   1.71288
 Alpha virt. eigenvalues --    1.92615   2.03275
          Condensed to atoms (all electrons):
               1          2          3          4          5          6
     1  C    6.706488  -0.398168   0.337838   0.347527   0.391759  -0.407989
     2  C   -0.398168   5.695623  -0.018841  -0.006782  -0.063493   0.038438
     3  H    0.337838  -0.018841   0.488496  -0.020439  -0.027719   0.002051
     4  H    0.347527  -0.006782  -0.020439   0.436282  -0.019374   0.008572
     5  H    0.391759  -0.063493  -0.027719  -0.019374   0.468030   0.011961
     6  O   -0.407989   0.038438   0.002051   0.008572   0.011961   8.957065
     7  O   -0.192090   0.368336   0.002935  -0.003913   0.001638  -0.181759
     8  C   -0.094877  -0.028658   0.008012   0.000639  -0.006555   0.016200
     9  H    0.013789  -0.015042  -0.002046   0.000027   0.001018  -0.029973
    10  H   -0.008619   0.007253   0.000169  -0.000002   0.000014  -0.064007
    11  H    0.010433  -0.013138   0.000302  -0.000020  -0.000046  -0.040014
               7          8          9         10         11
     1  C   -0.192090  -0.094877   0.013789  -0.008619   0.010433
     2  C    0.368336  -0.028658  -0.015042   0.007253  -0.013138
     3  H    0.002935   0.008012  -0.002046   0.000169   0.000302
     4  H   -0.003913   0.000639   0.000027  -0.000002  -0.000020
     5  H    0.001638  -0.006555   0.001018   0.000014  -0.000046
     6  O   -0.181759   0.016200  -0.029973  -0.064007  -0.040014
     7  O    8.398283   0.016841  -0.001167   0.000003   0.001352
     8  C    0.016841   5.306752   0.368462   0.414750   0.380308
     9  H   -0.001167   0.368462   0.531870  -0.026602  -0.041179
    10  H    0.000003   0.414750  -0.026602   0.469365  -0.026647
    11  H    0.001352   0.380308  -0.041179  -0.026647   0.518806
 Mulliken charges:
               1
     1  C   -0.706092
     2  C    0.434473
     3  H    0.229241
     4  H    0.257484
     5  H    0.242766
     6  O   -0.310546
     7  O   -0.410456
     8  C   -0.381876
     9  H    0.200842
    10  H    0.234322
    11  H    0.209843
 Sum of Mulliken charges =   0.00000
 Mulliken charges with hydrogens summed into heavy atoms:
               1
     1  C    0.023399
     2  C    0.434473
     6  O   -0.310546
     7  O   -0.410456
     8  C    0.263131
 Electronic spatial extent (au):  <R**2>=            433.5077
 Charge=              0.0000 electrons
 Dipole moment (field-independent basis, Debye):
    X=              3.3976    Y=              4.1845    Z=              0.2536  Tot=              5.3961
 Quadrupole moment (field-independent basis, Debye-Ang):
   XX=            -30.7130   YY=            -33.0032   ZZ=            -29.6828
   XY=             -3.2555   XZ=              0.8022   YZ=             -0.2721
 Traceless Quadrupole moment (field-independent basis, Debye-Ang):
   XX=              0.4200   YY=             -1.8703   ZZ=              1.4502
   XY=             -3.2555   XZ=              0.8022   YZ=             -0.2721
 Octapole moment (field-independent basis, Debye-Ang**2):
  XXX=             18.3684  YYY=              2.3821  ZZZ=              0.2552  XYY=              1.6689
  XXY=              4.7319  XXZ=             -0.3960  XZZ=              0.3135  YZZ=              0.3102
  YYZ=             -0.3022  XYZ=             -0.5036
 Hexadecapole moment (field-independent basis, Debye-Ang**3):
 XXXX=           -322.7775 YYYY=           -183.4192 ZZZZ=            -42.3921 XXXY=            -17.6254
 XXXZ=             -0.3447 YYYX=             -2.7902 YYYZ=             -0.2910 ZZZX=              0.9622
 ZZZY=             -0.4020 XXYY=            -85.6857 XXZZ=            -62.5571 YYZZ=            -35.2961
 XXYZ=              1.0356 YYXZ=             -0.2889 ZZXY=              2.1814
 N-N= 1.791175970603D+02 E-N=-9.856764790607D+02  KE= 2.666805575335D+02
 No NMR shielding tensors so no spin-rotation constants.
 Leave Link  601 at Wed May 26 09:01:16 2021, MaxMem=  2147483648 cpu:         0.6
 (Enter /opt/cluster/programs/g09_d.01/g09/l701.exe)
 Compute integral first derivatives.
 ... and contract with generalized density number  0.
 R6Disp: Adding Grimme-D2 dispersion energy 1st derivatives to the gradient.
 Leave Link  701 at Wed May 26 09:01:16 2021, MaxMem=  2147483648 cpu:         0.6
 (Enter /opt/cluster/programs/g09_d.01/g09/l702.exe)
 L702 exits ... SP integral derivatives will be done elsewhere.
 Leave Link  702 at Wed May 26 09:01:17 2021, MaxMem=  2147483648 cpu:         0.2
 (Enter /opt/cluster/programs/g09_d.01/g09/l703.exe)
 Compute integral first derivatives, UseDBF=F ICtDFT=           0.
 Integral derivatives from FoFJK, PRISM(SPDF).
 Calling FoFJK, ICntrl=      2127 FMM=F ISym2X=0 I1Cent= 0 IOpClX= 0 NMat=1 NMatS=1 NMatT=0.
 FoFJK:  IHMeth= 1 ICntrl=    2127 DoSepK=T KAlg= 0 I1Cent=   0 FoldK=F
 IRaf=         1 NMat=   1 IRICut=       1 DoRegI=T DoRafI=F ISym2E= 0.
 FoFCou: FMM=F IPFlag=           0 FMFlag=      100000 FMFlg1=         800
         NFxFlg=           0 DoJE=F BraDBF=F KetDBF=F FulRan=T
         wScrn=  0.000000 ICntrl=    2527 IOpCl=  0 I1Cent=           0 NGrid=           0
         NMat0=    1 NMatS0=      1 NMatT0=    0 NMatD0=    1 NMtDS0=    0 NMtDT0=    0
 Symmetry not used in FoFCou.
 Leave Link  703 at Wed May 26 09:01:17 2021, MaxMem=  2147483648 cpu:         3.7
 (Enter /opt/cluster/programs/g09_d.01/g09/l716.exe)
 Dipole        = 1.33671348D+00 1.64630132D+00 9.97546010D-02
 ***** Axes restored to original set *****
 -------------------------------------------------------------------
 Center     Atomic                   Forces (Hartrees/Bohr)
 Number     Number              X              Y              Z
 -------------------------------------------------------------------
      1        6          -0.000257131   -0.000047202    0.001951481
      2        6           0.000376591   -0.000267435   -0.004065493
      3        1          -0.000003869   -0.000002806   -0.000003763
      4        1          -0.000003276   -0.000001659   -0.000001678
      5        1          -0.000001644    0.000002453   -0.000002382
      6        8          -0.000090275    0.000904323    0.004154128
      7        8           0.000003822   -0.000000641    0.000006839
      8        6          -0.000023841   -0.000593947   -0.002037880
      9        1          -0.000000098    0.000004535   -0.000002870
     10        1           0.000001487    0.000002979    0.000002036
     11        1          -0.000001767   -0.000000599   -0.000000416
 -------------------------------------------------------------------
 Cartesian Forces:  Max     0.004154128 RMS     0.001144253
 Leave Link  716 at Wed May 26 09:01:17 2021, MaxMem=  2147483648 cpu:         0.2
 (Enter /opt/cluster/programs/g09_d.01/g09/l103.exe)

 GradGradGradGradGradGradGradGradGradGradGradGradGradGradGradGradGradGrad
 Berny optimization.
 FormGI is forming the generalized inverse of G from B-inverse, IUseBI=4.
 Internal  Forces:  Max     0.003060775 RMS     0.000641686
 Search for a local minimum.
 Step number   1 out of a maximum of   47
 All quantities printed in internal units (Hartrees-Bohrs-Radians)
 RMS Force = .11585D-05 SwitMx=.10000D-02 MixMth= 2
 Mixed Optimization -- En-DIIS/RFO-DIIS
 Second derivative matrix not updated -- first step.
 ITU=  0
     Eigenvalues ---    0.00667   0.00969   0.01178   0.07170   0.07474
     Eigenvalues ---    0.09918   0.10652   0.16000   0.16000   0.16000
     Eigenvalues ---    0.16000   0.16000   0.16000   0.24960   0.25000
     Eigenvalues ---    0.25000   0.31608   0.34234   0.34274   0.34404
     Eigenvalues ---    0.34423   0.34902   0.35093   0.37642   0.49863
     Eigenvalues ---    0.935371000.000001000.000001000.000001000.00000
     Eigenvalues --- 1000.000001000.000001000.000001000.000001000.00000
     Eigenvalues --- 1000.000001000.00000
 RFO step:  Lambda= 0.00000000D+00 EMin= 6.67316030D-03
 Linear search not attempted -- first point.
 Iteration  1 RMS(Cart)=  0.00002115 RMS(Int)=  0.00000000
 Iteration  2 RMS(Cart)=  0.00000000 RMS(Int)=  0.00000000
 Iteration  1 RMS(Cart)=  0.00000000 RMS(Int)=  0.00000000
 ITry= 1 IFail=0 DXMaxC= 5.00D-05 DCOld= 1.00D+10 DXMaxT= 3.00D-01 DXLimC= 3.00D+00 Rises=F
 Variable       Old X    -DE/DX   Delta X   Delta X   Delta X     New X
                                 (Linear)    (Quad)   (Total)
    R1        2.84868   0.00000   0.00000   0.00000   0.00000   2.84868
    R2        2.06871   0.00000   0.00000   0.00000   0.00000   2.06871
    R3        2.05834   0.00000   0.00000  -0.00001  -0.00001   2.05833
    R4        2.06937   0.00000   0.00000   0.00000   0.00000   2.06937
    R5        2.60004   0.00000   0.00000   0.00000   0.00000   2.60004
    R6        2.31344   0.00000   0.00000   0.00000   0.00000   2.31345
    R7        2.74889   0.00000   0.00000   0.00000   0.00000   2.74889
    R8        2.06654   0.00000   0.00000   0.00000   0.00000   2.06654
    R9        2.05524   0.00000   0.00000   0.00000   0.00000   2.05523
   R10        2.06622   0.00000   0.00000   0.00000   0.00000   2.06623
    A1        1.95106   0.00000   0.00000   0.00000   0.00000   1.95105
    A2        1.89153   0.00000   0.00000  -0.00001  -0.00001   1.89153
    A3        1.93063   0.00000   0.00000   0.00000   0.00000   1.93063
    A4        1.90073   0.00000   0.00000   0.00001   0.00001   1.90074
    A5        1.88388   0.00000   0.00000  -0.00001  -0.00001   1.88387
    A6        1.90547   0.00000   0.00000   0.00001   0.00001   1.90548
    A7        2.05150   0.00002   0.00000   0.00000   0.00000   2.05150
    A8        2.16219   0.00010   0.00000   0.00000   0.00000   2.16219
    A9        2.06779  -0.00005   0.00000   0.00000   0.00000   2.06779
   A10        2.11980   0.00000   0.00000   0.00002   0.00002   2.11982
   A11        1.94432   0.00000   0.00000   0.00000   0.00000   1.94432
   A12        1.82666   0.00000   0.00000   0.00001   0.00001   1.82667
   A13        1.93132   0.00000   0.00000   0.00000   0.00000   1.93132
   A14        1.91524   0.00000   0.00000   0.00000   0.00000   1.91523
   A15        1.92746   0.00000   0.00000   0.00000   0.00000   1.92746
   A16        1.91638   0.00000   0.00000  -0.00001  -0.00001   1.91637
    D1       -1.09188   0.00060   0.00000   0.00003   0.00003  -1.09185
    D2        2.11360  -0.00060   0.00000  -0.00002  -0.00002   2.11358
    D3        3.09640   0.00060   0.00000   0.00003   0.00003   3.09643
    D4        0.01869  -0.00060   0.00000  -0.00002  -0.00002   0.01867
    D5        1.00802   0.00060   0.00000   0.00002   0.00002   1.00804
    D6       -2.06969  -0.00060   0.00000  -0.00003  -0.00003  -2.06971
    D7        0.33834  -0.00306   0.00000   0.00000   0.00000   0.33834
    D8       -2.86359  -0.00192   0.00000   0.00005   0.00005  -2.86354
    D9       -1.09096   0.00000   0.00000   0.00001   0.00001  -1.09095
   D10        3.12373   0.00000   0.00000   0.00001   0.00001   3.12373
   D11        1.06043   0.00000   0.00000   0.00001   0.00001   1.06045
         Item               Value     Threshold  Converged?
 Maximum Force            0.000005     0.000450     YES
 RMS     Force            0.000001     0.000300     YES
 Maximum Displacement     0.000050     0.001800     YES
 RMS     Displacement     0.000021     0.001200     YES
 Predicted change in Energy=-1.335440D-10
 Optimization completed.
    -- Stationary point found.
                           ----------------------------
                           !   Optimized Parameters   !
                           ! (Angstroms and Degrees)  !
 --------------------------                            --------------------------
 ! Name  Definition              Value          Derivative Info.                !
 --------------------------------------------------------------------------------
 ! R1    R(1,2)                  1.5075         -DE/DX =    0.0                 !
 ! R2    R(1,3)                  1.0947         -DE/DX =    0.0                 !
 ! R3    R(1,4)                  1.0892         -DE/DX =    0.0                 !
 ! R4    R(1,5)                  1.0951         -DE/DX =    0.0                 !
 ! R5    R(2,6)                  1.3759         -DE/DX =    0.0                 !
 ! R6    R(2,7)                  1.2242         -DE/DX =    0.0                 !
 ! R7    R(6,8)                  1.4546         -DE/DX =    0.0                 !
 ! R8    R(8,9)                  1.0936         -DE/DX =    0.0                 !
 ! R9    R(8,10)                 1.0876         -DE/DX =    0.0                 !
 ! R10   R(8,11)                 1.0934         -DE/DX =    0.0                 !
 ! A1    A(2,1,3)              111.7872         -DE/DX =    0.0                 !
 ! A2    A(2,1,4)              108.3768         -DE/DX =    0.0                 !
 ! A3    A(2,1,5)              110.6172         -DE/DX =    0.0                 !
 ! A4    A(3,1,4)              108.9038         -DE/DX =    0.0                 !
 ! A5    A(3,1,5)              107.9383         -DE/DX =    0.0                 !
 ! A6    A(4,1,5)              109.1757         -DE/DX =    0.0                 !
 ! A7    A(1,2,6)              117.5422         -DE/DX =    0.0                 !
 ! A8    A(1,2,7)              123.8844         -DE/DX =    0.0001              !
 ! A9    A(6,2,7)              118.4755         -DE/DX =    0.0                 !
 ! A10   A(2,6,8)              121.4559         -DE/DX =    0.0                 !
 ! A11   A(6,8,9)              111.4013         -DE/DX =    0.0                 !
 ! A12   A(6,8,10)             104.6598         -DE/DX =    0.0                 !
 ! A13   A(6,8,11)             110.6565         -DE/DX =    0.0                 !
 ! A14   A(9,8,10)             109.7349         -DE/DX =    0.0                 !
 ! A15   A(9,8,11)             110.4353         -DE/DX =    0.0                 !
 ! A16   A(10,8,11)            109.8007         -DE/DX =    0.0                 !
 ! D1    D(3,1,2,6)            -62.5603         -DE/DX =    0.0006              !
 ! D2    D(3,1,2,7)            121.1002         -DE/DX =   -0.0006              !
 ! D3    D(4,1,2,6)            177.4106         -DE/DX =    0.0006              !
 ! D4    D(4,1,2,7)              1.0711         -DE/DX =   -0.0006              !
 ! D5    D(5,1,2,6)             57.7552         -DE/DX =    0.0006              !
 ! D6    D(5,1,2,7)           -118.5843         -DE/DX =   -0.0006              !
 ! D7    D(1,2,6,8)             19.3854         -DE/DX =   -0.0031              !
 ! D8    D(7,2,6,8)           -164.0714         -DE/DX =   -0.0019              !
 ! D9    D(2,6,8,9)            -62.5075         -DE/DX =    0.0                 !
 ! D10   D(2,6,8,10)           178.9764         -DE/DX =    0.0                 !
 ! D11   D(2,6,8,11)            60.7584         -DE/DX =    0.0                 !
 --------------------------------------------------------------------------------
 Lowest energy point so far.  Saving SCF results.
 GradGradGradGradGradGradGradGradGradGradGradGradGradGradGradGradGradGrad

 Largest change from initial coordinates is atom    1       0.000 Angstoms.
 Leave Link  103 at Wed May 26 09:01:17 2021, MaxMem=  2147483648 cpu:         0.2
 (Enter /opt/cluster/programs/g09_d.01/g09/l202.exe)
                          Input orientation:                          
 ---------------------------------------------------------------------
 Center     Atomic      Atomic             Coordinates (Angstroms)
 Number     Number       Type             X           Y           Z
 ---------------------------------------------------------------------
      1          6           0        0.693653   -1.344751   -0.024820
      2          6           0        0.609726    0.160212   -0.003213
      3          1           0        0.134104   -1.794806    0.801468
      4          1           0        1.740961   -1.631537    0.060671
      5          1           0        0.287780   -1.740168   -0.961880
      6          8           0       -0.633162    0.730351   -0.155589
      7          8           0        1.584104    0.897062    0.076525
      8          6           0       -1.850934   -0.028976    0.082021
      9          1           0       -1.938428   -0.870078   -0.611364
     10          1           0       -2.656419    0.679611   -0.096687
     11          1           0       -1.890201   -0.381241    1.116375
 ---------------------------------------------------------------------
                    Distance matrix (angstroms):
                    1          2          3          4          5
     1  C    0.000000
     2  C    1.507456   0.000000
     3  H    1.094713   2.166985   0.000000
     4  H    1.089224   2.119938   1.776915   0.000000
     5  H    1.095066   2.152704   1.770875   1.780210   0.000000
     6  O    2.466493   1.375881   2.807325   3.355852   2.757119
     7  O    2.414311   1.224222   3.142323   2.533509   3.116685
     8  C    2.866636   2.469394   2.752478   3.933239   2.931212
     9  H    2.738101   2.815037   2.673313   3.816982   2.415765
    10  H    3.914868   3.308507   3.836201   4.970223   3.907966
    11  H    2.984456   2.792183   2.489004   3.982849   3.302942
                    6          7          8          9         10
     6  O    0.000000
     7  O    2.235607   0.000000
     8  C    1.454649   3.557677   0.000000
     9  H    2.114905   4.000526   1.093568   0.000000
    10  H    2.024750   4.249626   1.087584   1.783799   0.000000
    11  H    2.105630   3.845275   1.093399   1.796210   1.784381
                   11
    11  H    0.000000
 Stoichiometry    C3H6O2
 Framework group  C1[X(C3H6O2)]
 Deg. of freedom    27
 Full point group                 C1      NOp   1
 RotChk:  IX=0 Diff= 2.14D-15
 Largest Abelian subgroup         C1      NOp   1
 Largest concise Abelian subgroup C1      NOp   1
                         Standard orientation:                         
 ---------------------------------------------------------------------
 Center     Atomic      Atomic             Coordinates (Angstroms)
 Number     Number       Type             X           Y           Z
 ---------------------------------------------------------------------
      1          6           0       -0.693653    1.344751   -0.024820
      2          6           0       -0.609726   -0.160212   -0.003213
      3          1           0       -0.134104    1.794806    0.801468
      4          1           0       -1.740961    1.631537    0.060671
      5          1           0       -0.287780    1.740168   -0.961880
      6          8           0        0.633162   -0.730351   -0.155589
      7          8           0       -1.584104   -0.897062    0.076525
      8          6           0        1.850934    0.028976    0.082021
      9          1           0        1.938428    0.870078   -0.611364
     10          1           0        2.656419   -0.679611   -0.096687
     11          1           0        1.890201    0.381241    1.116375
 ---------------------------------------------------------------------
 Rotational constants (GHZ):      8.8633289      4.2394785      2.9965989
 Leave Link  202 at Wed May 26 09:01:17 2021, MaxMem=  2147483648 cpu:         0.0
 (Enter /opt/cluster/programs/g09_d.01/g09/l9999.exe)
 1\1\GINC-NODE10\FOpt\RwB97XD\6-31+G\C3H6O2\BOITTIER\26-May-2021\0\\#p 
 wB97XD/6-31+G Opt=ModRedun\\O.pdb\\0,1\C,0.693653,-1.344751,-0.02482\C
 ,0.609726,0.160212,-0.003213\H,0.134104,-1.794806,0.801468\H,1.740961,
 -1.631537,0.060671\H,0.28778,-1.740168,-0.96188\O,-0.633162,0.730351,-
 0.155589\O,1.584104,0.897062,0.076525\C,-1.850934,-0.028976,0.082021\H
 ,-1.938428,-0.870078,-0.611364\H,-2.656419,0.679611,-0.096687\H,-1.890
 201,-0.381241,1.116375\\Version=ES64L-G09RevD.01\State=1-A\HF=-268.207
 9045\RMSD=2.907e-09\RMSF=1.144e-03\Dipole=-1.3367138,-1.646301,0.09975
 46\Quadrupole=0.3122736,-1.3904842,1.0782106,-2.420419,-0.5964227,0.20
 23314\PG=C01 [X(C3H6O2)]\\@


 TELEVISION IS CALLED A MEDIUM BECAUSE IT ISN'T
 RARE, AND IT ISN'T WELL DONE.
 Job cpu time:       0 days  0 hours  0 minutes 28.8 seconds.
 File lengths (MBytes):  RWF=      5 Int=      0 D2E=      0 Chk=      2 Scr=      1
 Normal termination of Gaussian 09 at Wed May 26 09:01:17 2021.
