 Entering Gaussian System, Link 0=/opt/cluster/programs/g09_d.01/g09//g09
 Input=/home/unibas/boittier/RDKit_G2/L.pdb/SCAN_1_2_3_4_S_17_20.0/SCAN_L.pdb.com
 Output=/scratch/boittier/SCAN_L.pdb/SCAN_L.pdb.out
 Initial command:
 /opt/cluster/programs/g09_d.01/g09/l1.exe "/scratch/boittier/SCAN_L.pdb/Gau-110972.inp" -scrdir="/scratch/boittier/SCAN_L.pdb/"
 Entering Link 1 = /opt/cluster/programs/g09_d.01/g09/l1.exe PID=    110973.
  
 Copyright (c) 1988,1990,1992,1993,1995,1998,2003,2009,2013,
            Gaussian, Inc.  All Rights Reserved.
  
 This is part of the Gaussian(R) 09 program.  It is based on
 the Gaussian(R) 03 system (copyright 2003, Gaussian, Inc.),
 the Gaussian(R) 98 system (copyright 1998, Gaussian, Inc.),
 the Gaussian(R) 94 system (copyright 1995, Gaussian, Inc.),
 the Gaussian 92(TM) system (copyright 1992, Gaussian, Inc.),
 the Gaussian 90(TM) system (copyright 1990, Gaussian, Inc.),
 the Gaussian 88(TM) system (copyright 1988, Gaussian, Inc.),
 the Gaussian 86(TM) system (copyright 1986, Carnegie Mellon
 University), and the Gaussian 82(TM) system (copyright 1983,
 Carnegie Mellon University). Gaussian is a federally registered
 trademark of Gaussian, Inc.
  
 This software contains proprietary and confidential information,
 including trade secrets, belonging to Gaussian, Inc.
  
 This software is provided under written license and may be
 used, copied, transmitted, or stored only in accord with that
 written license.
  
 The following legend is applicable only to US Government
 contracts under FAR:
  
                    RESTRICTED RIGHTS LEGEND
  
 Use, reproduction and disclosure by the US Government is
 subject to restrictions as set forth in subparagraphs (a)
 and (c) of the Commercial Computer Software - Restricted
 Rights clause in FAR 52.227-19.
  
 Gaussian, Inc.
 340 Quinnipiac St., Bldg. 40, Wallingford CT 06492
  
  
 ---------------------------------------------------------------
 Warning -- This program may not be used in any manner that
 competes with the business of Gaussian, Inc. or will provide
 assistance to any competitor of Gaussian, Inc.  The licensee
 of this program is prohibited from giving any competitor of
 Gaussian, Inc. access to this program.  By using this program,
 the user acknowledges that Gaussian, Inc. is engaged in the
 business of creating and licensing software in the field of
 computational chemistry and represents and warrants to the
 licensee that it is not a competitor of Gaussian, Inc. and that
 it will not use this program in any manner prohibited above.
 ---------------------------------------------------------------
  

 Cite this work as:
 Gaussian 09, Revision D.01,
 M. J. Frisch, G. W. Trucks, H. B. Schlegel, G. E. Scuseria, 
 M. A. Robb, J. R. Cheeseman, G. Scalmani, V. Barone, B. Mennucci, 
 G. A. Petersson, H. Nakatsuji, M. Caricato, X. Li, H. P. Hratchian, 
 A. F. Izmaylov, J. Bloino, G. Zheng, J. L. Sonnenberg, M. Hada, 
 M. Ehara, K. Toyota, R. Fukuda, J. Hasegawa, M. Ishida, T. Nakajima, 
 Y. Honda, O. Kitao, H. Nakai, T. Vreven, J. A. Montgomery, Jr., 
 J. E. Peralta, F. Ogliaro, M. Bearpark, J. J. Heyd, E. Brothers, 
 K. N. Kudin, V. N. Staroverov, T. Keith, R. Kobayashi, J. Normand, 
 K. Raghavachari, A. Rendell, J. C. Burant, S. S. Iyengar, J. Tomasi, 
 M. Cossi, N. Rega, J. M. Millam, M. Klene, J. E. Knox, J. B. Cross, 
 V. Bakken, C. Adamo, J. Jaramillo, R. Gomperts, R. E. Stratmann, 
 O. Yazyev, A. J. Austin, R. Cammi, C. Pomelli, J. W. Ochterski, 
 R. L. Martin, K. Morokuma, V. G. Zakrzewski, G. A. Voth, 
 P. Salvador, J. J. Dannenberg, S. Dapprich, A. D. Daniels, 
 O. Farkas, J. B. Foresman, J. V. Ortiz, J. Cioslowski, 
 and D. J. Fox, Gaussian, Inc., Wallingford CT, 2013.
 
 ******************************************
 Gaussian 09:  ES64L-G09RevD.01 24-Apr-2013
                11-May-2021 
 ******************************************
 %chk=/home/unibas/boittier/RDKit_G2/L.pdb/SCAN_1_2_3_4_S_17_20.0/L.pdb.chk
 %nproc=8
 Will use up to    8 processors via shared memory.
 %mem=16GB
 ----------------------------
 #p B3LYP/6-31+G Opt=ModRedun
 ----------------------------
 1/14=-1,18=120,19=15,26=3,38=1/1,3;
 2/9=110,12=2,17=6,18=5,40=1/2;
 3/5=1,6=6,7=10,11=2,16=1,25=1,30=1,71=1,74=-5/1,2,3;
 4//1;
 5/5=2,38=5/2;
 6/7=2,8=2,9=2,10=2,28=1/1;
 7//1,2,3,16;
 1/14=-1,18=20,19=15,26=3/3(2);
 2/9=110/2;
 99//99;
 2/9=110/2;
 3/5=1,6=6,7=10,11=2,16=1,25=1,30=1,71=1,74=-5/1,2,3;
 4/5=5,16=3,69=1/1;
 5/5=2,38=5/2;
 7//1,2,3,16;
 1/14=-1,18=20,19=15,26=3/3(-5);
 2/9=110/2;
 6/7=2,8=2,9=2,10=2,19=2,28=1/1;
 99/9=1/99;
 Leave Link    1 at Tue May 11 16:56:30 2021, MaxMem=  2147483648 cpu:         1.6
 (Enter /opt/cluster/programs/g09_d.01/g09/l101.exe)
 -----
 L.pdb
 -----
 Symbolic Z-matrix:
 Charge =  0 Multiplicity = 1
 C                     3.42258  -0.05031  -0.89924 
 C                     2.089    -0.04055  -1.07739 
 C                     1.16548  -0.03875   0.06365 
 O                    -0.07366  -0.02992  -0.04568 
 H                     1.63367  -0.0459    1.06498 
 H                     4.11723  -0.05176  -1.7328 
 H                     3.86046  -0.0572    0.09725 
 H                     1.63824  -0.03361  -2.06677 
 
 The following ModRedundant input section has been read:
 D       1       2       3       4 S  17 20.000                                
 
 NAtoms=      8 NQM=        8 NQMF=       0 NMMI=      0 NMMIF=      0
                NMic=       0 NMicF=      0.
                    Isotopes and Nuclear Properties:
 (Nuclear quadrupole moments (NQMom) in fm**2, nuclear magnetic moments (NMagM)
  in nuclear magnetons)

  Atom         1           2           3           4           5           6           7           8
 IAtWgt=          12          12          12          16           1           1           1           1
 AtmWgt=  12.0000000  12.0000000  12.0000000  15.9949146   1.0078250   1.0078250   1.0078250   1.0078250
 NucSpn=           0           0           0           0           1           1           1           1
 AtZEff=   0.0000000   0.0000000   0.0000000   0.0000000   0.0000000   0.0000000   0.0000000   0.0000000
 NQMom=    0.0000000   0.0000000   0.0000000   0.0000000   0.0000000   0.0000000   0.0000000   0.0000000
 NMagM=    0.0000000   0.0000000   0.0000000   0.0000000   2.7928460   2.7928460   2.7928460   2.7928460
 AtZNuc=   6.0000000   6.0000000   6.0000000   8.0000000   1.0000000   1.0000000   1.0000000   1.0000000
 Leave Link  101 at Tue May 11 16:56:31 2021, MaxMem=  2147483648 cpu:         3.5
 (Enter /opt/cluster/programs/g09_d.01/g09/l103.exe)

 GradGradGradGradGradGradGradGradGradGradGradGradGradGradGradGradGradGrad
 Berny optimization.
 Initialization pass.
                           ----------------------------
                           !    Initial Parameters    !
                           ! (Angstroms and Degrees)  !
 --------------------------                            --------------------------
 ! Name  Definition              Value          Derivative Info.                !
 --------------------------------------------------------------------------------
 ! R1    R(1,2)                  1.3455         estimate D2E/DX2                !
 ! R2    R(1,6)                  1.0851         estimate D2E/DX2                !
 ! R3    R(1,7)                  1.0885         estimate D2E/DX2                !
 ! R4    R(2,3)                  1.4679         estimate D2E/DX2                !
 ! R5    R(2,8)                  1.0873         estimate D2E/DX2                !
 ! R6    R(3,4)                  1.244          estimate D2E/DX2                !
 ! R7    R(3,5)                  1.1054         estimate D2E/DX2                !
 ! A1    A(2,1,6)              122.1968         estimate D2E/DX2                !
 ! A2    A(2,1,7)              121.3323         estimate D2E/DX2                !
 ! A3    A(6,1,7)              116.471          estimate D2E/DX2                !
 ! A4    A(1,2,3)              121.3762         estimate D2E/DX2                !
 ! A5    A(1,2,8)              122.1042         estimate D2E/DX2                !
 ! A6    A(3,2,8)              116.5196         estimate D2E/DX2                !
 ! A7    A(2,3,4)              123.9426         estimate D2E/DX2                !
 ! A8    A(2,3,5)              115.9539         estimate D2E/DX2                !
 ! A9    A(4,3,5)              120.1035         estimate D2E/DX2                !
 ! D1    D(6,1,2,3)           -179.9997         estimate D2E/DX2                !
 ! D2    D(6,1,2,8)              0.0002         estimate D2E/DX2                !
 ! D3    D(7,1,2,3)              0.0002         estimate D2E/DX2                !
 ! D4    D(7,1,2,8)           -179.9999         estimate D2E/DX2                !
 ! D5    D(1,2,3,4)           -179.999          Scan                            !
 ! D6    D(1,2,3,5)             -0.0021         estimate D2E/DX2                !
 ! D7    D(8,2,3,4)              0.0011         estimate D2E/DX2                !
 ! D8    D(8,2,3,5)            179.9981         estimate D2E/DX2                !
 --------------------------------------------------------------------------------
 Trust Radius=3.00D-01 FncErr=1.00D-07 GrdErr=1.00D-06
 Number of optimizations in scan=  18
 Number of steps in this run=     34 maximum allowed number of steps=    100.
 GradGradGradGradGradGradGradGradGradGradGradGradGradGradGradGradGradGrad

 Leave Link  103 at Tue May 11 16:56:31 2021, MaxMem=  2147483648 cpu:         0.1
 (Enter /opt/cluster/programs/g09_d.01/g09/l202.exe)
                          Input orientation:                          
 ---------------------------------------------------------------------
 Center     Atomic      Atomic             Coordinates (Angstroms)
 Number     Number       Type             X           Y           Z
 ---------------------------------------------------------------------
      1          6           0        3.422580   -0.050312   -0.899236
      2          6           0        2.089000   -0.040552   -1.077385
      3          6           0        1.165482   -0.038753    0.063655
      4          8           0       -0.073658   -0.029922   -0.045682
      5          1           0        1.633672   -0.045898    1.064975
      6          1           0        4.117227   -0.051757   -1.732799
      7          1           0        3.860458   -0.057201    0.097245
      8          1           0        1.638240   -0.033605   -2.066773
 ---------------------------------------------------------------------
                    Distance matrix (angstroms):
                    1          2          3          4          5
     1  C    0.000000
     2  C    1.345462   0.000000
     3  C    2.453931   1.467944   0.000000
     4  O    3.598979   2.396167   1.243986   0.000000
     5  H    2.656753   2.190219   1.105393   2.036858   0.000000
     6  H    1.085065   2.131525   3.455462   4.517783   3.741073
     7  H    1.088466   2.125581   2.695248   3.936806   2.428004
     8  H    2.132438   1.087254   2.182257   2.648663   3.131775
                    6          7          8
     6  H    0.000000
     7  H    1.847978   0.000000
     8  H    2.501449   3.101900   0.000000
 Stoichiometry    C3H4O
 Framework group  C1[X(C3H4O)]
 Deg. of freedom    18
 Full point group                 C1      NOp   1
 Largest Abelian subgroup         C1      NOp   1
 Largest concise Abelian subgroup C1      NOp   1
                         Standard orientation:                         
 ---------------------------------------------------------------------
 Center     Atomic      Atomic             Coordinates (Angstroms)
 Number     Number       Type             X           Y           Z
 ---------------------------------------------------------------------
      1          6           0        1.776099    0.135275    0.000002
      2          6           0        0.561588   -0.443715   -0.000001
      3          6           0       -0.667641    0.358692   -0.000011
      4          8           0       -1.813397   -0.125813    0.000004
      5          1           0       -0.529453    1.455413    0.000020
      6          1           0        2.693113   -0.444769    0.000004
      7          1           0        1.886924    1.218085    0.000000
      8          1           0        0.436324   -1.523729    0.000002
 ---------------------------------------------------------------------
 Rotational constants (GHZ):     47.9521072      4.5691626      4.1716618
 Leave Link  202 at Tue May 11 16:56:32 2021, MaxMem=  2147483648 cpu:         0.4
 (Enter /opt/cluster/programs/g09_d.01/g09/l301.exe)
 Standard basis: 6-31+G (6D, 7F)
 Ernie: Thresh=  0.10000D-02 Tol=  0.10000D-05 Strict=F.
 There are    60 symmetry adapted cartesian basis functions of A   symmetry.
 There are    60 symmetry adapted basis functions of A   symmetry.
    60 basis functions,   120 primitive gaussians,    60 cartesian basis functions
    15 alpha electrons       15 beta electrons
       nuclear repulsion energy       102.1671658778 Hartrees.
 IExCor=  402 DFT=T Ex+Corr=B3LYP ExCW=0 ScaHFX=  0.200000
 ScaDFX=  0.800000  0.720000  1.000000  0.810000 ScalE2=  1.000000  1.000000
 IRadAn=      0 IRanWt=     -1 IRanGd=            0 ICorTp=0 IEmpDi=  4
 NAtoms=    8 NActive=    8 NUniq=    8 SFac= 1.00D+00 NAtFMM=   60 NAOKFM=F Big=F
 Integral buffers will be    131072 words long.
 Raffenetti 2 integral format.
 Two-electron integral symmetry is turned on.
 Leave Link  301 at Tue May 11 16:56:32 2021, MaxMem=  2147483648 cpu:         0.3
 (Enter /opt/cluster/programs/g09_d.01/g09/l302.exe)
 NPDir=0 NMtPBC=     1 NCelOv=     1 NCel=       1 NClECP=     1 NCelD=      1
         NCelK=      1 NCelE2=     1 NClLst=     1 CellRange=     0.0.
 One-electron integrals computed using PRISM.
 NBasis=    60 RedAO= T EigKep=  1.16D-04  NBF=    60
 NBsUse=    60 1.00D-06 EigRej= -1.00D+00 NBFU=    60
 Precomputing XC quadrature grid using
 IXCGrd= 4 IRadAn=           0 IRanWt=          -1 IRanGd=           0 AccXCQ= 0.00D+00.
 Generated NRdTot=       0 NPtTot=           0 NUsed=           0 NTot=          32
 NSgBfM=    60    60    60    60    60 MxSgAt=     8 MxSgA2=     8.
 Leave Link  302 at Tue May 11 16:56:32 2021, MaxMem=  2147483648 cpu:         2.1
 (Enter /opt/cluster/programs/g09_d.01/g09/l303.exe)
 DipDrv:  MaxL=1.
 Leave Link  303 at Tue May 11 16:56:32 2021, MaxMem=  2147483648 cpu:         1.1
 (Enter /opt/cluster/programs/g09_d.01/g09/l401.exe)
 ExpMin= 4.38D-02 ExpMax= 5.48D+03 ExpMxC= 8.25D+02 IAcc=2 IRadAn=         4 AccDes= 0.00D+00
 Harris functional with IExCor=  402 and IRadAn=       4 diagonalized for initial guess.
 HarFok:  IExCor=  402 AccDes= 0.00D+00 IRadAn=         4 IDoV= 1 UseB2=F ITyADJ=14
 ICtDFT=  3500011 ScaDFX=  1.000000  1.000000  1.000000  1.000000
 FoFCou: FMM=F IPFlag=           0 FMFlag=      100000 FMFlg1=           0
         NFxFlg=           0 DoJE=T BraDBF=F KetDBF=T FulRan=T
         wScrn=  0.000000 ICntrl=     500 IOpCl=  0 I1Cent=   200000004 NGrid=           0
         NMat0=    1 NMatS0=      1 NMatT0=    0 NMatD0=    1 NMtDS0=    0 NMtDT0=    0
 Petite list used in FoFCou.
 Harris En= -191.884810365198    
 JPrj=0 DoOrth=F DoCkMO=F.
 Leave Link  401 at Tue May 11 16:56:33 2021, MaxMem=  2147483648 cpu:         1.6
 (Enter /opt/cluster/programs/g09_d.01/g09/l502.exe)
 Closed shell SCF:
 Using DIIS extrapolation, IDIIS=  1040.
 Integral symmetry usage will be decided dynamically.
 Keep R1 ints in memory in canonical form, NReq=2587125.
 IVT=       30290 IEndB=       30290 NGot=  2147483648 MDV=  2145777994
 LenX=  2145777994 LenY=  2145773953
 Requested convergence on RMS density matrix=1.00D-08 within 128 cycles.
 Requested convergence on MAX density matrix=1.00D-06.
 Requested convergence on             energy=1.00D-06.
 No special actions if energy rises.
 FoFCou: FMM=F IPFlag=           0 FMFlag=           0 FMFlg1=           0
         NFxFlg=           0 DoJE=F BraDBF=F KetDBF=F FulRan=T
         wScrn=  0.000000 ICntrl=     600 IOpCl=  0 I1Cent=           0 NGrid=           0
         NMat0=    1 NMatS0=   1830 NMatT0=    0 NMatD0=    1 NMtDS0=    0 NMtDT0=    0
 Symmetry not used in FoFCou.

 Cycle   1  Pass 1  IDiag  1:
 E= -191.771634349804    
 DIIS: error= 3.41D-02 at cycle   1 NSaved=   1.
 NSaved= 1 IEnMin= 1 EnMin= -191.771634349804     IErMin= 1 ErrMin= 3.41D-02
 ErrMax= 3.41D-02  0.00D+00 EMaxC= 1.00D-01 BMatC= 9.71D-02 BMatP= 9.71D-02
 IDIUse=3 WtCom= 6.59D-01 WtEn= 3.41D-01
 Coeff-Com:  0.100D+01
 Coeff-En:   0.100D+01
 Coeff:      0.100D+01
 Gap=     0.127 Goal=   None    Shift=    0.000
 GapD=    0.127 DampG=1.000 DampE=0.500 DampFc=0.5000 IDamp=-1.
 Damping current iteration by 5.00D-01
 RMSDP=6.35D-02 MaxDP=1.77D+00              OVMax= 2.45D-01

 Cycle   2  Pass 1  IDiag  1:
 E= -191.784030830017     Delta-E=       -0.012396480213 Rises=F Damp=T
 DIIS: error= 2.57D-02 at cycle   2 NSaved=   2.
 NSaved= 2 IEnMin= 2 EnMin= -191.784030830017     IErMin= 2 ErrMin= 2.57D-02
 ErrMax= 2.57D-02  0.00D+00 EMaxC= 1.00D-01 BMatC= 2.83D-02 BMatP= 9.71D-02
 IDIUse=3 WtCom= 7.43D-01 WtEn= 2.57D-01
 Coeff-Com:  0.315D+00 0.685D+00
 Coeff-En:   0.442D+00 0.558D+00
 Coeff:      0.348D+00 0.652D+00
 Gap=     0.197 Goal=   None    Shift=    0.000
 RMSDP=2.38D-02 MaxDP=7.18D-01 DE=-1.24D-02 OVMax= 2.21D-01

 Cycle   3  Pass 1  IDiag  1:
 E= -191.852238273669     Delta-E=       -0.068207443652 Rises=F Damp=F
 DIIS: error= 2.14D-02 at cycle   3 NSaved=   3.
 NSaved= 3 IEnMin= 3 EnMin= -191.852238273669     IErMin= 3 ErrMin= 2.14D-02
 ErrMax= 2.14D-02  0.00D+00 EMaxC= 1.00D-01 BMatC= 1.57D-02 BMatP= 2.83D-02
 IDIUse=3 WtCom= 7.86D-01 WtEn= 2.14D-01
 Coeff-Com:  0.133D+00 0.417D+00 0.450D+00
 Coeff-En:   0.000D+00 0.000D+00 0.100D+01
 Coeff:      0.104D+00 0.328D+00 0.568D+00
 Gap=     0.172 Goal=   None    Shift=    0.000
 RMSDP=4.94D-03 MaxDP=7.26D-02 DE=-6.82D-02 OVMax= 9.29D-02

 Cycle   4  Pass 1  IDiag  1:
 E= -191.863601082324     Delta-E=       -0.011362808655 Rises=F Damp=F
 DIIS: error= 1.48D-02 at cycle   4 NSaved=   4.
 NSaved= 4 IEnMin= 4 EnMin= -191.863601082324     IErMin= 4 ErrMin= 1.48D-02
 ErrMax= 1.48D-02  0.00D+00 EMaxC= 1.00D-01 BMatC= 5.46D-03 BMatP= 1.57D-02
 IDIUse=3 WtCom= 8.52D-01 WtEn= 1.48D-01
 Coeff-Com:  0.453D-01 0.210D-01 0.347D+00 0.587D+00
 Coeff-En:   0.000D+00 0.000D+00 0.279D+00 0.721D+00
 Coeff:      0.386D-01 0.179D-01 0.337D+00 0.607D+00
 Gap=     0.186 Goal=   None    Shift=    0.000
 RMSDP=3.48D-03 MaxDP=7.81D-02 DE=-1.14D-02 OVMax= 4.06D-02

 Cycle   5  Pass 1  IDiag  1:
 E= -191.868542502550     Delta-E=       -0.004941420226 Rises=F Damp=F
 DIIS: error= 2.48D-03 at cycle   5 NSaved=   5.
 NSaved= 5 IEnMin= 5 EnMin= -191.868542502550     IErMin= 5 ErrMin= 2.48D-03
 ErrMax= 2.48D-03  0.00D+00 EMaxC= 1.00D-01 BMatC= 1.87D-04 BMatP= 5.46D-03
 IDIUse=3 WtCom= 9.75D-01 WtEn= 2.48D-02
 Coeff-Com:  0.151D-01-0.153D-01 0.177D+00 0.378D+00 0.445D+00
 Coeff-En:   0.000D+00 0.000D+00 0.000D+00 0.000D+00 0.100D+01
 Coeff:      0.148D-01-0.149D-01 0.172D+00 0.369D+00 0.459D+00
 Gap=     0.184 Goal=   None    Shift=    0.000
 RMSDP=5.26D-04 MaxDP=1.15D-02 DE=-4.94D-03 OVMax= 1.07D-02

 Cycle   6  Pass 1  IDiag  1:
 E= -191.868742398295     Delta-E=       -0.000199895745 Rises=F Damp=F
 DIIS: error= 6.05D-04 at cycle   6 NSaved=   6.
 NSaved= 6 IEnMin= 6 EnMin= -191.868742398295     IErMin= 6 ErrMin= 6.05D-04
 ErrMax= 6.05D-04  0.00D+00 EMaxC= 1.00D-01 BMatC= 1.13D-05 BMatP= 1.87D-04
 IDIUse=3 WtCom= 9.94D-01 WtEn= 6.05D-03
 Coeff-Com:  0.413D-02-0.930D-02 0.550D-01 0.122D+00 0.245D+00 0.583D+00
 Coeff-En:   0.000D+00 0.000D+00 0.000D+00 0.000D+00 0.159D-01 0.984D+00
 Coeff:      0.410D-02-0.924D-02 0.546D-01 0.121D+00 0.244D+00 0.586D+00
 Gap=     0.184 Goal=   None    Shift=    0.000
 RMSDP=9.77D-05 MaxDP=1.90D-03 DE=-2.00D-04 OVMax= 2.05D-03

 Cycle   7  Pass 1  IDiag  1:
 E= -191.868754352559     Delta-E=       -0.000011954265 Rises=F Damp=F
 DIIS: error= 9.68D-05 at cycle   7 NSaved=   7.
 NSaved= 7 IEnMin= 7 EnMin= -191.868754352559     IErMin= 7 ErrMin= 9.68D-05
 ErrMax= 9.68D-05  0.00D+00 EMaxC= 1.00D-01 BMatC= 5.11D-07 BMatP= 1.13D-05
 IDIUse=1 WtCom= 1.00D+00 WtEn= 0.00D+00
 Coeff-Com:  0.145D-03-0.155D-02 0.120D-02 0.141D-02 0.508D-01 0.253D+00
 Coeff-Com:  0.695D+00
 Coeff:      0.145D-03-0.155D-02 0.120D-02 0.141D-02 0.508D-01 0.253D+00
 Coeff:      0.695D+00
 Gap=     0.184 Goal=   None    Shift=    0.000
 RMSDP=4.52D-05 MaxDP=1.11D-03 DE=-1.20D-05 OVMax= 2.18D-04

 Cycle   8  Pass 1  IDiag  1:
 E= -191.868754880666     Delta-E=       -0.000000528107 Rises=F Damp=F
 DIIS: error= 9.22D-06 at cycle   8 NSaved=   8.
 NSaved= 8 IEnMin= 8 EnMin= -191.868754880666     IErMin= 8 ErrMin= 9.22D-06
 ErrMax= 9.22D-06  0.00D+00 EMaxC= 1.00D-01 BMatC= 1.75D-09 BMatP= 5.11D-07
 IDIUse=1 WtCom= 1.00D+00 WtEn= 0.00D+00
 Coeff-Com: -0.401D-04-0.338D-04-0.663D-03-0.160D-02 0.243D-02 0.280D-01
 Coeff-Com:  0.974D-01 0.874D+00
 Coeff:     -0.401D-04-0.338D-04-0.663D-03-0.160D-02 0.243D-02 0.280D-01
 Coeff:      0.974D-01 0.874D+00
 Gap=     0.184 Goal=   None    Shift=    0.000
 RMSDP=2.61D-06 MaxDP=1.92D-05 DE=-5.28D-07 OVMax= 5.05D-05

 Cycle   9  Pass 1  IDiag  1:
 E= -191.868754883899     Delta-E=       -0.000000003233 Rises=F Damp=F
 DIIS: error= 2.65D-06 at cycle   9 NSaved=   9.
 NSaved= 9 IEnMin= 9 EnMin= -191.868754883899     IErMin= 9 ErrMin= 2.65D-06
 ErrMax= 2.65D-06  0.00D+00 EMaxC= 1.00D-01 BMatC= 1.67D-10 BMatP= 1.75D-09
 IDIUse=1 WtCom= 1.00D+00 WtEn= 0.00D+00
 Coeff-Com: -0.691D-05 0.339D-04-0.126D-03-0.352D-03-0.867D-03-0.367D-02
 Coeff-Com: -0.602D-02 0.113D+00 0.898D+00
 Coeff:     -0.691D-05 0.339D-04-0.126D-03-0.352D-03-0.867D-03-0.367D-02
 Coeff:     -0.602D-02 0.113D+00 0.898D+00
 Gap=     0.184 Goal=   None    Shift=    0.000
 RMSDP=1.08D-06 MaxDP=2.28D-05 DE=-3.23D-09 OVMax= 6.11D-06

 Cycle  10  Pass 1  IDiag  1:
 E= -191.868754884110     Delta-E=       -0.000000000211 Rises=F Damp=F
 DIIS: error= 2.30D-07 at cycle  10 NSaved=  10.
 NSaved=10 IEnMin=10 EnMin= -191.868754884110     IErMin=10 ErrMin= 2.30D-07
 ErrMax= 2.30D-07  0.00D+00 EMaxC= 1.00D-01 BMatC= 2.07D-12 BMatP= 1.67D-10
 IDIUse=1 WtCom= 1.00D+00 WtEn= 0.00D+00
 Coeff-Com: -0.118D-05 0.631D-05-0.796D-05-0.358D-04-0.176D-03-0.118D-02
 Coeff-Com: -0.318D-02-0.393D-02 0.112D+00 0.897D+00
 Coeff:     -0.118D-05 0.631D-05-0.796D-05-0.358D-04-0.176D-03-0.118D-02
 Coeff:     -0.318D-02-0.393D-02 0.112D+00 0.897D+00
 Gap=     0.184 Goal=   None    Shift=    0.000
 RMSDP=1.70D-07 MaxDP=4.03D-06 DE=-2.11D-10 OVMax= 4.96D-07

 Cycle  11  Pass 1  IDiag  1:
 E= -191.868754884112     Delta-E=       -0.000000000002 Rises=F Damp=F
 DIIS: error= 2.03D-08 at cycle  11 NSaved=  11.
 NSaved=11 IEnMin=11 EnMin= -191.868754884112     IErMin=11 ErrMin= 2.03D-08
 ErrMax= 2.03D-08  0.00D+00 EMaxC= 1.00D-01 BMatC= 1.66D-14 BMatP= 2.07D-12
 IDIUse=1 WtCom= 1.00D+00 WtEn= 0.00D+00
 Coeff-Com: -0.180D-06 0.529D-07 0.157D-05 0.357D-05 0.614D-05-0.845D-05
 Coeff-Com: -0.407D-04-0.227D-02-0.933D-02 0.602D-01 0.951D+00
 Coeff:     -0.180D-06 0.529D-07 0.157D-05 0.357D-05 0.614D-05-0.845D-05
 Coeff:     -0.407D-04-0.227D-02-0.933D-02 0.602D-01 0.951D+00
 Gap=     0.184 Goal=   None    Shift=    0.000
 RMSDP=4.88D-09 MaxDP=4.98D-08 DE=-1.82D-12 OVMax= 1.08D-07

 SCF Done:  E(RB3LYP) =  -191.868754884     A.U. after   11 cycles
            NFock= 11  Conv=0.49D-08     -V/T= 2.0061
 KE= 1.906991439927D+02 PE=-6.517283761510D+02 EE= 1.669933113963D+02
 Leave Link  502 at Tue May 11 16:56:34 2021, MaxMem=  2147483648 cpu:         6.8
 (Enter /opt/cluster/programs/g09_d.01/g09/l601.exe)
 Copying SCF densities to generalized density rwf, IOpCl= 0 IROHF=0.

 **********************************************************************

            Population analysis using the SCF density.

 **********************************************************************

 Orbital symmetries:
       Occupied  (A) (A) (A) (A) (A) (A) (A) (A) (A) (A) (A) (A)
                 (A) (A) (A)
       Virtual   (A) (A) (A) (A) (A) (A) (A) (A) (A) (A) (A) (A)
                 (A) (A) (A) (A) (A) (A) (A) (A) (A) (A) (A) (A)
                 (A) (A) (A) (A) (A) (A) (A) (A) (A) (A) (A) (A)
                 (A) (A) (A) (A) (A) (A) (A) (A) (A)
 The electronic state is 1-A.
 Alpha  occ. eigenvalues --  -19.16760 -10.29478 -10.23230 -10.22519  -1.06684
 Alpha  occ. eigenvalues --   -0.82277  -0.66845  -0.59181  -0.49768  -0.49058
 Alpha  occ. eigenvalues --   -0.42890  -0.41141  -0.40888  -0.30697  -0.27321
 Alpha virt. eigenvalues --   -0.08921   0.00528   0.01318   0.01944   0.03264
 Alpha virt. eigenvalues --    0.06015   0.06096   0.06618   0.09149   0.09291
 Alpha virt. eigenvalues --    0.11555   0.12418   0.13585   0.15998   0.18911
 Alpha virt. eigenvalues --    0.21402   0.22140   0.25362   0.25383   0.27052
 Alpha virt. eigenvalues --    0.28915   0.30879   0.35684   0.38905   0.40914
 Alpha virt. eigenvalues --    0.62609   0.63008   0.67661   0.68070   0.71423
 Alpha virt. eigenvalues --    0.76993   0.78574   0.88439   0.92678   0.99039
 Alpha virt. eigenvalues --    1.00137   1.03005   1.12217   1.14719   1.21186
 Alpha virt. eigenvalues --    1.22044   1.28182   1.31026   1.37228   1.83425
          Condensed to atoms (all electrons):
               1          2          3          4          5          6
     1  C    5.792707  -0.558794   0.319551   0.059033   0.127268   0.357687
     2  C   -0.558794   6.811853  -0.148842  -0.219710  -0.305248  -0.012618
     3  C    0.319551  -0.148842   5.091082   0.303423   0.434225   0.002967
     4  O    0.059033  -0.219710   0.303423   8.363400  -0.064035  -0.000609
     5  H    0.127268  -0.305248   0.434225  -0.064035   0.640893   0.000104
     6  H    0.357687  -0.012618   0.002967  -0.000609   0.000104   0.494346
     7  H    0.393298  -0.066009   0.005981   0.000808   0.002280  -0.029035
     8  H   -0.028370   0.353472  -0.013742  -0.006051   0.002387  -0.003376
               7          8
     1  C    0.393298  -0.028370
     2  C   -0.066009   0.353472
     3  C    0.005981  -0.013742
     4  O    0.000808  -0.006051
     5  H    0.002280   0.002387
     6  H   -0.029035  -0.003376
     7  H    0.502413   0.003201
     8  H    0.003201   0.484809
 Mulliken charges:
               1
     1  C   -0.462381
     2  C    0.145894
     3  C    0.005355
     4  O   -0.436259
     5  H    0.162125
     6  H    0.190533
     7  H    0.187062
     8  H    0.207671
 Sum of Mulliken charges =   0.00000
 Mulliken charges with hydrogens summed into heavy atoms:
               1
     1  C   -0.084785
     2  C    0.353565
     3  C    0.167480
     4  O   -0.436259
 Electronic spatial extent (au):  <R**2>=            304.3444
 Charge=              0.0000 electrons
 Dipole moment (field-independent basis, Debye):
    X=              3.7455    Y=              0.8110    Z=              0.0000  Tot=              3.8323
 Quadrupole moment (field-independent basis, Debye-Ang):
   XX=            -28.4444   YY=            -22.0679   ZZ=            -25.5159
   XY=             -1.1727   XZ=              0.0000   YZ=              0.0000
 Traceless Quadrupole moment (field-independent basis, Debye-Ang):
   XX=             -3.1017   YY=              3.2748   ZZ=             -0.1731
   XY=             -1.1727   XZ=              0.0000   YZ=              0.0000
 Octapole moment (field-independent basis, Debye-Ang**2):
  XXX=             18.1430  YYY=             -0.0424  ZZZ=              0.0000  XYY=              0.1526
  XXY=              1.1181  XXZ=              0.0000  XZZ=             -4.3686  YZZ=              0.1220
  YYZ=              0.0001  XYZ=              0.0000
 Hexadecapole moment (field-independent basis, Debye-Ang**3):
 XXXX=           -319.5386 YYYY=            -57.8168 ZZZZ=            -28.4959 XXXY=             -3.7752
 XXXZ=              0.0001 YYYX=             -0.2297 YYYZ=              0.0000 ZZZX=              0.0000
 ZZZY=              0.0000 XXYY=            -60.2650 XXZZ=            -59.4399 YYZZ=            -15.9414
 XXYZ=              0.0000 YYXZ=              0.0000 ZZXY=              0.2749
 N-N= 1.021671658778D+02 E-N=-6.517283752036D+02  KE= 1.906991439927D+02
 No NMR shielding tensors so no spin-rotation constants.
 Leave Link  601 at Tue May 11 16:56:34 2021, MaxMem=  2147483648 cpu:         2.0
 (Enter /opt/cluster/programs/g09_d.01/g09/l701.exe)
 Compute integral first derivatives.
 ... and contract with generalized density number  0.
 Leave Link  701 at Tue May 11 16:56:34 2021, MaxMem=  2147483648 cpu:         0.7
 (Enter /opt/cluster/programs/g09_d.01/g09/l702.exe)
 L702 exits ... SP integral derivatives will be done elsewhere.
 Leave Link  702 at Tue May 11 16:56:35 2021, MaxMem=  2147483648 cpu:         0.3
 (Enter /opt/cluster/programs/g09_d.01/g09/l703.exe)
 Compute integral first derivatives, UseDBF=F ICtDFT=           0.
 Integral derivatives from FoFJK, PRISM(SPDF).
 Calling FoFJK, ICntrl=      2127 FMM=F ISym2X=0 I1Cent= 0 IOpClX= 0 NMat=1 NMatS=1 NMatT=0.
 FoFJK:  IHMeth= 1 ICntrl=    2127 DoSepK=F KAlg= 0 I1Cent=   0 FoldK=F
 IRaf=         0 NMat=   1 IRICut=       1 DoRegI=T DoRafI=F ISym2E= 0.
 FoFCou: FMM=F IPFlag=           0 FMFlag=      100000 FMFlg1=         800
         NFxFlg=           0 DoJE=F BraDBF=F KetDBF=F FulRan=T
         wScrn=  0.000000 ICntrl=    2127 IOpCl=  0 I1Cent=           0 NGrid=           0
         NMat0=    1 NMatS0=      1 NMatT0=    0 NMatD0=    1 NMtDS0=    0 NMtDT0=    0
 Symmetry not used in FoFCou.
 Leave Link  703 at Tue May 11 16:56:35 2021, MaxMem=  2147483648 cpu:         2.3
 (Enter /opt/cluster/programs/g09_d.01/g09/l716.exe)
 Dipole        = 1.47361047D+00 3.19055273D-01-2.26987875D-06
 ***** Axes restored to original set *****
 -------------------------------------------------------------------
 Center     Atomic                   Forces (Hartrees/Bohr)
 Number     Number              X              Y              Z
 -------------------------------------------------------------------
      1        6           0.000280660   -0.000002006    0.000050807
      2        6          -0.000372799    0.000004405    0.000014728
      3        6           0.000021089   -0.000006125   -0.000047474
      4        8           0.000093019    0.000001287    0.000021814
      5        1          -0.000054396    0.000002714   -0.000042751
      6        1          -0.000001695   -0.000000301   -0.000012892
      7        1          -0.000007430    0.000000281   -0.000015038
      8        1           0.000041551   -0.000000255    0.000030806
 -------------------------------------------------------------------
 Cartesian Forces:  Max     0.000372799 RMS     0.000100074
 Leave Link  716 at Tue May 11 16:56:35 2021, MaxMem=  2147483648 cpu:         0.3
 (Enter /opt/cluster/programs/g09_d.01/g09/l103.exe)

 GradGradGradGradGradGradGradGradGradGradGradGradGradGradGradGradGradGrad
 Berny optimization.
 FormGI is forming the generalized inverse of G from B-inverse, IUseBI=4.
 Internal  Forces:  Max     0.000271394 RMS     0.000065022
 Search for a local minimum.
 Step number   1 out of a maximum of   34 on scan point     1 out of    18
 All quantities printed in internal units (Hartrees-Bohrs-Radians)
 RMS Force = .66418D-04 SwitMx=.10000D-02 MixMth= 2
 Mixed Optimization -- En-DIIS/RFO-DIIS
 Second derivative matrix not updated -- first step.
 ITU=  0
     Eigenvalues ---    0.01190   0.01881   0.02810   0.02810   0.16000
     Eigenvalues ---    0.16000   0.16000   0.16000   0.22000   0.22000
     Eigenvalues ---    0.33093   0.34990   0.35132   0.35389   0.35987
     Eigenvalues ---    0.55998   0.854991000.000001000.000001000.00000
     Eigenvalues --- 1000.000001000.000001000.000001000.00000
 RFO step:  Lambda=-2.10214911D-07 EMin= 1.18998512D-02
 Linear search not attempted -- first point.
 Iteration  1 RMS(Cart)=  0.00020262 RMS(Int)=  0.00000002
 Iteration  2 RMS(Cart)=  0.00000002 RMS(Int)=  0.00000000
 Iteration  1 RMS(Cart)=  0.00000000 RMS(Int)=  0.00000000
 ITry= 1 IFail=0 DXMaxC= 5.78D-04 DCOld= 1.00D+10 DXMaxT= 3.00D-01 DXLimC= 3.00D+00 Rises=F
 Variable       Old X    -DE/DX   Delta X   Delta X   Delta X     New X
                                 (Linear)    (Quad)   (Total)
    R1        2.54255   0.00027   0.00000   0.00048   0.00048   2.54304
    R2        2.05048   0.00001   0.00000   0.00003   0.00003   2.05050
    R3        2.05690  -0.00002   0.00000  -0.00005  -0.00005   2.05685
    R4        2.77401  -0.00009   0.00000  -0.00025  -0.00025   2.77376
    R5        2.05461  -0.00005   0.00000  -0.00013  -0.00013   2.05448
    R6        2.35079  -0.00009   0.00000  -0.00011  -0.00011   2.35068
    R7        2.08889  -0.00006   0.00000  -0.00018  -0.00018   2.08871
    A1        2.13274  -0.00001   0.00000  -0.00009  -0.00009   2.13264
    A2        2.11765   0.00001   0.00000   0.00005   0.00005   2.11769
    A3        2.03280   0.00001   0.00000   0.00005   0.00005   2.03285
    A4        2.11841   0.00002   0.00000   0.00011   0.00011   2.11853
    A5        2.13112  -0.00004   0.00000  -0.00021  -0.00021   2.13091
    A6        2.03365   0.00001   0.00000   0.00010   0.00010   2.03375
    A7        2.16321   0.00000   0.00000   0.00001   0.00001   2.16322
    A8        2.02378   0.00003   0.00000   0.00019   0.00019   2.02397
    A9        2.09620  -0.00003   0.00000  -0.00020  -0.00020   2.09600
    D1       -3.14159   0.00000   0.00000  -0.00004  -0.00004   3.14156
    D2        0.00000   0.00000   0.00000   0.00001   0.00001   0.00002
    D3        0.00000   0.00000   0.00000  -0.00003  -0.00003  -0.00003
    D4       -3.14159   0.00000   0.00000   0.00002   0.00002  -3.14157
    D5       -3.14158   0.00000   0.00000   0.00000   0.00000  -3.14158
    D6       -0.00004   0.00000   0.00000   0.00019   0.00019   0.00016
    D7        0.00002   0.00000   0.00000  -0.00005  -0.00005  -0.00003
    D8        3.14156   0.00000   0.00000   0.00015   0.00015  -3.14148
         Item               Value     Threshold  Converged?
 Maximum Force            0.000271     0.000450     YES
 RMS     Force            0.000066     0.000300     YES
 Maximum Displacement     0.000578     0.001800     YES
 RMS     Displacement     0.000203     0.001200     YES
 Predicted change in Energy=-1.051075D-07
 Optimization completed.
    -- Stationary point found.
                           ----------------------------
                           !   Optimized Parameters   !
                           ! (Angstroms and Degrees)  !
 --------------------------                            --------------------------
 ! Name  Definition              Value          Derivative Info.                !
 --------------------------------------------------------------------------------
 ! R1    R(1,2)                  1.3455         -DE/DX =    0.0003              !
 ! R2    R(1,6)                  1.0851         -DE/DX =    0.0                 !
 ! R3    R(1,7)                  1.0885         -DE/DX =    0.0                 !
 ! R4    R(2,3)                  1.4679         -DE/DX =   -0.0001              !
 ! R5    R(2,8)                  1.0873         -DE/DX =    0.0                 !
 ! R6    R(3,4)                  1.244          -DE/DX =   -0.0001              !
 ! R7    R(3,5)                  1.1054         -DE/DX =   -0.0001              !
 ! A1    A(2,1,6)              122.1968         -DE/DX =    0.0                 !
 ! A2    A(2,1,7)              121.3323         -DE/DX =    0.0                 !
 ! A3    A(6,1,7)              116.471          -DE/DX =    0.0                 !
 ! A4    A(1,2,3)              121.3762         -DE/DX =    0.0                 !
 ! A5    A(1,2,8)              122.1042         -DE/DX =    0.0                 !
 ! A6    A(3,2,8)              116.5196         -DE/DX =    0.0                 !
 ! A7    A(2,3,4)              123.9426         -DE/DX =    0.0                 !
 ! A8    A(2,3,5)              115.9539         -DE/DX =    0.0                 !
 ! A9    A(4,3,5)              120.1035         -DE/DX =    0.0                 !
 ! D1    D(6,1,2,3)            180.0003         -DE/DX =    0.0                 !
 ! D2    D(6,1,2,8)              0.0002         -DE/DX =    0.0                 !
 ! D3    D(7,1,2,3)              0.0002         -DE/DX =    0.0                 !
 ! D4    D(7,1,2,8)           -179.9999         -DE/DX =    0.0                 !
 ! D5    D(1,2,3,4)           -179.999          -DE/DX =    0.0                 !
 ! D6    D(1,2,3,5)             -0.0021         -DE/DX =    0.0                 !
 ! D7    D(8,2,3,4)              0.0011         -DE/DX =    0.0                 !
 ! D8    D(8,2,3,5)           -180.0019         -DE/DX =    0.0                 !
 --------------------------------------------------------------------------------
 Lowest energy point so far.  Saving SCF results.
 Iteration  1 RMS(Cart)=  0.03400192 RMS(Int)=  0.05016468
 Iteration  2 RMS(Cart)=  0.02123106 RMS(Int)=  0.04423546
 Iteration  3 RMS(Cart)=  0.00446609 RMS(Int)=  0.04403944
 Iteration  4 RMS(Cart)=  0.00011823 RMS(Int)=  0.04403933
 Iteration  5 RMS(Cart)=  0.00000344 RMS(Int)=  0.04403933
 Iteration  6 RMS(Cart)=  0.00000029 RMS(Int)=  0.04403933
 Iteration  1 RMS(Cart)=  0.02284008 RMS(Int)=  0.01687697
 Iteration  2 RMS(Cart)=  0.00884168 RMS(Int)=  0.01876265
 Iteration  3 RMS(Cart)=  0.00341200 RMS(Int)=  0.02034279
 Iteration  4 RMS(Cart)=  0.00131523 RMS(Int)=  0.02104628
 Iteration  5 RMS(Cart)=  0.00050678 RMS(Int)=  0.02132954
 Iteration  6 RMS(Cart)=  0.00019524 RMS(Int)=  0.02144039
 Iteration  7 RMS(Cart)=  0.00007521 RMS(Int)=  0.02148334
 Iteration  8 RMS(Cart)=  0.00002897 RMS(Int)=  0.02149992
 Iteration  9 RMS(Cart)=  0.00001116 RMS(Int)=  0.02150631
 Iteration 10 RMS(Cart)=  0.00000430 RMS(Int)=  0.02150878
 Iteration 11 RMS(Cart)=  0.00000166 RMS(Int)=  0.02150973
 Iteration 12 RMS(Cart)=  0.00000064 RMS(Int)=  0.02151009
 GradGradGradGradGradGradGradGradGradGradGradGradGradGradGradGradGradGrad

 Leave Link  103 at Tue May 11 16:56:36 2021, MaxMem=  2147483648 cpu:         7.4
 (Enter /opt/cluster/programs/g09_d.01/g09/l202.exe)
                          Input orientation:                          
 ---------------------------------------------------------------------
 Center     Atomic      Atomic             Coordinates (Angstroms)
 Number     Number       Type             X           Y           Z
 ---------------------------------------------------------------------
      1          6           0        3.416024   -0.062903   -0.897190
      2          6           0        2.087159    0.053562   -1.076791
      3          6           0        1.161509    0.051031    0.062348
      4          8           0       -0.053130   -0.204409   -0.044332
      5          1           0        1.637779    0.016163    1.059189
      6          1           0        4.108684   -0.127346   -1.730090
      7          1           0        3.851629   -0.097301    0.099714
      8          1           0        1.643347    0.023203   -2.068848
 ---------------------------------------------------------------------
                    Distance matrix (angstroms):
                    1          2          3          4          5
     1  C    0.000000
     2  C    1.345995   0.000000
     3  C    2.452862   1.467813   0.000000
     4  O    3.575250   2.390263   1.245784   0.000000
     5  H    2.644962   2.183060   1.105323   2.031153   0.000000
     6  H    1.085197   2.132156   3.454054   4.490925   3.729080
     7  H    1.088463   2.126095   2.694466   3.908883   2.415492
     8  H    2.126636   1.087229   2.185164   2.651133   3.128050
                    6          7          8
     6  H    0.000000
     7  H    1.848016   0.000000
     8  H    2.493051   3.097368   0.000000
 Stoichiometry    C3H4O
 Framework group  C1[X(C3H4O)]
 Deg. of freedom    18
 Full point group                 C1      NOp   1
 RotChk:  IX=2 Diff= 5.06D-02
 Largest Abelian subgroup         C1      NOp   1
 Largest concise Abelian subgroup C1      NOp   1
                         Standard orientation:                         
 ---------------------------------------------------------------------
 Center     Atomic      Atomic             Coordinates (Angstroms)
 Number     Number       Type             X           Y           Z
 ---------------------------------------------------------------------
      1          6           0        1.765398    0.138013    0.061912
      2          6           0        0.561160   -0.443171   -0.092163
      3          6           0       -0.671111    0.353799   -0.120831
      4          8           0       -1.799990   -0.124644    0.099852
      5          1           0       -0.527726    1.448872   -0.076143
      6          1           0        2.679563   -0.440145    0.149597
      7          1           0        1.870124    1.220571    0.104956
      8          1           0        0.445278   -1.523994   -0.070733
 ---------------------------------------------------------------------
 Rotational constants (GHZ):     45.9307813      4.6016494      4.2191457
 Leave Link  202 at Tue May 11 16:56:37 2021, MaxMem=  2147483648 cpu:         0.4
 (Enter /opt/cluster/programs/g09_d.01/g09/l301.exe)
 Standard basis: 6-31+G (6D, 7F)
 Ernie: Thresh=  0.10000D-02 Tol=  0.10000D-05 Strict=F.
 There are    60 symmetry adapted cartesian basis functions of A   symmetry.
 There are    60 symmetry adapted basis functions of A   symmetry.
    60 basis functions,   120 primitive gaussians,    60 cartesian basis functions
    15 alpha electrons       15 beta electrons
       nuclear repulsion energy       102.2420661726 Hartrees.
 IExCor=  402 DFT=T Ex+Corr=B3LYP ExCW=0 ScaHFX=  0.200000
 ScaDFX=  0.800000  0.720000  1.000000  0.810000 ScalE2=  1.000000  1.000000
 IRadAn=      0 IRanWt=     -1 IRanGd=            0 ICorTp=0 IEmpDi=  4
 NAtoms=    8 NActive=    8 NUniq=    8 SFac= 1.00D+00 NAtFMM=   60 NAOKFM=F Big=F
 Integral buffers will be    131072 words long.
 Raffenetti 2 integral format.
 Two-electron integral symmetry is turned on.
 Leave Link  301 at Tue May 11 16:56:38 2021, MaxMem=  2147483648 cpu:         0.4
 (Enter /opt/cluster/programs/g09_d.01/g09/l302.exe)
 NPDir=0 NMtPBC=     1 NCelOv=     1 NCel=       1 NClECP=     1 NCelD=      1
         NCelK=      1 NCelE2=     1 NClLst=     1 CellRange=     0.0.
 One-electron integrals computed using PRISM.
 NBasis=    60 RedAO= T EigKep=  1.23D-04  NBF=    60
 NBsUse=    60 1.00D-06 EigRej= -1.00D+00 NBFU=    60
 Precomputing XC quadrature grid using
 IXCGrd= 4 IRadAn=           0 IRanWt=          -1 IRanGd=           0 AccXCQ= 0.00D+00.
 Generated NRdTot=       0 NPtTot=           0 NUsed=           0 NTot=          32
 NSgBfM=    60    60    60    60    60 MxSgAt=     8 MxSgA2=     8.
 Leave Link  302 at Tue May 11 16:56:39 2021, MaxMem=  2147483648 cpu:         1.2
 (Enter /opt/cluster/programs/g09_d.01/g09/l303.exe)
 DipDrv:  MaxL=1.
 Leave Link  303 at Tue May 11 16:56:39 2021, MaxMem=  2147483648 cpu:         0.5
 (Enter /opt/cluster/programs/g09_d.01/g09/l401.exe)
 Initial guess from the checkpoint file:  "/home/unibas/boittier/RDKit_G2/L.pdb/SCAN_1_2_3_4_S_17_20.0/L.pdb.chk"
 B after Tr=     0.000000    0.000000    0.000000
         Rot=    1.000000    0.000402   -0.000041   -0.000784 Ang=   0.10 deg.
 Guess basis will be translated and rotated to current coordinates.
 JPrj=2 DoOrth=T DoCkMO=T.
 Generating alternative initial guess.
 ExpMin= 4.38D-02 ExpMax= 5.48D+03 ExpMxC= 8.25D+02 IAcc=2 IRadAn=         4 AccDes= 0.00D+00
 Harris functional with IExCor=  402 and IRadAn=       4 diagonalized for initial guess.
 HarFok:  IExCor=  402 AccDes= 0.00D+00 IRadAn=         4 IDoV= 1 UseB2=F ITyADJ=14
 ICtDFT=  3500011 ScaDFX=  1.000000  1.000000  1.000000  1.000000
 FoFCou: FMM=F IPFlag=           0 FMFlag=      100000 FMFlg1=           0
         NFxFlg=           0 DoJE=T BraDBF=F KetDBF=T FulRan=T
         wScrn=  0.000000 ICntrl=     500 IOpCl=  0 I1Cent=   200000004 NGrid=           0
         NMat0=    1 NMatS0=      1 NMatT0=    0 NMatD0=    1 NMtDS0=    0 NMtDT0=    0
 Petite list used in FoFCou.
 Harris En= -191.881311660945    
 Leave Link  401 at Tue May 11 16:56:39 2021, MaxMem=  2147483648 cpu:         3.5
 (Enter /opt/cluster/programs/g09_d.01/g09/l502.exe)
 Closed shell SCF:
 Using DIIS extrapolation, IDIIS=  1040.
 Integral symmetry usage will be decided dynamically.
 Keep R1 ints in memory in canonical form, NReq=2587125.
 IVT=       30290 IEndB=       30290 NGot=  2147483648 MDV=  2145777994
 LenX=  2145777994 LenY=  2145773953
 Requested convergence on RMS density matrix=1.00D-08 within 128 cycles.
 Requested convergence on MAX density matrix=1.00D-06.
 Requested convergence on             energy=1.00D-06.
 No special actions if energy rises.
 FoFCou: FMM=F IPFlag=           0 FMFlag=           0 FMFlg1=           0
         NFxFlg=           0 DoJE=F BraDBF=F KetDBF=F FulRan=T
         wScrn=  0.000000 ICntrl=     600 IOpCl=  0 I1Cent=           0 NGrid=           0
         NMat0=    1 NMatS0=   1830 NMatT0=    0 NMatD0=    1 NMtDS0=    0 NMtDT0=    0
 Symmetry not used in FoFCou.

 Cycle   1  Pass 1  IDiag  1:
 E= -191.833488363343    
 DIIS: error= 1.39D-02 at cycle   1 NSaved=   1.
 NSaved= 1 IEnMin= 1 EnMin= -191.833488363343     IErMin= 1 ErrMin= 1.39D-02
 ErrMax= 1.39D-02  0.00D+00 EMaxC= 1.00D-01 BMatC= 1.28D-02 BMatP= 1.28D-02
 IDIUse=3 WtCom= 8.61D-01 WtEn= 1.39D-01
 Coeff-Com:  0.100D+01
 Coeff-En:   0.100D+01
 Coeff:      0.100D+01
 Recover alternate guess density for next cycle.
 RMSDP=1.32D-02 MaxDP=2.11D-01              OVMax= 0.00D+00

 Cycle   2  Pass 1  IDiag  1:
 E= -191.767821021879     Delta-E=        0.065667341464 Rises=F Damp=F
 Switch densities from cycles 1 and 2 for lowest energy.
 DIIS: error= 3.00D-02 at cycle   2 NSaved=   2.
 NSaved= 2 IEnMin= 1 EnMin= -191.833488363343     IErMin= 1 ErrMin= 1.39D-02
 ErrMax= 3.00D-02  0.00D+00 EMaxC= 1.00D+00 BMatC= 9.72D-02 BMatP= 1.28D-02
 IDIUse=1 WtCom= 1.00D+00 WtEn= 0.00D+00
 Coeff-Com:  0.894D+00 0.106D+00
 Coeff:      0.894D+00 0.106D+00
 Gap=     0.176 Goal=   None    Shift=    0.000
 RMSDP=5.95D-03 MaxDP=7.42D-02 DE= 6.57D-02 OVMax= 1.08D-01

 Cycle   3  Pass 1  IDiag  1:
 E= -191.860864113828     Delta-E=       -0.093043091949 Rises=F Damp=F
 DIIS: error= 9.13D-03 at cycle   3 NSaved=   3.
 NSaved= 3 IEnMin= 3 EnMin= -191.860864113828     IErMin= 3 ErrMin= 9.13D-03
 ErrMax= 9.13D-03  0.00D+00 EMaxC= 1.00D+00 BMatC= 5.17D-03 BMatP= 1.28D-02
 IDIUse=1 WtCom= 1.00D+00 WtEn= 0.00D+00
 Coeff-Com:  0.220D-01 0.169D+00 0.809D+00
 Coeff:      0.220D-01 0.169D+00 0.809D+00
 Gap=     0.191 Goal=   None    Shift=    0.000
 RMSDP=3.22D-03 MaxDP=5.89D-02 DE=-9.30D-02 OVMax= 3.78D-02

 Cycle   4  Pass 1  IDiag  1:
 E= -191.862977262768     Delta-E=       -0.002113148939 Rises=F Damp=F
 DIIS: error= 7.97D-03 at cycle   4 NSaved=   4.
 NSaved= 4 IEnMin= 4 EnMin= -191.862977262768     IErMin= 4 ErrMin= 7.97D-03
 ErrMax= 7.97D-03  0.00D+00 EMaxC= 1.00D+00 BMatC= 2.45D-03 BMatP= 5.17D-03
 IDIUse=1 WtCom= 1.00D+00 WtEn= 0.00D+00
 Coeff-Com: -0.384D-01 0.850D-01 0.537D+00 0.416D+00
 Coeff:     -0.384D-01 0.850D-01 0.537D+00 0.416D+00
 Gap=     0.182 Goal=   None    Shift=    0.000
 RMSDP=1.33D-03 MaxDP=1.96D-02 DE=-2.11D-03 OVMax= 2.35D-02

 Cycle   5  Pass 1  IDiag  1:
 E= -191.865181093245     Delta-E=       -0.002203830477 Rises=F Damp=F
 DIIS: error= 1.28D-03 at cycle   5 NSaved=   5.
 NSaved= 5 IEnMin= 5 EnMin= -191.865181093245     IErMin= 5 ErrMin= 1.28D-03
 ErrMax= 1.28D-03  0.00D+00 EMaxC= 1.00D+00 BMatC= 5.23D-05 BMatP= 2.45D-03
 IDIUse=1 WtCom= 1.00D+00 WtEn= 0.00D+00
 Coeff-Com: -0.824D-02 0.110D-01 0.783D-01 0.160D+00 0.759D+00
 Coeff:     -0.824D-02 0.110D-01 0.783D-01 0.160D+00 0.759D+00
 Gap=     0.184 Goal=   None    Shift=    0.000
 RMSDP=3.99D-04 MaxDP=8.56D-03 DE=-2.20D-03 OVMax= 5.64D-03

 Cycle   6  Pass 1  IDiag  1:
 E= -191.865222976902     Delta-E=       -0.000041883658 Rises=F Damp=F
 DIIS: error= 4.32D-04 at cycle   6 NSaved=   6.
 NSaved= 6 IEnMin= 6 EnMin= -191.865222976902     IErMin= 6 ErrMin= 4.32D-04
 ErrMax= 4.32D-04  0.00D+00 EMaxC= 1.00D+00 BMatC= 1.19D-05 BMatP= 5.23D-05
 IDIUse=1 WtCom= 1.00D+00 WtEn= 0.00D+00
 Coeff-Com: -0.283D-02 0.205D-02 0.163D-01 0.775D-01 0.483D+00 0.424D+00
 Coeff:     -0.283D-02 0.205D-02 0.163D-01 0.775D-01 0.483D+00 0.424D+00
 Gap=     0.183 Goal=   None    Shift=    0.000
 RMSDP=9.26D-05 MaxDP=1.40D-03 DE=-4.19D-05 OVMax= 2.23D-03

 Cycle   7  Pass 1  IDiag  1:
 E= -191.865236642704     Delta-E=       -0.000013665801 Rises=F Damp=F
 DIIS: error= 7.84D-05 at cycle   7 NSaved=   7.
 NSaved= 7 IEnMin= 7 EnMin= -191.865236642704     IErMin= 7 ErrMin= 7.84D-05
 ErrMax= 7.84D-05  0.00D+00 EMaxC= 1.00D+00 BMatC= 3.44D-07 BMatP= 1.19D-05
 IDIUse=1 WtCom= 1.00D+00 WtEn= 0.00D+00
 Coeff-Com: -0.741D-03 0.157D-03 0.138D-02 0.247D-01 0.174D+00 0.204D+00
 Coeff-Com:  0.597D+00
 Coeff:     -0.741D-03 0.157D-03 0.138D-02 0.247D-01 0.174D+00 0.204D+00
 Coeff:      0.597D+00
 Gap=     0.183 Goal=   None    Shift=    0.000
 RMSDP=1.31D-05 MaxDP=1.87D-04 DE=-1.37D-05 OVMax= 3.27D-04

 Cycle   8  Pass 1  IDiag  1:
 E= -191.865236999650     Delta-E=       -0.000000356947 Rises=F Damp=F
 DIIS: error= 2.25D-05 at cycle   8 NSaved=   8.
 NSaved= 8 IEnMin= 8 EnMin= -191.865236999650     IErMin= 8 ErrMin= 2.25D-05
 ErrMax= 2.25D-05  0.00D+00 EMaxC= 1.00D+00 BMatC= 2.85D-08 BMatP= 3.44D-07
 IDIUse=1 WtCom= 1.00D+00 WtEn= 0.00D+00
 Coeff-Com:  0.169D-03-0.321D-03-0.248D-02-0.344D-02-0.110D-01 0.147D-01
 Coeff-Com:  0.243D+00 0.760D+00
 Coeff:      0.169D-03-0.321D-03-0.248D-02-0.344D-02-0.110D-01 0.147D-01
 Coeff:      0.243D+00 0.760D+00
 Gap=     0.183 Goal=   None    Shift=    0.000
 RMSDP=6.25D-06 MaxDP=8.95D-05 DE=-3.57D-07 OVMax= 8.89D-05

 Cycle   9  Pass 1  IDiag  1:
 E= -191.865237036270     Delta-E=       -0.000000036620 Rises=F Damp=F
 DIIS: error= 1.69D-06 at cycle   9 NSaved=   9.
 NSaved= 9 IEnMin= 9 EnMin= -191.865237036270     IErMin= 9 ErrMin= 1.69D-06
 ErrMax= 1.69D-06  0.00D+00 EMaxC= 1.00D+00 BMatC= 1.55D-10 BMatP= 2.85D-08
 IDIUse=1 WtCom= 1.00D+00 WtEn= 0.00D+00
 Coeff-Com:  0.159D-04-0.294D-05-0.106D-03-0.607D-03-0.447D-02-0.451D-02
 Coeff-Com: -0.171D-01-0.146D-02 0.103D+01
 Coeff:      0.159D-04-0.294D-05-0.106D-03-0.607D-03-0.447D-02-0.451D-02
 Coeff:     -0.171D-01-0.146D-02 0.103D+01
 Gap=     0.183 Goal=   None    Shift=    0.000
 RMSDP=1.55D-06 MaxDP=2.16D-05 DE=-3.66D-08 OVMax= 2.87D-05

 Cycle  10  Pass 1  IDiag  1:
 E= -191.865237036869     Delta-E=       -0.000000000598 Rises=F Damp=F
 DIIS: error= 4.56D-07 at cycle  10 NSaved=  10.
 NSaved=10 IEnMin=10 EnMin= -191.865237036869     IErMin=10 ErrMin= 4.56D-07
 ErrMax= 4.56D-07  0.00D+00 EMaxC= 1.00D+00 BMatC= 5.36D-12 BMatP= 1.55D-10
 IDIUse=1 WtCom= 1.00D+00 WtEn= 0.00D+00
 Coeff-Com: -0.187D-05 0.765D-05 0.561D-04 0.361D-04-0.118D-03-0.647D-03
 Coeff-Com: -0.835D-02-0.202D-01 0.112D+00 0.917D+00
 Coeff:     -0.187D-05 0.765D-05 0.561D-04 0.361D-04-0.118D-03-0.647D-03
 Coeff:     -0.835D-02-0.202D-01 0.112D+00 0.917D+00
 Gap=     0.183 Goal=   None    Shift=    0.000
 RMSDP=2.69D-07 MaxDP=3.61D-06 DE=-5.98D-10 OVMax= 6.33D-06

 Cycle  11  Pass 1  IDiag  1:
 E= -191.865237036895     Delta-E=       -0.000000000027 Rises=F Damp=F
 DIIS: error= 9.08D-08 at cycle  11 NSaved=  11.
 NSaved=11 IEnMin=11 EnMin= -191.865237036895     IErMin=11 ErrMin= 9.08D-08
 ErrMax= 9.08D-08  0.00D+00 EMaxC= 1.00D+00 BMatC= 2.17D-13 BMatP= 5.36D-12
 IDIUse=1 WtCom= 1.00D+00 WtEn= 0.00D+00
 Coeff-Com: -0.614D-06-0.536D-06 0.849D-06 0.248D-04 0.219D-03 0.276D-03
 Coeff-Com:  0.148D-02 0.169D-02-0.607D-01-0.836D-01 0.114D+01
 Coeff:     -0.614D-06-0.536D-06 0.849D-06 0.248D-04 0.219D-03 0.276D-03
 Coeff:      0.148D-02 0.169D-02-0.607D-01-0.836D-01 0.114D+01
 Gap=     0.183 Goal=   None    Shift=    0.000
 RMSDP=7.10D-08 MaxDP=8.68D-07 DE=-2.68D-11 OVMax= 2.21D-06

 Cycle  12  Pass 1  IDiag  1:
 E= -191.865237036897     Delta-E=       -0.000000000001 Rises=F Damp=F
 DIIS: error= 8.55D-09 at cycle  12 NSaved=  12.
 NSaved=12 IEnMin=12 EnMin= -191.865237036897     IErMin=12 ErrMin= 8.55D-09
 ErrMax= 8.55D-09  0.00D+00 EMaxC= 1.00D+00 BMatC= 2.71D-15 BMatP= 2.17D-13
 IDIUse=1 WtCom= 1.00D+00 WtEn= 0.00D+00
 Coeff-Com:  0.112D-07-0.161D-06-0.132D-05 0.181D-06 0.142D-04 0.307D-04
 Coeff-Com:  0.273D-03 0.542D-03-0.531D-02-0.246D-01 0.542D-01 0.975D+00
 Coeff:      0.112D-07-0.161D-06-0.132D-05 0.181D-06 0.142D-04 0.307D-04
 Coeff:      0.273D-03 0.542D-03-0.531D-02-0.246D-01 0.542D-01 0.975D+00
 Gap=     0.183 Goal=   None    Shift=    0.000
 RMSDP=5.56D-09 MaxDP=6.02D-08 DE=-1.48D-12 OVMax= 1.73D-07

 SCF Done:  E(RB3LYP) =  -191.865237037     A.U. after   12 cycles
            NFock= 12  Conv=0.56D-08     -V/T= 2.0061
 KE= 1.906963768519D+02 PE=-6.518698617006D+02 EE= 1.670661816392D+02
 Leave Link  502 at Tue May 11 16:56:40 2021, MaxMem=  2147483648 cpu:         7.0
 (Enter /opt/cluster/programs/g09_d.01/g09/l701.exe)
 Compute integral first derivatives.
 ... and contract with generalized density number  0.
 Leave Link  701 at Tue May 11 16:56:41 2021, MaxMem=  2147483648 cpu:         1.9
 (Enter /opt/cluster/programs/g09_d.01/g09/l702.exe)
 L702 exits ... SP integral derivatives will be done elsewhere.
 Leave Link  702 at Tue May 11 16:56:41 2021, MaxMem=  2147483648 cpu:         0.2
 (Enter /opt/cluster/programs/g09_d.01/g09/l703.exe)
 Compute integral first derivatives, UseDBF=F ICtDFT=           0.
 Integral derivatives from FoFJK, PRISM(SPDF).
 Calling FoFJK, ICntrl=      2127 FMM=F ISym2X=0 I1Cent= 0 IOpClX= 0 NMat=1 NMatS=1 NMatT=0.
 FoFJK:  IHMeth= 1 ICntrl=    2127 DoSepK=F KAlg= 0 I1Cent=   0 FoldK=F
 IRaf=         0 NMat=   1 IRICut=       1 DoRegI=T DoRafI=F ISym2E= 0.
 FoFCou: FMM=F IPFlag=           0 FMFlag=      100000 FMFlg1=         800
         NFxFlg=           0 DoJE=F BraDBF=F KetDBF=F FulRan=T
         wScrn=  0.000000 ICntrl=    2127 IOpCl=  0 I1Cent=           0 NGrid=           0
         NMat0=    1 NMatS0=      1 NMatT0=    0 NMatD0=    1 NMtDS0=    0 NMtDT0=    0
 Symmetry not used in FoFCou.
 Leave Link  703 at Tue May 11 16:56:41 2021, MaxMem=  2147483648 cpu:         1.8
 (Enter /opt/cluster/programs/g09_d.01/g09/l716.exe)
 Dipole        = 1.45045313D+00 3.15232515D-01-8.03609988D-02
 ***** Axes restored to original set *****
 -------------------------------------------------------------------
 Center     Atomic                   Forces (Hartrees/Bohr)
 Number     Number              X              Y              Z
 -------------------------------------------------------------------
      1        6           0.000103266    0.003489328    0.000831007
      2        6           0.000414931    0.001016466   -0.002294847
      3        6           0.002426636   -0.028501292    0.000558760
      4        8          -0.001486473    0.011365205   -0.000196372
      5        1          -0.000843001    0.009734173    0.001068862
      6        1          -0.000302924   -0.001291468   -0.000001554
      7        1           0.000232763    0.001179633   -0.000012308
      8        1          -0.000545198    0.003007955    0.000046453
 -------------------------------------------------------------------
 Cartesian Forces:  Max     0.028501292 RMS     0.006703385
 Leave Link  716 at Tue May 11 16:56:41 2021, MaxMem=  2147483648 cpu:         0.2
 (Enter /opt/cluster/programs/g09_d.01/g09/l103.exe)

 GradGradGradGradGradGradGradGradGradGradGradGradGradGradGradGradGradGrad
 Berny optimization.
 FormGI is forming the generalized inverse of G from B-inverse, IUseBI=4.
 Internal  Forces:  Max     0.012467505 RMS     0.004370695
 Search for a local minimum.
 Step number   1 out of a maximum of   34 on scan point     2 out of    18
 All quantities printed in internal units (Hartrees-Bohrs-Radians)
 RMS Force = .29901D-02 SwitMx=.10000D-02 MixMth= 1
 Mixed Optimization -- RFO/linear search
 Second derivative matrix not updated -- first step.
 ITU=  0
     Eigenvalues ---    0.01350   0.01944   0.02810   0.02810   0.15900
     Eigenvalues ---    0.16000   0.16000   0.16000   0.22021   0.22110
     Eigenvalues ---    0.33093   0.34990   0.35132   0.35389   0.35987
     Eigenvalues ---    0.55998   0.854991000.000001000.000001000.00000
     Eigenvalues --- 1000.000001000.000001000.000001000.00000
 RFO step:  Lambda=-8.51351506D-03 EMin= 1.34986223D-02
 Linear search not attempted -- first point.
 Iteration  1 RMS(Cart)=  0.04940132 RMS(Int)=  0.06347493
 Iteration  2 RMS(Cart)=  0.05680178 RMS(Int)=  0.01237993
 Iteration  3 RMS(Cart)=  0.00615087 RMS(Int)=  0.01072967
 Iteration  4 RMS(Cart)=  0.00007747 RMS(Int)=  0.01072923
 Iteration  5 RMS(Cart)=  0.00000185 RMS(Int)=  0.01072923
 Iteration  6 RMS(Cart)=  0.00000005 RMS(Int)=  0.01072923
 Iteration  1 RMS(Cart)=  0.00036690 RMS(Int)=  0.00026784
 Iteration  2 RMS(Cart)=  0.00014004 RMS(Int)=  0.00029777
 Iteration  3 RMS(Cart)=  0.00005346 RMS(Int)=  0.00032259
 Iteration  4 RMS(Cart)=  0.00002041 RMS(Int)=  0.00033353
 Iteration  5 RMS(Cart)=  0.00000779 RMS(Int)=  0.00033789
 Iteration  6 RMS(Cart)=  0.00000297 RMS(Int)=  0.00033958
 Iteration  7 RMS(Cart)=  0.00000114 RMS(Int)=  0.00034023
 Iteration  8 RMS(Cart)=  0.00000043 RMS(Int)=  0.00034048
 ITry= 1 IFail=0 DXMaxC= 3.67D-01 DCOld= 1.00D+10 DXMaxT= 3.00D-01 DXLimC= 3.00D+00 Rises=F
 Variable       Old X    -DE/DX   Delta X   Delta X   Delta X     New X
                                 (Linear)    (Quad)   (Total)
    R1        2.54356  -0.00015   0.00000  -0.00027  -0.00027   2.54330
    R2        2.05073  -0.00011   0.00000  -0.00032  -0.00032   2.05041
    R3        2.05690   0.00004   0.00000   0.00012   0.00012   2.05702
    R4        2.77376   0.00106   0.00000   0.00289   0.00289   2.77665
    R5        2.05457   0.00010   0.00000   0.00027   0.00027   2.05483
    R6        2.35419  -0.00087   0.00000  -0.00100  -0.00100   2.35319
    R7        2.08876   0.00030   0.00000   0.00087   0.00087   2.08963
    A1        2.13280  -0.00029   0.00000  -0.00172  -0.00172   2.13108
    A2        2.11771   0.00027   0.00000   0.00161   0.00161   2.11932
    A3        2.03268   0.00002   0.00000   0.00012   0.00012   2.03279
    A4        2.11636  -0.00028   0.00000  -0.00376  -0.00455   2.11181
    A5        2.12040   0.00115   0.00000  -0.00009  -0.00078   2.11961
    A6        2.03831  -0.00057   0.00000  -0.00517  -0.00605   2.03226
    A7        2.15168   0.00311   0.00000   0.03337   0.00324   2.15492
    A8        2.01333   0.00242   0.00000   0.04735   0.01715   2.03049
    A9        2.08389  -0.00040   0.00000   0.03179   0.00119   2.08508
    D1        3.07107   0.00011   0.00000  -0.07026  -0.06986   3.00122
    D2        0.07043  -0.00239   0.00000   0.00801   0.00761   0.07804
    D3       -0.07052   0.00021   0.00000  -0.06767  -0.06727  -0.13778
    D4       -3.07116  -0.00230   0.00000   0.01060   0.01020  -3.06096
    D5       -2.79251  -0.01247   0.00000   0.00000   0.00000  -2.79251
    D6        0.06835   0.00797   0.00000   0.45537   0.45264   0.52099
    D7        0.21448  -0.00994   0.00000  -0.07436  -0.07335   0.14113
    D8        3.07534   0.01049   0.00000   0.38101   0.37929  -2.82856
         Item               Value     Threshold  Converged?
 Maximum Force            0.010496     0.000450     NO 
 RMS     Force            0.002990     0.000300     NO 
 Maximum Displacement     0.367484     0.001800     NO 
 RMS     Displacement     0.107880     0.001200     NO 
 Predicted change in Energy=-6.036590D-03
 Lowest energy point so far.  Saving SCF results.
 GradGradGradGradGradGradGradGradGradGradGradGradGradGradGradGradGradGrad

 Leave Link  103 at Tue May 11 16:56:42 2021, MaxMem=  2147483648 cpu:         3.2
 (Enter /opt/cluster/programs/g09_d.01/g09/l202.exe)
                          Input orientation:                          
 ---------------------------------------------------------------------
 Center     Atomic      Atomic             Coordinates (Angstroms)
 Number     Number       Type             X           Y           Z
 ---------------------------------------------------------------------
      1          6           0        3.423813   -0.083630   -0.904165
      2          6           0        2.096704    0.073060   -1.064019
      3          6           0        1.176338   -0.062063    0.073359
      4          8           0       -0.042185   -0.285926   -0.052121
      5          1           0        1.579891    0.210627    1.066104
      6          1           0        4.106372   -0.115141   -1.747023
      7          1           0        3.868044   -0.188097    0.084085
      8          1           0        1.644022    0.103169   -2.052222
 ---------------------------------------------------------------------
                    Distance matrix (angstroms):
                    1          2          3          4          5
     1  C    0.000000
     2  C    1.345854   0.000000
     3  C    2.450952   1.469340   0.000000
     4  O    3.574919   2.393252   1.245254   0.000000
     5  H    2.714515   2.196233   1.105784   2.031778   0.000000
     6  H    1.085030   2.130887   3.449885   4.484684   3.795117
     7  H    1.088527   2.126967   2.694676   3.913823   2.521702
     8  H    2.126167   1.087370   2.182687   2.644824   3.120835
                    6          7          8
     6  H    0.000000
     7  H    1.847994   0.000000
     8  H    2.490778   3.097566   0.000000
 Stoichiometry    C3H4O
 Framework group  C1[X(C3H4O)]
 Deg. of freedom    18
 Full point group                 C1      NOp   1
 RotChk:  IX=2 Diff= 4.08D-02
 Largest Abelian subgroup         C1      NOp   1
 Largest concise Abelian subgroup C1      NOp   1
                         Standard orientation:                         
 ---------------------------------------------------------------------
 Center     Atomic      Atomic             Coordinates (Angstroms)
 Number     Number       Type             X           Y           Z
 ---------------------------------------------------------------------
      1          6           0        1.766685    0.135358    0.078662
      2          6           0        0.564502   -0.432773   -0.129441
      3          6           0       -0.669371    0.362587   -0.066819
      4          8           0       -1.797986   -0.133467    0.108725
      5          1           0       -0.581516    1.427594   -0.351073
      6          1           0        2.675035   -0.451967    0.163747
      7          1           0        1.875903    1.214282    0.172922
      8          1           0        0.443571   -1.513206   -0.149802
 ---------------------------------------------------------------------
 Rotational constants (GHZ):     45.5771922      4.5926900      4.2219143
 Leave Link  202 at Tue May 11 16:56:42 2021, MaxMem=  2147483648 cpu:         0.3
 (Enter /opt/cluster/programs/g09_d.01/g09/l301.exe)
 Standard basis: 6-31+G (6D, 7F)
 Ernie: Thresh=  0.10000D-02 Tol=  0.10000D-05 Strict=F.
 There are    60 symmetry adapted cartesian basis functions of A   symmetry.
 There are    60 symmetry adapted basis functions of A   symmetry.
    60 basis functions,   120 primitive gaussians,    60 cartesian basis functions
    15 alpha electrons       15 beta electrons
       nuclear repulsion energy       102.1866555157 Hartrees.
 IExCor=  402 DFT=T Ex+Corr=B3LYP ExCW=0 ScaHFX=  0.200000
 ScaDFX=  0.800000  0.720000  1.000000  0.810000 ScalE2=  1.000000  1.000000
 IRadAn=      0 IRanWt=     -1 IRanGd=            0 ICorTp=0 IEmpDi=  4
 NAtoms=    8 NActive=    8 NUniq=    8 SFac= 1.00D+00 NAtFMM=   60 NAOKFM=F Big=F
 Integral buffers will be    131072 words long.
 Raffenetti 2 integral format.
 Two-electron integral symmetry is turned on.
 Leave Link  301 at Tue May 11 16:56:42 2021, MaxMem=  2147483648 cpu:         0.3
 (Enter /opt/cluster/programs/g09_d.01/g09/l302.exe)
 NPDir=0 NMtPBC=     1 NCelOv=     1 NCel=       1 NClECP=     1 NCelD=      1
         NCelK=      1 NCelE2=     1 NClLst=     1 CellRange=     0.0.
 One-electron integrals computed using PRISM.
 NBasis=    60 RedAO= T EigKep=  1.24D-04  NBF=    60
 NBsUse=    60 1.00D-06 EigRej= -1.00D+00 NBFU=    60
 Precomputing XC quadrature grid using
 IXCGrd= 4 IRadAn=           0 IRanWt=          -1 IRanGd=           0 AccXCQ= 0.00D+00.
 Generated NRdTot=       0 NPtTot=           0 NUsed=           0 NTot=          32
 NSgBfM=    60    60    60    60    60 MxSgAt=     8 MxSgA2=     8.
 Leave Link  302 at Tue May 11 16:56:43 2021, MaxMem=  2147483648 cpu:         3.7
 (Enter /opt/cluster/programs/g09_d.01/g09/l303.exe)
 DipDrv:  MaxL=1.
 Leave Link  303 at Tue May 11 16:56:43 2021, MaxMem=  2147483648 cpu:         0.5
 (Enter /opt/cluster/programs/g09_d.01/g09/l401.exe)
 Initial guess from the checkpoint file:  "/home/unibas/boittier/RDKit_G2/L.pdb/SCAN_1_2_3_4_S_17_20.0/L.pdb.chk"
 B after Tr=     0.000000    0.000000    0.000000
         Rot=    0.999997   -0.002308   -0.000178   -0.001046 Ang=  -0.29 deg.
 Guess basis will be translated and rotated to current coordinates.
 JPrj=2 DoOrth=T DoCkMO=T.
 Generating alternative initial guess.
 ExpMin= 4.38D-02 ExpMax= 5.48D+03 ExpMxC= 8.25D+02 IAcc=2 IRadAn=         4 AccDes= 0.00D+00
 Harris functional with IExCor=  402 and IRadAn=       4 diagonalized for initial guess.
 HarFok:  IExCor=  402 AccDes= 0.00D+00 IRadAn=         4 IDoV= 1 UseB2=F ITyADJ=14
 ICtDFT=  3500011 ScaDFX=  1.000000  1.000000  1.000000  1.000000
 FoFCou: FMM=F IPFlag=           0 FMFlag=      100000 FMFlg1=           0
         NFxFlg=           0 DoJE=T BraDBF=F KetDBF=T FulRan=T
         wScrn=  0.000000 ICntrl=     500 IOpCl=  0 I1Cent=   200000004 NGrid=           0
         NMat0=    1 NMatS0=      1 NMatT0=    0 NMatD0=    1 NMtDS0=    0 NMtDT0=    0
 Petite list used in FoFCou.
 Harris En= -191.881373463099    
 Leave Link  401 at Tue May 11 16:56:43 2021, MaxMem=  2147483648 cpu:         1.3
 (Enter /opt/cluster/programs/g09_d.01/g09/l502.exe)
 Closed shell SCF:
 Using DIIS extrapolation, IDIIS=  1040.
 Integral symmetry usage will be decided dynamically.
 Keep R1 ints in memory in canonical form, NReq=2587125.
 IVT=       30290 IEndB=       30290 NGot=  2147483648 MDV=  2145777994
 LenX=  2145777994 LenY=  2145773953
 Requested convergence on RMS density matrix=1.00D-08 within 128 cycles.
 Requested convergence on MAX density matrix=1.00D-06.
 Requested convergence on             energy=1.00D-06.
 No special actions if energy rises.
 FoFCou: FMM=F IPFlag=           0 FMFlag=           0 FMFlg1=           0
         NFxFlg=           0 DoJE=F BraDBF=F KetDBF=F FulRan=T
         wScrn=  0.000000 ICntrl=     600 IOpCl=  0 I1Cent=           0 NGrid=           0
         NMat0=    1 NMatS0=   1830 NMatT0=    0 NMatD0=    1 NMtDS0=    0 NMtDT0=    0
 Symmetry not used in FoFCou.

 Cycle   1  Pass 1  IDiag  1:
 E= -191.856815014772    
 DIIS: error= 6.73D-03 at cycle   1 NSaved=   1.
 NSaved= 1 IEnMin= 1 EnMin= -191.856815014772     IErMin= 1 ErrMin= 6.73D-03
 ErrMax= 6.73D-03  0.00D+00 EMaxC= 1.00D-01 BMatC= 3.39D-03 BMatP= 3.39D-03
 IDIUse=3 WtCom= 9.33D-01 WtEn= 6.73D-02
 Coeff-Com:  0.100D+01
 Coeff-En:   0.100D+01
 Coeff:      0.100D+01
 Gap=     0.462 Goal=   None    Shift=    0.000
 GapD=    0.462 DampG=2.000 DampE=1.000 DampFc=2.0000 IDamp=-1.
 RMSDP=3.11D-03 MaxDP=2.79D-02              OVMax= 4.85D-02

 Cycle   2  Pass 1  IDiag  1:
 E= -191.864826590780     Delta-E=       -0.008011576008 Rises=F Damp=F
 DIIS: error= 9.99D-04 at cycle   2 NSaved=   2.
 NSaved= 2 IEnMin= 2 EnMin= -191.864826590780     IErMin= 2 ErrMin= 9.99D-04
 ErrMax= 9.99D-04  0.00D+00 EMaxC= 1.00D-01 BMatC= 7.26D-05 BMatP= 3.39D-03
 IDIUse=3 WtCom= 9.90D-01 WtEn= 9.99D-03
 Coeff-Com: -0.401D-01 0.104D+01
 Coeff-En:   0.000D+00 0.100D+01
 Coeff:     -0.397D-01 0.104D+01
 Gap=     0.182 Goal=   None    Shift=    0.000
 RMSDP=7.82D-04 MaxDP=9.36D-03 DE=-8.01D-03 OVMax= 1.42D-02

 Cycle   3  Pass 1  IDiag  1:
 E= -191.864926460759     Delta-E=       -0.000099869979 Rises=F Damp=F
 DIIS: error= 1.92D-03 at cycle   3 NSaved=   3.
 NSaved= 3 IEnMin= 3 EnMin= -191.864926460759     IErMin= 2 ErrMin= 9.99D-04
 ErrMax= 1.92D-03  0.00D+00 EMaxC= 1.00D-01 BMatC= 1.47D-04 BMatP= 7.26D-05
 IDIUse=3 WtCom= 1.86D-01 WtEn= 8.14D-01
 Coeff-Com: -0.382D-01 0.653D+00 0.386D+00
 Coeff-En:   0.000D+00 0.154D+00 0.846D+00
 Coeff:     -0.710D-02 0.247D+00 0.760D+00
 Gap=     0.188 Goal=   None    Shift=    0.000
 RMSDP=7.76D-04 MaxDP=9.99D-03 DE=-9.99D-05 OVMax= 1.15D-02

 Cycle   4  Pass 1  IDiag  1:
 E= -191.864706005948     Delta-E=        0.000220454811 Rises=F Damp=F
 DIIS: error= 3.28D-03 at cycle   4 NSaved=   4.
 NSaved= 4 IEnMin= 3 EnMin= -191.864926460759     IErMin= 2 ErrMin= 9.99D-04
 ErrMax= 3.28D-03  0.00D+00 EMaxC= 1.00D-01 BMatC= 4.23D-04 BMatP= 7.26D-05
 IDIUse=3 WtCom= 1.49D-01 WtEn= 8.51D-01
 Coeff-Com: -0.125D-01 0.896D-01 0.595D+00 0.328D+00
 Coeff-En:   0.000D+00 0.000D+00 0.672D+00 0.328D+00
 Coeff:     -0.185D-02 0.133D-01 0.661D+00 0.328D+00
 Gap=     0.185 Goal=   None    Shift=    0.000
 RMSDP=4.71D-04 MaxDP=7.80D-03 DE= 2.20D-04 OVMax= 6.20D-03

 Cycle   5  Pass 1  IDiag  1:
 E= -191.865053535499     Delta-E=       -0.000347529552 Rises=F Damp=F
 DIIS: error= 4.85D-04 at cycle   5 NSaved=   5.
 NSaved= 5 IEnMin= 5 EnMin= -191.865053535499     IErMin= 5 ErrMin= 4.85D-04
 ErrMax= 4.85D-04  0.00D+00 EMaxC= 1.00D-01 BMatC= 8.68D-06 BMatP= 7.26D-05
 IDIUse=3 WtCom= 9.95D-01 WtEn= 4.85D-03
 Coeff-Com: -0.106D-02-0.214D-01 0.199D+00 0.690D-02 0.816D+00
 Coeff-En:   0.000D+00 0.000D+00 0.284D-01 0.000D+00 0.972D+00
 Coeff:     -0.106D-02-0.213D-01 0.199D+00 0.687D-02 0.817D+00
 Gap=     0.185 Goal=   None    Shift=    0.000
 RMSDP=6.88D-05 MaxDP=6.40D-04 DE=-3.48D-04 OVMax= 1.27D-03

 Cycle   6  Pass 1  IDiag  1:
 E= -191.865061456726     Delta-E=       -0.000007921226 Rises=F Damp=F
 DIIS: error= 5.68D-05 at cycle   6 NSaved=   6.
 NSaved= 6 IEnMin= 6 EnMin= -191.865061456726     IErMin= 6 ErrMin= 5.68D-05
 ErrMax= 5.68D-05  0.00D+00 EMaxC= 1.00D-01 BMatC= 1.86D-07 BMatP= 8.68D-06
 IDIUse=1 WtCom= 1.00D+00 WtEn= 0.00D+00
 Coeff-Com:  0.138D-02-0.274D-01 0.208D-01-0.462D-01 0.468D+00 0.584D+00
 Coeff:      0.138D-02-0.274D-01 0.208D-01-0.462D-01 0.468D+00 0.584D+00
 Gap=     0.185 Goal=   None    Shift=    0.000
 RMSDP=1.33D-05 MaxDP=1.41D-04 DE=-7.92D-06 OVMax= 3.62D-04

 Cycle   7  Pass 1  IDiag  1:
 E= -191.865061687844     Delta-E=       -0.000000231118 Rises=F Damp=F
 DIIS: error= 1.94D-05 at cycle   7 NSaved=   7.
 NSaved= 7 IEnMin= 7 EnMin= -191.865061687844     IErMin= 7 ErrMin= 1.94D-05
 ErrMax= 1.94D-05  0.00D+00 EMaxC= 1.00D-01 BMatC= 2.53D-08 BMatP= 1.86D-07
 IDIUse=1 WtCom= 1.00D+00 WtEn= 0.00D+00
 Coeff-Com:  0.914D-03-0.134D-01-0.104D-01-0.285D-01 0.186D+00 0.341D+00
 Coeff-Com:  0.525D+00
 Coeff:      0.914D-03-0.134D-01-0.104D-01-0.285D-01 0.186D+00 0.341D+00
 Coeff:      0.525D+00
 Gap=     0.185 Goal=   None    Shift=    0.000
 RMSDP=5.37D-06 MaxDP=6.39D-05 DE=-2.31D-07 OVMax= 1.06D-04

 Cycle   8  Pass 1  IDiag  1:
 E= -191.865061720331     Delta-E=       -0.000000032487 Rises=F Damp=F
 DIIS: error= 4.24D-06 at cycle   8 NSaved=   8.
 NSaved= 8 IEnMin= 8 EnMin= -191.865061720331     IErMin= 8 ErrMin= 4.24D-06
 ErrMax= 4.24D-06  0.00D+00 EMaxC= 1.00D-01 BMatC= 1.45D-09 BMatP= 2.53D-08
 IDIUse=1 WtCom= 1.00D+00 WtEn= 0.00D+00
 Coeff-Com:  0.881D-04-0.488D-04-0.753D-02-0.250D-02-0.136D-01 0.168D-01
 Coeff-Com:  0.205D+00 0.802D+00
 Coeff:      0.881D-04-0.488D-04-0.753D-02-0.250D-02-0.136D-01 0.168D-01
 Coeff:      0.205D+00 0.802D+00
 Gap=     0.185 Goal=   None    Shift=    0.000
 RMSDP=2.00D-06 MaxDP=2.16D-05 DE=-3.25D-08 OVMax= 4.68D-05

 Cycle   9  Pass 1  IDiag  1:
 E= -191.865061722832     Delta-E=       -0.000000002501 Rises=F Damp=F
 DIIS: error= 1.27D-06 at cycle   9 NSaved=   9.
 NSaved= 9 IEnMin= 9 EnMin= -191.865061722832     IErMin= 9 ErrMin= 1.27D-06
 ErrMax= 1.27D-06  0.00D+00 EMaxC= 1.00D-01 BMatC= 1.16D-10 BMatP= 1.45D-09
 IDIUse=1 WtCom= 1.00D+00 WtEn= 0.00D+00
 Coeff-Com: -0.144D-04 0.751D-03-0.257D-02 0.529D-03-0.163D-01-0.118D-01
 Coeff-Com:  0.550D-01 0.345D+00 0.630D+00
 Coeff:     -0.144D-04 0.751D-03-0.257D-02 0.529D-03-0.163D-01-0.118D-01
 Coeff:      0.550D-01 0.345D+00 0.630D+00
 Gap=     0.185 Goal=   None    Shift=    0.000
 RMSDP=3.04D-07 MaxDP=2.73D-06 DE=-2.50D-09 OVMax= 5.90D-06

 Cycle  10  Pass 1  IDiag  1:
 E= -191.865061722978     Delta-E=       -0.000000000147 Rises=F Damp=F
 DIIS: error= 3.62D-07 at cycle  10 NSaved=  10.
 NSaved=10 IEnMin=10 EnMin= -191.865061722978     IErMin=10 ErrMin= 3.62D-07
 ErrMax= 3.62D-07  0.00D+00 EMaxC= 1.00D-01 BMatC= 6.69D-12 BMatP= 1.16D-10
 IDIUse=1 WtCom= 1.00D+00 WtEn= 0.00D+00
 Coeff-Com: -0.136D-04 0.242D-03 0.431D-04 0.485D-03-0.379D-02-0.522D-02
 Coeff-Com: -0.696D-02 0.257D-01 0.211D+00 0.778D+00
 Coeff:     -0.136D-04 0.242D-03 0.431D-04 0.485D-03-0.379D-02-0.522D-02
 Coeff:     -0.696D-02 0.257D-01 0.211D+00 0.778D+00
 Gap=     0.185 Goal=   None    Shift=    0.000
 RMSDP=1.09D-07 MaxDP=1.15D-06 DE=-1.47D-10 OVMax= 1.48D-06

 Cycle  11  Pass 1  IDiag  1:
 E= -191.865061722989     Delta-E=       -0.000000000010 Rises=F Damp=F
 DIIS: error= 2.00D-08 at cycle  11 NSaved=  11.
 NSaved=11 IEnMin=11 EnMin= -191.865061722989     IErMin=11 ErrMin= 2.00D-08
 ErrMax= 2.00D-08  0.00D+00 EMaxC= 1.00D-01 BMatC= 2.19D-14 BMatP= 6.69D-12
 IDIUse=1 WtCom= 1.00D+00 WtEn= 0.00D+00
 Coeff-Com:  0.249D-06-0.171D-04 0.638D-04-0.839D-05 0.355D-03 0.241D-03
 Coeff-Com: -0.156D-02-0.735D-02-0.143D-01 0.313D-02 0.102D+01
 Coeff:      0.249D-06-0.171D-04 0.638D-04-0.839D-05 0.355D-03 0.241D-03
 Coeff:     -0.156D-02-0.735D-02-0.143D-01 0.313D-02 0.102D+01
 Gap=     0.185 Goal=   None    Shift=    0.000
 RMSDP=1.30D-08 MaxDP=1.66D-07 DE=-1.04D-11 OVMax= 1.29D-07

 Cycle  12  Pass 1  IDiag  1:
 E= -191.865061722988     Delta-E=        0.000000000001 Rises=F Damp=F
 DIIS: error= 4.24D-09 at cycle  12 NSaved=  12.
 NSaved=12 IEnMin=11 EnMin= -191.865061722989     IErMin=12 ErrMin= 4.24D-09
 ErrMax= 4.24D-09  0.00D+00 EMaxC= 1.00D-01 BMatC= 8.20D-16 BMatP= 2.19D-14
 IDIUse=1 WtCom= 1.00D+00 WtEn= 0.00D+00
 Coeff-Com:  0.167D-06-0.527D-05 0.102D-04-0.569D-05 0.988D-04 0.884D-04
 Coeff-Com: -0.200D-03-0.154D-02-0.460D-02-0.696D-02 0.173D+00 0.840D+00
 Coeff:      0.167D-06-0.527D-05 0.102D-04-0.569D-05 0.988D-04 0.884D-04
 Coeff:     -0.200D-03-0.154D-02-0.460D-02-0.696D-02 0.173D+00 0.840D+00
 Gap=     0.185 Goal=   None    Shift=    0.000
 RMSDP=1.95D-09 MaxDP=1.67D-08 DE= 1.25D-12 OVMax= 1.42D-08

 SCF Done:  E(RB3LYP) =  -191.865061723     A.U. after   12 cycles
            NFock= 12  Conv=0.19D-08     -V/T= 2.0061
 KE= 1.906963081750D+02 PE=-6.517675947639D+02 EE= 1.670195693502D+02
 Leave Link  502 at Tue May 11 16:56:45 2021, MaxMem=  2147483648 cpu:         9.0
 (Enter /opt/cluster/programs/g09_d.01/g09/l701.exe)
 Compute integral first derivatives.
 ... and contract with generalized density number  0.
 Leave Link  701 at Tue May 11 16:56:45 2021, MaxMem=  2147483648 cpu:         1.2
 (Enter /opt/cluster/programs/g09_d.01/g09/l702.exe)
 L702 exits ... SP integral derivatives will be done elsewhere.
 Leave Link  702 at Tue May 11 16:56:45 2021, MaxMem=  2147483648 cpu:         0.2
 (Enter /opt/cluster/programs/g09_d.01/g09/l703.exe)
 Compute integral first derivatives, UseDBF=F ICtDFT=           0.
 Integral derivatives from FoFJK, PRISM(SPDF).
 Calling FoFJK, ICntrl=      2127 FMM=F ISym2X=0 I1Cent= 0 IOpClX= 0 NMat=1 NMatS=1 NMatT=0.
 FoFJK:  IHMeth= 1 ICntrl=    2127 DoSepK=F KAlg= 0 I1Cent=   0 FoldK=F
 IRaf=         0 NMat=   1 IRICut=       1 DoRegI=T DoRafI=F ISym2E= 0.
 FoFCou: FMM=F IPFlag=           0 FMFlag=      100000 FMFlg1=         800
         NFxFlg=           0 DoJE=F BraDBF=F KetDBF=F FulRan=T
         wScrn=  0.000000 ICntrl=    2127 IOpCl=  0 I1Cent=           0 NGrid=           0
         NMat0=    1 NMatS0=      1 NMatT0=    0 NMatD0=    1 NMtDS0=    0 NMtDT0=    0
 Symmetry not used in FoFCou.
 Leave Link  703 at Tue May 11 16:56:46 2021, MaxMem=  2147483648 cpu:         2.3
 (Enter /opt/cluster/programs/g09_d.01/g09/l716.exe)
 Dipole        = 1.44222388D+00 3.25697554D-01-1.14986234D-01
 ***** Axes restored to original set *****
 -------------------------------------------------------------------
 Center     Atomic                   Forces (Hartrees/Bohr)
 Number     Number              X              Y              Z
 -------------------------------------------------------------------
      1        6           0.001232470    0.005133794    0.000720471
      2        6           0.001149767   -0.018137942   -0.000923254
      3        6          -0.006916019    0.023266482   -0.000935735
      4        8           0.001877143   -0.004525812    0.000218534
      5        1           0.002848500   -0.009056296    0.000901554
      6        1           0.000277579    0.001007772   -0.000031834
      7        1          -0.000012974   -0.000148826   -0.000105722
      8        1          -0.000456465    0.002460829    0.000155986
 -------------------------------------------------------------------
 Cartesian Forces:  Max     0.023266482 RMS     0.006683320
 Leave Link  716 at Tue May 11 16:56:46 2021, MaxMem=  2147483648 cpu:         0.2
 (Enter /opt/cluster/programs/g09_d.01/g09/l103.exe)

 GradGradGradGradGradGradGradGradGradGradGradGradGradGradGradGradGradGrad
 Berny optimization.
 Using GEDIIS/GDIIS optimizer.
 FormGI is forming the generalized inverse of G from B-inverse, IUseBI=4.
 Internal  Forces:  Max     0.011274954 RMS     0.003273946
 Search for a local minimum.
 Step number   2 out of a maximum of   34 on scan point     2 out of    18
 All quantities printed in internal units (Hartrees-Bohrs-Radians)
 RMS Force = .32910D-02 SwitMx=.10000D-02 MixMth= 1
 Mixed Optimization -- RFO/linear search
 Update second derivatives using D2CorX and points    2    1
 DE=  1.75D-04 DEPred=-6.04D-03 R=-2.90D-02
 Trust test=-2.90D-02 RLast= 6.03D-01 DXMaxT set to 1.50D-01
 ITU= -1  0
 Use linear search instead of GDIIS.
 Energy rises -- skip Quadratic/GDIIS search.
 Quartic linear search produced a step of -0.51279.
 Iteration  1 RMS(Cart)=  0.05125610 RMS(Int)=  0.00765363
 Iteration  2 RMS(Cart)=  0.00659792 RMS(Int)=  0.00261819
 Iteration  3 RMS(Cart)=  0.00006702 RMS(Int)=  0.00261743
 Iteration  4 RMS(Cart)=  0.00000002 RMS(Int)=  0.00261743
 Iteration  1 RMS(Cart)=  0.00003694 RMS(Int)=  0.00002698
 Iteration  2 RMS(Cart)=  0.00001405 RMS(Int)=  0.00003000
 Iteration  3 RMS(Cart)=  0.00000534 RMS(Int)=  0.00003248
 Iteration  4 RMS(Cart)=  0.00000203 RMS(Int)=  0.00003358
 Iteration  5 RMS(Cart)=  0.00000077 RMS(Int)=  0.00003401
 ITry= 1 IFail=0 DXMaxC= 1.86D-01 DCOld= 1.00D+10 DXMaxT= 1.50D-01 DXLimC= 3.00D+00 Rises=T
 Variable       Old X    -DE/DX   Delta X   Delta X   Delta X     New X
                                 (Linear)    (Quad)   (Total)
    R1        2.54330   0.00085   0.00014   0.00000   0.00014   2.54343
    R2        2.05041   0.00017   0.00016   0.00000   0.00016   2.05057
    R3        2.05702  -0.00009  -0.00006   0.00000  -0.00006   2.05696
    R4        2.77665   0.00063  -0.00148   0.00000  -0.00148   2.77517
    R5        2.05483   0.00012  -0.00014   0.00000  -0.00014   2.05469
    R6        2.35319  -0.00105   0.00051   0.00000   0.00051   2.35370
    R7        2.08963  -0.00038  -0.00045   0.00000  -0.00045   2.08918
    A1        2.13108   0.00007   0.00088   0.00000   0.00088   2.13196
    A2        2.11932   0.00001  -0.00082   0.00000  -0.00082   2.11849
    A3        2.03279  -0.00008  -0.00006   0.00000  -0.00006   2.03273
    A4        2.11181   0.00170   0.00233   0.00000   0.00254   2.11436
    A5        2.11961   0.00034   0.00040   0.00000   0.00062   2.12024
    A6        2.03226  -0.00113   0.00310   0.00000   0.00330   2.03556
    A7        2.15492   0.00070  -0.00166   0.00000   0.00573   2.16065
[...]
    D4        3.11291   0.00094   0.00049  -0.00014   0.00035   3.11326
    D5        2.79255   0.00466   0.00000   0.00000   0.00000   2.79255
    D6       -0.29073   0.00090  -0.00070   0.00052  -0.00018  -0.29091
    D7       -0.24552   0.00285  -0.00079  -0.00050  -0.00130  -0.24682
    D8        2.95439  -0.00092  -0.00149   0.00002  -0.00148   2.95291
         Item               Value     Threshold  Converged?
 Maximum Force            0.000142     0.000450     YES
 RMS     Force            0.000053     0.000300     YES
 Maximum Displacement     0.001510     0.001800     YES
 RMS     Displacement     0.000489     0.001200     YES
 Predicted change in Energy=-1.980067D-07
 Optimization completed.
    -- Stationary point found.
                           ----------------------------
                           !   Optimized Parameters   !
                           ! (Angstroms and Degrees)  !
 --------------------------                            --------------------------
 ! Name  Definition              Value          Derivative Info.                !
 --------------------------------------------------------------------------------
 ! R1    R(1,2)                  1.3456         -DE/DX =   -0.0001              !
 ! R2    R(1,6)                  1.0851         -DE/DX =    0.0                 !
 ! R3    R(1,7)                  1.0884         -DE/DX =    0.0                 !
 ! R4    R(2,3)                  1.4697         -DE/DX =   -0.0001              !
 ! R5    R(2,8)                  1.0873         -DE/DX =    0.0                 !
 ! R6    R(3,4)                  1.2436         -DE/DX =    0.0                 !
 ! R7    R(3,5)                  1.1052         -DE/DX =    0.0                 !
 ! A1    A(2,1,6)              122.1082         -DE/DX =    0.0                 !
 ! A2    A(2,1,7)              121.3852         -DE/DX =    0.0001              !
 ! A3    A(6,1,7)              116.5065         -DE/DX =   -0.0001              !
 ! A4    A(1,2,3)              121.2925         -DE/DX =    0.0                 !
 ! A5    A(1,2,8)              121.9142         -DE/DX =    0.0002              !
 ! A6    A(3,2,8)              116.5166         -DE/DX =    0.0                 !
 ! A7    A(2,3,4)              123.8046         -DE/DX =    0.0                 !
 ! A8    A(2,3,5)              116.0217         -DE/DX =    0.0002              !
 ! A9    A(4,3,5)              120.0895         -DE/DX =    0.0                 !
 ! D1    D(6,1,2,3)           -175.2511         -DE/DX =   -0.001               !
 ! D2    D(6,1,2,8)             -1.5052         -DE/DX =    0.0009              !
 ! D3    D(7,1,2,3)              4.6108         -DE/DX =   -0.001               !
 ! D4    D(7,1,2,8)            178.3568         -DE/DX =    0.0009              !
 ! D5    D(1,2,3,4)            160.0011         -DE/DX =    0.0047              !
 ! D6    D(1,2,3,5)            -16.6578         -DE/DX =    0.0009              !
 ! D7    D(8,2,3,4)            -14.0673         -DE/DX =    0.0028              !
 ! D8    D(8,2,3,5)            169.2738         -DE/DX =   -0.0009              !
 --------------------------------------------------------------------------------
 Lowest energy point so far.  Saving SCF results.
 GradGradGradGradGradGradGradGradGradGradGradGradGradGradGradGradGradGrad

 Summary of Optimized Potential Surface Scan
                           1         2         3         4         5
     Eigenvalues --  -191.86875-191.86742-191.86368-191.85843-191.85429
           R1           1.34546   1.34551   1.34483   1.34292   1.34005
           R2           1.08506   1.08514   1.08529   1.08550   1.08564
           R3           1.08847   1.08842   1.08833   1.08806   1.08737
           R4           1.46794   1.46943   1.47504   1.48431   1.49280
           R5           1.08725   1.08734   1.08777   1.08867   1.09027
           R6           1.24399   1.24378   1.24287   1.24147   1.23964
           R7           1.10539   1.10515   1.10491   1.10443   1.10478
           A1         122.19677 122.10963 121.92597 121.64217 121.39883
           A2         121.33226 121.41378 121.60338 121.93240 122.13545
           A3         116.47097 116.47640 116.47039 116.42531 116.46474
           A4         121.37619 121.29654 121.15232 121.74165 123.45759
           A5         122.10419 121.89484 121.42829 120.88241 120.69787
           A6         116.51963 116.53840 116.54758 116.28746 115.65672
           A7         123.94259 123.78430 123.38582 122.86125 123.32841
           A8         115.95394 116.09021 116.42482 117.12180 117.17128
           A9         120.10347 120.04222 119.93772 119.76342 119.48698
           D1         180.00034 175.28170 171.76414 171.18862 176.31710
           D2           0.00020   1.46050   2.82269   3.56158   1.51722
           D3           0.00024  -4.55692  -8.03963  -8.67562  -3.30859
           D4        -179.99991-178.37812-176.98108-176.30266-178.10847
           D5        -179.99899-159.99910-139.99907-119.99904 -99.99893
           D6          -0.00206  16.67482  34.22132  54.19407  78.66380
           D7           0.00114  14.13829  29.45854  48.16523  75.04117
           D8        -180.00192-169.18780-156.32106-137.64166-106.29610
                           6         7         8         9        10
     Eigenvalues --  -191.85477-191.85845-191.86233-191.86484-191.86564
           R1           1.34017   1.34258   1.34454   1.34546   1.34573
           R2           1.08568   1.08570   1.08560   1.08545   1.08536
           R3           1.08690   1.08674   1.08675   1.08677   1.08680
           R4           1.48977   1.48172   1.47732   1.47648   1.47668
           R5           1.09141   1.09063   1.08928   1.08824   1.08787
           R6           1.23974   1.24173   1.24378   1.24494   1.24525
           R7           1.10569   1.10525   1.10396   1.10298   1.10262
           A1         121.52073 121.65959 121.80372 121.85025 121.84081
           A2         121.83845 121.42296 120.99379 120.72287 120.63655
           A3         116.63639 116.91532 117.20212 117.42687 117.52264
           A4         124.13964 123.44009 122.71532 122.59806 122.66816
           A5         120.70725 120.65347 120.88946 121.08717 121.14040
           A6         114.89098 115.27264 115.95385 116.18781 116.19144
           A7         124.75750 125.02939 124.72785 124.65753 124.69728
           A8         115.80230 115.41890 115.70344 115.86059 115.86846
           A9         119.35552 119.44907 119.52079 119.47121 119.43426
           D1        -176.79439-174.90539-175.95227-177.93499 179.99402
           D2          -2.98194  -4.46894  -3.88740  -2.18848  -0.00050
           D3           3.99637   5.64086   4.27552   2.10319  -0.00496
           D4         177.80882 176.07732 176.34039 177.84969-179.99948
           D5         -79.99911 -59.99887 -39.99898 -19.99897   0.00101
           D6         103.38222 123.72213 142.54106 161.19978-179.99328
           D7         105.86448 129.09507 147.57225 164.05999 179.99578
           D8         -70.75418 -47.18392 -29.88771 -14.74125   0.00149
                          11        12        13        14        15
     Eigenvalues --  -191.86484-191.86233-191.85845-191.85477-191.85429
           R1           1.34557   1.34461   1.34255   1.34005   1.34009
           R2           1.08539   1.08557   1.08569   1.08569   1.08563
           R3           1.08673   1.08684   1.08675   1.08690   1.08736
           R4           1.47620   1.47697   1.48175   1.48922   1.49280
           R5           1.08834   1.08937   1.09063   1.09148   1.09028
           R6           1.24515   1.24376   1.24178   1.23973   1.23963
           R7           1.10298   1.10404   1.10522   1.10568   1.10478
           A1         121.79376 121.84174 121.66398 121.48808 121.39490
           A2         120.71105 120.98619 121.41791 121.87563 122.12977
           A3         117.49518 117.17175 116.91602 116.63226 116.47435
           A4         122.66350 122.75195 123.40993 124.21632 123.46758
           A5         121.05699 120.86100 120.65009 120.63103 120.70292
           A6         116.15148 115.95591 115.30117 114.88488 115.63959
           A7         124.67618 124.77245 125.03688 124.77340 123.31688
           A8         115.88356 115.64474 115.42421 115.77742 117.17330
           A9         119.43099 119.53436 119.43812 119.36460 119.49619
           D1         177.90824 176.00285 174.88063 176.70411-176.28620
           D2           2.18129   3.84595   4.47893   2.95848  -1.51596
           D3          -2.12506  -4.21201  -5.66105  -4.05084   3.34114
           D4        -177.85201-176.36891-176.06275-177.79647 178.11138
           D5          20.00106  40.00088  60.00092  80.00094 100.00098
           D6        -161.11769-142.55308-123.68687-103.37802 -78.64642
           D7        -164.07658-147.48496-129.12853-105.93035 -75.01183
           D8          14.80466  29.96108  47.18368  70.69069 106.34078
                          16        17        18
     Eigenvalues --  -191.85843-191.86368-191.86742
           R1           1.34293   1.34478   1.34560
           R2           1.08547   1.08528   1.08511
           R3           1.08808   1.08835   1.08840
           R4           1.48418   1.47495   1.46971
           R5           1.08873   1.08784   1.08735
           R6           1.24143   1.24284   1.24361
           R7           1.10456   1.10491   1.10517
           A1         121.63928 121.91817 122.10816
           A2         121.93515 121.61656 121.38518
           A3         116.42545 116.46502 116.50653
           A4         121.76115 121.18138 121.29252
           A5         120.86202 121.43122 121.91417
           A6         116.30032 116.51539 116.51656
           A7         122.91428 123.35566 123.80465
           A8         117.08875 116.42973 116.02173
           A9         119.74459 119.96256 120.08954
           D1        -171.25681-171.78530-175.25114
           D2          -3.56090  -2.84855  -1.50522
           D3           8.61296   8.02467   4.61083
           D4         176.30886 176.96142 178.35675
           D5         120.00109 140.00109 160.00108
           D6         -54.20389 -34.21616 -16.65780
           D7         -48.22510 -29.45537 -14.06728
           D8         137.56992 156.32737 169.27383
 Largest change from initial coordinates is atom    5       0.147 Angstoms.
 Leave Link  103 at Tue May 11 17:02:53 2021, MaxMem=  2147483648 cpu:         0.4
 (Enter /opt/cluster/programs/g09_d.01/g09/l202.exe)
                          Input orientation:                          
 ---------------------------------------------------------------------
 Center     Atomic      Atomic             Coordinates (Angstroms)
 Number     Number       Type             X           Y           Z
 ---------------------------------------------------------------------
      1          6           0        3.155767   -0.451275   -1.281541
      2          6           0        2.379405    0.454703   -0.659357
      3          6           0        1.205035    0.044590    0.123408
      4          8           0        0.669831    0.755603    0.992071
      5          1           0        0.835465   -0.981030   -0.058048
      6          1           0        4.067239   -0.171161   -1.799444
      7          1           0        2.898965   -1.508922   -1.287788
      8          1           0        2.641292    1.509492   -0.625302
 ---------------------------------------------------------------------
                    Distance matrix (angstroms):
                    1          2          3          4          5
     1  C    0.000000
     2  C    1.345603   0.000000
     3  C    2.454612   1.469714   0.000000
     4  O    3.578512   2.395913   1.243607   0.000000
     5  H    2.676075   2.192407   1.105171   2.036192   0.000000
     6  H    1.085113   2.130796   3.454870   4.493755   3.759350
     7  H    1.088395   2.126192   2.697086   3.910866   2.459464
     8  H    2.130714   1.087348   2.183882   2.659117   3.128176
                    6          7          8
     6  H    0.000000
     7  H    1.848313   0.000000
     8  H    2.497305   3.100985   0.000000
 Stoichiometry    C3H4O
 Framework group  C1[X(C3H4O)]
 Deg. of freedom    18
 Full point group                 C1      NOp   1
 RotChk:  IX=0 Diff= 2.60D-15
 Largest Abelian subgroup         C1      NOp   1
 Largest concise Abelian subgroup C1      NOp   1
                         Standard orientation:                         
 ---------------------------------------------------------------------
 Center     Atomic      Atomic             Coordinates (Angstroms)
 Number     Number       Type             X           Y           Z
 ---------------------------------------------------------------------
      1          6           0        1.767206    0.138911   -0.071259
      2          6           0        0.564894   -0.440494    0.100154
      3          6           0       -0.672180    0.353045    0.098052
      4          8           0       -1.801293   -0.126245   -0.106751
      5          1           0       -0.549492    1.442667    0.236163
      6          1           0        2.681248   -0.440901   -0.147507
      7          1           0        1.870368    1.220037   -0.142880
      8          1           0        0.448699   -1.520620    0.146546
 ---------------------------------------------------------------------
 Rotational constants (GHZ):     45.8624342      4.5878037      4.2119283
 Leave Link  202 at Tue May 11 17:02:53 2021, MaxMem=  2147483648 cpu:         0.2
 (Enter /opt/cluster/programs/g09_d.01/g09/l601.exe)
 Copying SCF densities to generalized density rwf, IOpCl= 0 IROHF=0.

 **********************************************************************

            Population analysis using the SCF density.

 **********************************************************************

 Orbital symmetries:
       Occupied  (A) (A) (A) (A) (A) (A) (A) (A) (A) (A) (A) (A)
                 (A) (A) (A)
       Virtual   (A) (A) (A) (A) (A) (A) (A) (A) (A) (A) (A) (A)
                 (A) (A) (A) (A) (A) (A) (A) (A) (A) (A) (A) (A)
                 (A) (A) (A) (A) (A) (A) (A) (A) (A) (A) (A) (A)
                 (A) (A) (A) (A) (A) (A) (A) (A) (A)
 The electronic state is 1-A.
 Alpha  occ. eigenvalues --  -19.16820 -10.29551 -10.23155 -10.22522  -1.06761
 Alpha  occ. eigenvalues --   -0.82221  -0.66828  -0.59148  -0.49782  -0.49042
 Alpha  occ. eigenvalues --   -0.43183  -0.41232  -0.40509  -0.30651  -0.27343
 Alpha virt. eigenvalues --   -0.08796   0.00438   0.01119   0.02090   0.03242
 Alpha virt. eigenvalues --    0.05677   0.06417   0.06602   0.09125   0.09343
 Alpha virt. eigenvalues --    0.11465   0.12239   0.13585   0.16210   0.19076
 Alpha virt. eigenvalues --    0.21325   0.22014   0.23995   0.25699   0.28286
 Alpha virt. eigenvalues --    0.28733   0.30599   0.35479   0.38637   0.41040
 Alpha virt. eigenvalues --    0.62379   0.63141   0.66795   0.69153   0.71327
 Alpha virt. eigenvalues --    0.76626   0.78381   0.88089   0.92180   0.98630
 Alpha virt. eigenvalues --    0.99870   1.02923   1.11849   1.13569   1.20621
 Alpha virt. eigenvalues --    1.23354   1.27980   1.30566   1.34490   1.81800
          Condensed to atoms (all electrons):
               1          2          3          4          5          6
     1  C    5.652053  -0.342808   0.254537   0.045819   0.110683   0.357160
     2  C   -0.342808   6.485280  -0.053405  -0.201388  -0.277463  -0.011251
     3  C    0.254537  -0.053405   5.074182   0.296864   0.421021   0.003151
     4  O    0.045819  -0.201388   0.296864   8.358600  -0.064740  -0.000601
     5  H    0.110683  -0.277463   0.421021  -0.064740   0.643902   0.000067
     6  H    0.357160  -0.011251   0.003151  -0.000601   0.000067   0.493079
     7  H    0.395424  -0.068372   0.006040   0.000792   0.002262  -0.028773
     8  H   -0.024726   0.351591  -0.015303  -0.005356   0.002402  -0.003688
               7          8
     1  C    0.395424  -0.024726
     2  C   -0.068372   0.351591
     3  C    0.006040  -0.015303
     4  O    0.000792  -0.005356
     5  H    0.002262   0.002402
     6  H   -0.028773  -0.003688
     7  H    0.502255   0.003253
     8  H    0.003253   0.484267
 Mulliken charges:
               1
     1  C   -0.448142
     2  C    0.117817
     3  C    0.012914
     4  O   -0.429990
     5  H    0.161867
     6  H    0.190855
     7  H    0.187118
     8  H    0.207560
 Sum of Mulliken charges =   0.00000
 Mulliken charges with hydrogens summed into heavy atoms:
               1
     1  C   -0.070168
     2  C    0.325377
     3  C    0.174781
     4  O   -0.429990
 Electronic spatial extent (au):  <R**2>=            303.2618
 Charge=              0.0000 electrons
 Dipole moment (field-independent basis, Debye):
    X=              3.6697    Y=              0.8046    Z=              0.3107  Tot=              3.7697
 Quadrupole moment (field-independent basis, Debye-Ang):
   XX=            -28.3958   YY=            -22.0785   ZZ=            -25.5108
   XY=             -1.1834   XZ=             -1.1107   YZ=             -0.1685
 Traceless Quadrupole moment (field-independent basis, Debye-Ang):
   XX=             -3.0674   YY=              3.2498   ZZ=             -0.1824
   XY=             -1.1834   XZ=             -1.1107   YZ=             -0.1685
 Octapole moment (field-independent basis, Debye-Ang**2):
  XXX=             17.4643  YYY=             -0.0687  ZZZ=             -0.4473  XYY=              0.1314
  XXY=              1.0529  XXZ=             -0.0323  XZZ=             -4.2657  YZZ=              0.1524
  YYZ=              0.1932  XYZ=             -0.0783
 Hexadecapole moment (field-independent basis, Debye-Ang**3):
 XXXX=           -316.9378 YYYY=            -57.4739 ZZZZ=            -30.2590 XXXY=             -3.7782
 XXXZ=             -4.4397 YYYX=             -0.2507 YYYZ=             -0.4357 ZZZX=              0.2074
 ZZZY=             -0.0178 XXYY=            -59.7717 XXZZ=            -59.2661 YYZZ=            -16.0616
 XXYZ=             -0.1885 YYXZ=             -0.4436 ZZXY=              0.2390
 N-N= 1.021890917586D+02 E-N=-6.517674288768D+02  KE= 1.906968119337D+02
 No NMR shielding tensors so no spin-rotation constants.
 Leave Link  601 at Tue May 11 17:02:53 2021, MaxMem=  2147483648 cpu:         0.6
 (Enter /opt/cluster/programs/g09_d.01/g09/l9999.exe)
 1\1\GINC-NODE18\Scan\RB3LYP\6-31+G\C3H4O1\BOITTIER\11-May-2021\0\\#p B
 3LYP/6-31+G Opt=ModRedun\\L.pdb\\0,1\C,3.1557672615,-0.4512747953,-1.2
 8154076\C,2.3794051313,0.4547028345,-0.6593571305\C,1.205034899,0.0445
 896695,0.1234083062\O,0.669830881,0.755603274,0.9920713223\H,0.8354653
 673,-0.9810295585,-0.0580480377\H,4.0672394747,-0.1711613799,-1.799444
 2932\H,2.8989649258,-1.5089221775,-1.2877877652\H,2.6412920593,1.50949
 21333,-0.6253016418\\Version=ES64L-G09RevD.01\State=1-A\HF=-191.868754
 9,-191.8674218,-191.863675,-191.8584325,-191.8542861,-191.85477,-191.8
 584525,-191.8623299,-191.8648367,-191.8656409,-191.864836,-191.8623292
 ,-191.8584521,-191.85477,-191.8542863,-191.8584332,-191.8636755,-191.8
 674218\RMSD=4.885e-09,3.569e-09,4.040e-09,3.501e-09,6.234e-09,5.190e-0
 9,1.836e-09,5.760e-09,6.713e-09,3.458e-09,1.814e-09,2.030e-09,4.959e-0
 9,4.071e-09,3.158e-09,6.063e-09,1.736e-09,4.591e-09\PG=C01 [X(C3H4O1)]
 \\@


 THE CHYMISTS ARE A STRANGE CLASS OF MORTALS IMPELLED
 BY AN ALMOST INSANE IMPULSE TO SEEK THEIR PLEASURE
 AMONG SMOKE AND VAPOR, SOOT AND FLAME, POISONS AND
 POVERTY; YET AMONG ALL THESE EVILS I SEEM TO LIVE
 SO SWEETLY, THAT I MAY DIE IF I WOULD CHANGE PLACES
 WITH THE PERSIAN KING.
   --  JOHANN JOACHIM BECHER, 1635-1682
 ACTA LABORATORII CHYMICA MONACENSIS, 1669
 Job cpu time:       0 days  0 hours 35 minutes  6.4 seconds.
 File lengths (MBytes):  RWF=      5 Int=      0 D2E=      0 Chk=      3 Scr=      1
 Normal termination of Gaussian 09 at Tue May 11 17:02:53 2021.
