 Entering Gaussian System, Link 0=/opt/cluster/programs/g09_d.01/g09//g09
 Input=/home/unibas/boittier/RDKit_G2/O.pdb/SCAN_1_2_6_8_S_17_20.0/SCAN_O.pdb.com
 Output=/scratch/boittier/SCAN_O.pdb/SCAN_O.pdb.out
 Initial command:
 /opt/cluster/programs/g09_d.01/g09/l1.exe "/scratch/boittier/SCAN_O.pdb/Gau-163922.inp" -scrdir="/scratch/boittier/SCAN_O.pdb/"
 Entering Link 1 = /opt/cluster/programs/g09_d.01/g09/l1.exe PID=    163923.
  
 Copyright (c) 1988,1990,1992,1993,1995,1998,2003,2009,2013,
            Gaussian, Inc.  All Rights Reserved.
  
 This is part of the Gaussian(R) 09 program.  It is based on
 the Gaussian(R) 03 system (copyright 2003, Gaussian, Inc.),
 the Gaussian(R) 98 system (copyright 1998, Gaussian, Inc.),
 the Gaussian(R) 94 system (copyright 1995, Gaussian, Inc.),
 the Gaussian 92(TM) system (copyright 1992, Gaussian, Inc.),
 the Gaussian 90(TM) system (copyright 1990, Gaussian, Inc.),
 the Gaussian 88(TM) system (copyright 1988, Gaussian, Inc.),
 the Gaussian 86(TM) system (copyright 1986, Carnegie Mellon
 University), and the Gaussian 82(TM) system (copyright 1983,
 Carnegie Mellon University). Gaussian is a federally registered
 trademark of Gaussian, Inc.
  
 This software contains proprietary and confidential information,
 including trade secrets, belonging to Gaussian, Inc.
  
 This software is provided under written license and may be
 used, copied, transmitted, or stored only in accord with that
 written license.
  
 The following legend is applicable only to US Government
 contracts under FAR:
  
                    RESTRICTED RIGHTS LEGEND
  
 Use, reproduction and disclosure by the US Government is
 subject to restrictions as set forth in subparagraphs (a)
 and (c) of the Commercial Computer Software - Restricted
 Rights clause in FAR 52.227-19.
  
 Gaussian, Inc.
 340 Quinnipiac St., Bldg. 40, Wallingford CT 06492
  
  
 ---------------------------------------------------------------
 Warning -- This program may not be used in any manner that
 competes with the business of Gaussian, Inc. or will provide
 assistance to any competitor of Gaussian, Inc.  The licensee
 of this program is prohibited from giving any competitor of
 Gaussian, Inc. access to this program.  By using this program,
 the user acknowledges that Gaussian, Inc. is engaged in the
 business of creating and licensing software in the field of
 computational chemistry and represents and warrants to the
 licensee that it is not a competitor of Gaussian, Inc. and that
 it will not use this program in any manner prohibited above.
 ---------------------------------------------------------------
  

 Cite this work as:
 Gaussian 09, Revision D.01,
 M. J. Frisch, G. W. Trucks, H. B. Schlegel, G. E. Scuseria, 
 M. A. Robb, J. R. Cheeseman, G. Scalmani, V. Barone, B. Mennucci, 
 G. A. Petersson, H. Nakatsuji, M. Caricato, X. Li, H. P. Hratchian, 
 A. F. Izmaylov, J. Bloino, G. Zheng, J. L. Sonnenberg, M. Hada, 
 M. Ehara, K. Toyota, R. Fukuda, J. Hasegawa, M. Ishida, T. Nakajima, 
 Y. Honda, O. Kitao, H. Nakai, T. Vreven, J. A. Montgomery, Jr., 
 J. E. Peralta, F. Ogliaro, M. Bearpark, J. J. Heyd, E. Brothers, 
 K. N. Kudin, V. N. Staroverov, T. Keith, R. Kobayashi, J. Normand, 
 K. Raghavachari, A. Rendell, J. C. Burant, S. S. Iyengar, J. Tomasi, 
 M. Cossi, N. Rega, J. M. Millam, M. Klene, J. E. Knox, J. B. Cross, 
 V. Bakken, C. Adamo, J. Jaramillo, R. Gomperts, R. E. Stratmann, 
 O. Yazyev, A. J. Austin, R. Cammi, C. Pomelli, J. W. Ochterski, 
 R. L. Martin, K. Morokuma, V. G. Zakrzewski, G. A. Voth, 
 P. Salvador, J. J. Dannenberg, S. Dapprich, A. D. Daniels, 
 O. Farkas, J. B. Foresman, J. V. Ortiz, J. Cioslowski, 
 and D. J. Fox, Gaussian, Inc., Wallingford CT, 2013.
 
 ******************************************
 Gaussian 09:  ES64L-G09RevD.01 24-Apr-2013
                26-May-2021 
 ******************************************
 %chk=/home/unibas/boittier/RDKit_G2/O.pdb/SCAN_1_2_6_8_S_17_20.0/O.pdb.chk
 %nproc=8
 Will use up to    8 processors via shared memory.
 %mem=16GB
 -----------------------------
 #p wB97XD/6-31+G Opt=ModRedun
 -----------------------------
 1/14=-1,18=120,19=15,26=3,38=1/1,3;
 2/9=110,12=2,17=6,18=5,40=1/2;
 3/5=1,6=6,7=10,11=2,16=1,25=1,30=1,71=1,74=-58/1,2,3;
 4//1;
 5/5=2,38=5/2;
 6/7=2,8=2,9=2,10=2,28=1/1;
 7//1,2,3,16;
 1/14=-1,18=20,19=15,26=3/3(2);
 2/9=110/2;
 99//99;
 2/9=110/2;
 3/5=1,6=6,7=10,11=2,16=1,25=1,30=1,71=1,74=-58/1,2,3;
 4/5=5,16=3,69=1/1;
 5/5=2,38=5/2;
 7//1,2,3,16;
 1/14=-1,18=20,19=15,26=3/3(-5);
 2/9=110/2;
 6/7=2,8=2,9=2,10=2,19=2,28=1/1;
 99/9=1/99;
 Leave Link    1 at Wed May 26 08:27:03 2021, MaxMem=  2147483648 cpu:         0.2
 (Enter /opt/cluster/programs/g09_d.01/g09/l101.exe)
 -----
 O.pdb
 -----
 Symbolic Z-matrix:
 Charge =  0 Multiplicity = 1
 C                    -3.0611    1.82734   1.40207 
 C                    -2.65731   0.82354   0.3675 
 H                    -3.36008   1.31287   2.32026 
 H                    -3.8963    2.41784   1.02657 
 H                    -2.21873   2.47903   1.64696 
 O                    -1.53414   0.14012   0.74041 
 O                    -3.24055   0.60458  -0.69499 
 C                    -1.0372   -0.88421  -0.17639 
 H                    -1.79148  -1.66144  -0.31167 
 H                    -0.14772  -1.28034   0.30712 
 H                    -0.79539  -0.43634  -1.14185 
 
 The following ModRedundant input section has been read:
 D       1       2       6       8 S  17 20.000                                
 
 NAtoms=     11 NQM=       11 NQMF=       0 NMMI=      0 NMMIF=      0
                NMic=       0 NMicF=      0.
                    Isotopes and Nuclear Properties:
 (Nuclear quadrupole moments (NQMom) in fm**2, nuclear magnetic moments (NMagM)
  in nuclear magnetons)

  Atom         1           2           3           4           5           6           7           8           9          10
 IAtWgt=          12          12           1           1           1          16          16          12           1           1
 AtmWgt=  12.0000000  12.0000000   1.0078250   1.0078250   1.0078250  15.9949146  15.9949146  12.0000000   1.0078250   1.0078250
 NucSpn=           0           0           1           1           1           0           0           0           1           1
 AtZEff=   0.0000000   0.0000000   0.0000000   0.0000000   0.0000000   0.0000000   0.0000000   0.0000000   0.0000000   0.0000000
 NQMom=    0.0000000   0.0000000   0.0000000   0.0000000   0.0000000   0.0000000   0.0000000   0.0000000   0.0000000   0.0000000
 NMagM=    0.0000000   0.0000000   2.7928460   2.7928460   2.7928460   0.0000000   0.0000000   0.0000000   2.7928460   2.7928460
 AtZNuc=   6.0000000   6.0000000   1.0000000   1.0000000   1.0000000   8.0000000   8.0000000   6.0000000   1.0000000   1.0000000

  Atom        11
 IAtWgt=           1
 AtmWgt=   1.0078250
 NucSpn=           1
 AtZEff=   0.0000000
 NQMom=    0.0000000
 NMagM=    2.7928460
 AtZNuc=   1.0000000
 Leave Link  101 at Wed May 26 08:27:03 2021, MaxMem=  2147483648 cpu:         4.1
 (Enter /opt/cluster/programs/g09_d.01/g09/l103.exe)

 GradGradGradGradGradGradGradGradGradGradGradGradGradGradGradGradGradGrad
 Berny optimization.
 Initialization pass.
                           ----------------------------
                           !    Initial Parameters    !
                           ! (Angstroms and Degrees)  !
 --------------------------                            --------------------------
 ! Name  Definition              Value          Derivative Info.                !
 --------------------------------------------------------------------------------
 ! R1    R(1,2)                  1.497          estimate D2E/DX2                !
 ! R2    R(1,3)                  1.0941         estimate D2E/DX2                !
 ! R3    R(1,4)                  1.0896         estimate D2E/DX2                !
 ! R4    R(1,5)                  1.0928         estimate D2E/DX2                !
 ! R5    R(2,6)                  1.3666         estimate D2E/DX2                !
 ! R6    R(2,7)                  1.2317         estimate D2E/DX2                !
 ! R7    R(6,8)                  1.4618         estimate D2E/DX2                !
 ! R8    R(8,9)                  1.0915         estimate D2E/DX2                !
 ! R9    R(8,10)                 1.0871         estimate D2E/DX2                !
 ! R10   R(8,11)                 1.0914         estimate D2E/DX2                !
 ! A1    A(2,1,3)              109.7774         estimate D2E/DX2                !
 ! A2    A(2,1,4)              109.3893         estimate D2E/DX2                !
 ! A3    A(2,1,5)              110.2931         estimate D2E/DX2                !
 ! A4    A(3,1,4)              109.5466         estimate D2E/DX2                !
 ! A5    A(3,1,5)              107.6365         estimate D2E/DX2                !
 ! A6    A(4,1,5)              110.1753         estimate D2E/DX2                !
 ! A7    A(1,2,6)              111.6188         estimate D2E/DX2                !
 ! A8    A(1,2,7)              125.9901         estimate D2E/DX2                !
 ! A9    A(6,2,7)              122.3899         estimate D2E/DX2                !
 ! A10   A(2,6,8)              117.3026         estimate D2E/DX2                !
 ! A11   A(6,8,9)              109.9871         estimate D2E/DX2                !
 ! A12   A(6,8,10)             104.7466         estimate D2E/DX2                !
 ! A13   A(6,8,11)             110.034          estimate D2E/DX2                !
 ! A14   A(9,8,10)             111.1657         estimate D2E/DX2                !
 ! A15   A(9,8,11)             109.6141         estimate D2E/DX2                !
 ! A16   A(10,8,11)            111.2029         estimate D2E/DX2                !
 ! D1    D(3,1,2,6)            -65.3964         estimate D2E/DX2                !
 ! D2    D(3,1,2,7)            114.1986         estimate D2E/DX2                !
 ! D3    D(4,1,2,6)            174.3736         estimate D2E/DX2                !
 ! D4    D(4,1,2,7)             -6.0315         estimate D2E/DX2                !
 ! D5    D(5,1,2,6)             53.0435         estimate D2E/DX2                !
 ! D6    D(5,1,2,7)           -127.3615         estimate D2E/DX2                !
 ! D7    D(1,2,6,8)            179.3854         Scan                            !
 ! D8    D(7,2,6,8)             -0.2265         estimate D2E/DX2                !
 ! D9    D(2,6,8,9)            -61.1876         estimate D2E/DX2                !
 ! D10   D(2,6,8,10)           179.2725         estimate D2E/DX2                !
 ! D11   D(2,6,8,11)            59.6649         estimate D2E/DX2                !
 --------------------------------------------------------------------------------
 Trust Radius=3.00D-01 FncErr=1.00D-07 GrdErr=1.00D-06
 Number of optimizations in scan=  18
 Number of steps in this run=     47 maximum allowed number of steps=    100.
 GradGradGradGradGradGradGradGradGradGradGradGradGradGradGradGradGradGrad

 Leave Link  103 at Wed May 26 08:27:03 2021, MaxMem=  2147483648 cpu:         0.1
 (Enter /opt/cluster/programs/g09_d.01/g09/l202.exe)
                          Input orientation:                          
 ---------------------------------------------------------------------
 Center     Atomic      Atomic             Coordinates (Angstroms)
 Number     Number       Type             X           Y           Z
 ---------------------------------------------------------------------
      1          6           0       -3.061100    1.827344    1.402069
      2          6           0       -2.657311    0.823539    0.367501
      3          1           0       -3.360076    1.312866    2.320262
      4          1           0       -3.896298    2.417843    1.026572
      5          1           0       -2.218731    2.479032    1.646961
      6          8           0       -1.534138    0.140125    0.740411
      7          8           0       -3.240554    0.604582   -0.694988
      8          6           0       -1.037204   -0.884207   -0.176388
      9          1           0       -1.791482   -1.661444   -0.311669
     10          1           0       -0.147716   -1.280339    0.307121
     11          1           0       -0.795389   -0.436341   -1.141851
 ---------------------------------------------------------------------
                    Distance matrix (angstroms):
                    1          2          3          4          5
     1  C    0.000000
     2  C    1.496998   0.000000
     3  H    1.094144   2.132275   0.000000
     4  H    1.089607   2.123976   1.783856   0.000000
     5  H    1.092820   2.137762   1.765204   1.789653   0.000000
     6  O    2.369835   1.366614   2.684270   3.293887   2.600190
     7  O    2.434132   1.231664   3.099626   2.584896   3.168976
     8  C    3.733657   2.415979   4.056615   4.530460   4.003995
     9  H    4.089068   2.717733   4.270137   4.781394   4.600252
    10  H    4.398228   3.275364   4.593115   5.314699   4.496347
    11  H    4.090141   2.707802   4.650116   4.739627   4.278174
                    6          7          8          9         10
     6  O    0.000000
     7  O    2.277707   0.000000
     8  C    1.461752   2.709279   0.000000
     9  H    2.102082   2.716913   1.091483   0.000000
    10  H    2.031655   3.758031   1.087148   1.797251   0.000000
    11  H    2.102611   2.694817   1.091411   1.783895   1.797591
                   11
    11  H    0.000000
 Stoichiometry    C3H6O2
 Framework group  C1[X(C3H6O2)]
 Deg. of freedom    27
 Full point group                 C1      NOp   1
 Largest Abelian subgroup         C1      NOp   1
 Largest concise Abelian subgroup C1      NOp   1
                         Standard orientation:                         
 ---------------------------------------------------------------------
 Center     Atomic      Atomic             Coordinates (Angstroms)
 Number     Number       Type             X           Y           Z
 ---------------------------------------------------------------------
      1          6           0        1.803912   -0.536444    0.001381
      2          6           0        0.483695    0.169248   -0.004137
      3          1           0        1.925544   -1.086919    0.939109
      4          1           0        2.605413    0.194881   -0.098633
      5          1           0        1.850114   -1.260409   -0.815929
      6          8           0       -0.559264   -0.713854   -0.005273
      7          8           0        0.315142    1.389319   -0.000324
      8          6           0       -1.910297   -0.155866    0.003381
      9          1           0       -2.062851    0.438107    0.906299
     10          1           0       -2.567435   -1.021780   -0.012524
     11          1           0       -2.061667    0.470768   -0.877297
 ---------------------------------------------------------------------
 Rotational constants (GHZ):     10.0301608      4.0499373      2.9935115
 Leave Link  202 at Wed May 26 08:27:03 2021, MaxMem=  2147483648 cpu:         0.0
 (Enter /opt/cluster/programs/g09_d.01/g09/l301.exe)
 Standard basis: 6-31+G (6D, 7F)
 Ernie: Thresh=  0.10000D-02 Tol=  0.10000D-05 Strict=F.
 There are    77 symmetry adapted cartesian basis functions of A   symmetry.
 There are    77 symmetry adapted basis functions of A   symmetry.
    77 basis functions,   154 primitive gaussians,    77 cartesian basis functions
    20 alpha electrons       20 beta electrons
       nuclear repulsion energy       179.4928857336 Hartrees.
 IExCor= 4639 DFT=T Ex+Corr=wB97XD ExCW=0 ScaHFX=  1.000000
 ScaDFX=  1.000000  1.000000  1.000000  1.000000 ScalE2=  1.000000  1.000000
 IRadAn=      0 IRanWt=     -1 IRanGd=            0 ICorTp=0 IEmpDi=121
  HFx wShort=  0.000000 wLong=  0.200000 cFull=  0.222036 cShort=  0.000000 cLong=  0.777964
  DFx wShort=  0.000000 wLong=  0.200000 cFull=  0.000000 cShort=  0.000000 cLong=  1.000000
 NAtoms=   11 NActive=   11 NUniq=   11 SFac= 1.00D+00 NAtFMM=   60 NAOKFM=F Big=F
 Integral buffers will be    131072 words long.
 Raffenetti 2 integral format.
 Two-electron integral symmetry is turned on.
 R6Disp:  Grimme-D2 Dispersion energy=       -0.0030829142 Hartrees.
 Nuclear repulsion after empirical dispersion term =      179.4898028195 Hartrees.
 Leave Link  301 at Wed May 26 08:27:03 2021, MaxMem=  2147483648 cpu:         0.3
 (Enter /opt/cluster/programs/g09_d.01/g09/l302.exe)
 NPDir=0 NMtPBC=     1 NCelOv=     1 NCel=       1 NClECP=     1 NCelD=      1
         NCelK=      1 NCelE2=     1 NClLst=     1 CellRange=     0.0.
 One-electron integrals computed using PRISM.
 NBasis=    77 RedAO= T EigKep=  7.07D-05  NBF=    77
 NBsUse=    77 1.00D-06 EigRej= -1.00D+00 NBFU=    77
 Precomputing XC quadrature grid using
 IXCGrd= 4 IRadAn=           0 IRanWt=          -1 IRanGd=           0 AccXCQ= 0.00D+00.
 Generated NRdTot=       0 NPtTot=           0 NUsed=           0 NTot=          32
 NSgBfM=    77    77    77    77    77 MxSgAt=    11 MxSgA2=    11.
 Leave Link  302 at Wed May 26 08:27:03 2021, MaxMem=  2147483648 cpu:         0.9
 (Enter /opt/cluster/programs/g09_d.01/g09/l303.exe)
 DipDrv:  MaxL=1.
 Leave Link  303 at Wed May 26 08:27:03 2021, MaxMem=  2147483648 cpu:         0.3
 (Enter /opt/cluster/programs/g09_d.01/g09/l401.exe)
 ExpMin= 4.38D-02 ExpMax= 5.48D+03 ExpMxC= 8.25D+02 IAcc=2 IRadAn=         4 AccDes= 0.00D+00
 Harris functional with IExCor= 4639 and IRadAn=       4 diagonalized for initial guess.
 HarFok:  IExCor= 4639 AccDes= 0.00D+00 IRadAn=         4 IDoV= 1 UseB2=F ITyADJ=14
 ICtDFT=  3500011 ScaDFX=  1.000000  1.000000  1.000000  1.000000
 FoFCou: FMM=F IPFlag=           0 FMFlag=      100000 FMFlg1=           0
         NFxFlg=           0 DoJE=T BraDBF=F KetDBF=T FulRan=T
         wScrn=  0.000000 ICntrl=     500 IOpCl=  0 I1Cent=   200000004 NGrid=           0
         NMat0=    1 NMatS0=      1 NMatT0=    0 NMatD0=    1 NMtDS0=    0 NMtDT0=    0
 Petite list used in FoFCou.
 Harris En= -257.370082069298    
 JPrj=0 DoOrth=F DoCkMO=F.
 Leave Link  401 at Wed May 26 08:27:04 2021, MaxMem=  2147483648 cpu:         1.4
 (Enter /opt/cluster/programs/g09_d.01/g09/l502.exe)
 Closed shell SCF:
 Using DIIS extrapolation, IDIIS=  1040.
 Integral symmetry usage will be decided dynamically.
 Keep R1 ints in memory in canonical form, NReq=9956864.
 IVT=       37546 IEndB=       37546 NGot=  2147483648 MDV=  2138425091
 LenX=  2138425091 LenY=  2138418721
 Requested convergence on RMS density matrix=1.00D-08 within 128 cycles.
 Requested convergence on MAX density matrix=1.00D-06.
 Requested convergence on             energy=1.00D-06.
 No special actions if energy rises.
 FoFCou: FMM=F IPFlag=           0 FMFlag=           0 FMFlg1=           0
         NFxFlg=           0 DoJE=F BraDBF=F KetDBF=F FulRan=T
         wScrn=  0.000000 ICntrl=     600 IOpCl=  0 I1Cent=           0 NGrid=           0
         NMat0=    1 NMatS0=   3003 NMatT0=    0 NMatD0=    1 NMtDS0=    0 NMtDT0=    0
 Symmetry not used in FoFCou.

 Cycle   1  Pass 1  IDiag  1:
 E= -268.125457032247    
 DIIS: error= 3.33D-02 at cycle   1 NSaved=   1.
 NSaved= 1 IEnMin= 1 EnMin= -268.125457032247     IErMin= 1 ErrMin= 3.33D-02
 ErrMax= 3.33D-02  0.00D+00 EMaxC= 1.00D-01 BMatC= 1.48D-01 BMatP= 1.48D-01
 IDIUse=3 WtCom= 6.67D-01 WtEn= 3.33D-01
 Coeff-Com:  0.100D+01
 Coeff-En:   0.100D+01
 Coeff:      0.100D+01
 Gap=     0.498 Goal=   None    Shift=    0.000
 GapD=    0.498 DampG=2.000 DampE=0.500 DampFc=1.0000 IDamp=-1.
 RMSDP=1.02D-02 MaxDP=1.97D-01              OVMax= 1.07D-01

 Cycle   2  Pass 1  IDiag  1:
 E= -268.135705925905     Delta-E=       -0.010248893658 Rises=F Damp=F
 DIIS: error= 4.08D-02 at cycle   2 NSaved=   2.
 NSaved= 2 IEnMin= 2 EnMin= -268.135705925905     IErMin= 1 ErrMin= 3.33D-02
 ErrMax= 4.08D-02  0.00D+00 EMaxC= 1.00D-01 BMatC= 1.13D-01 BMatP= 1.48D-01
 IDIUse=3 WtCom= 5.92D-01 WtEn= 4.08D-01
 Coeff-Com:  0.461D+00 0.539D+00
 Coeff-En:   0.468D+00 0.532D+00
 Coeff:      0.464D+00 0.536D+00
 Gap=     0.445 Goal=   None    Shift=    0.000
 RMSDP=6.53D-03 MaxDP=1.52D-01 DE=-1.02D-02 OVMax= 8.93D-02

 Cycle   3  Pass 1  IDiag  1:
 E= -268.214182554265     Delta-E=       -0.078476628360 Rises=F Damp=F
 DIIS: error= 1.73D-02 at cycle   3 NSaved=   3.
 NSaved= 3 IEnMin= 3 EnMin= -268.214182554265     IErMin= 3 ErrMin= 1.73D-02
 ErrMax= 1.73D-02  0.00D+00 EMaxC= 1.00D-01 BMatC= 1.00D-02 BMatP= 1.13D-01
 IDIUse=3 WtCom= 8.27D-01 WtEn= 1.73D-01
 Coeff-Com:  0.109D+00 0.247D+00 0.644D+00
 Coeff-En:   0.000D+00 0.000D+00 0.100D+01
 Coeff:      0.897D-01 0.204D+00 0.706D+00
 Gap=     0.429 Goal=   None    Shift=    0.000
 RMSDP=1.86D-03 MaxDP=2.75D-02 DE=-7.85D-02 OVMax= 4.61D-02

 Cycle   4  Pass 1  IDiag  1:
 E= -268.219331945875     Delta-E=       -0.005149391610 Rises=F Damp=F
 DIIS: error= 7.57D-03 at cycle   4 NSaved=   4.
 NSaved= 4 IEnMin= 4 EnMin= -268.219331945875     IErMin= 4 ErrMin= 7.57D-03
 ErrMax= 7.57D-03  0.00D+00 EMaxC= 1.00D-01 BMatC= 3.20D-03 BMatP= 1.00D-02
 IDIUse=3 WtCom= 9.24D-01 WtEn= 7.57D-02
 Coeff-Com: -0.204D-02 0.397D-01 0.401D+00 0.562D+00
 Coeff-En:   0.000D+00 0.000D+00 0.256D+00 0.744D+00
 Coeff:     -0.189D-02 0.367D-01 0.390D+00 0.576D+00
 Gap=     0.438 Goal=   None    Shift=    0.000
 RMSDP=1.76D-03 MaxDP=4.51D-02 DE=-5.15D-03 OVMax= 1.46D-02

 Cycle   5  Pass 1  IDiag  1:
 E= -268.221625932608     Delta-E=       -0.002293986733 Rises=F Damp=F
 DIIS: error= 1.64D-03 at cycle   5 NSaved=   5.
 NSaved= 5 IEnMin= 5 EnMin= -268.221625932608     IErMin= 5 ErrMin= 1.64D-03
 ErrMax= 1.64D-03  0.00D+00 EMaxC= 1.00D-01 BMatC= 1.20D-04 BMatP= 3.20D-03
 IDIUse=3 WtCom= 9.84D-01 WtEn= 1.64D-02
 Coeff-Com: -0.599D-02 0.422D-02 0.167D+00 0.304D+00 0.530D+00
 Coeff-En:   0.000D+00 0.000D+00 0.000D+00 0.000D+00 0.100D+01
 Coeff:     -0.589D-02 0.415D-02 0.165D+00 0.299D+00 0.538D+00
 Gap=     0.431 Goal=   None    Shift=    0.000
 RMSDP=1.57D-04 MaxDP=2.32D-03 DE=-2.29D-03 OVMax= 2.65D-03

 Cycle   6  Pass 1  IDiag  1:
 E= -268.221720677454     Delta-E=       -0.000094744846 Rises=F Damp=F
 DIIS: error= 1.64D-04 at cycle   6 NSaved=   6.
 NSaved= 6 IEnMin= 6 EnMin= -268.221720677454     IErMin= 6 ErrMin= 1.64D-04
 ErrMax= 1.64D-04  0.00D+00 EMaxC= 1.00D-01 BMatC= 2.22D-06 BMatP= 1.20D-04
 IDIUse=3 WtCom= 9.98D-01 WtEn= 1.64D-03
 Coeff-Com: -0.843D-04-0.580D-02-0.317D-01-0.431D-01 0.333D-01 0.105D+01
 Coeff-En:   0.000D+00 0.000D+00 0.000D+00 0.000D+00 0.000D+00 0.100D+01
 Coeff:     -0.842D-04-0.579D-02-0.316D-01-0.430D-01 0.332D-01 0.105D+01
 Gap=     0.431 Goal=   None    Shift=    0.000
 RMSDP=2.65D-04 MaxDP=8.08D-03 DE=-9.47D-05 OVMax= 9.90D-04

 Cycle   7  Pass 1  IDiag  1:
 E= -268.221724766595     Delta-E=       -0.000004089141 Rises=F Damp=F
 DIIS: error= 4.76D-05 at cycle   7 NSaved=   7.
 NSaved= 7 IEnMin= 7 EnMin= -268.221724766595     IErMin= 7 ErrMin= 4.76D-05
 ErrMax= 4.76D-05  0.00D+00 EMaxC= 1.00D-01 BMatC= 2.43D-07 BMatP= 2.22D-06
 IDIUse=1 WtCom= 1.00D+00 WtEn= 0.00D+00
 Coeff-Com:  0.460D-03-0.217D-02-0.205D-01-0.350D-01-0.231D-01 0.321D+00
 Coeff-Com:  0.759D+00
 Coeff:      0.460D-03-0.217D-02-0.205D-01-0.350D-01-0.231D-01 0.321D+00
 Coeff:      0.759D+00
 Gap=     0.431 Goal=   None    Shift=    0.000
 RMSDP=3.93D-05 MaxDP=1.12D-03 DE=-4.09D-06 OVMax= 2.45D-04

 Cycle   8  Pass 1  IDiag  1:
 E= -268.221725144757     Delta-E=       -0.000000378162 Rises=F Damp=F
 DIIS: error= 1.58D-05 at cycle   8 NSaved=   8.
 NSaved= 8 IEnMin= 8 EnMin= -268.221725144757     IErMin= 8 ErrMin= 1.58D-05
 ErrMax= 1.58D-05  0.00D+00 EMaxC= 1.00D-01 BMatC= 1.60D-08 BMatP= 2.43D-07
 IDIUse=1 WtCom= 1.00D+00 WtEn= 0.00D+00
 Coeff-Com: -0.399D-04 0.708D-03 0.473D-02 0.545D-02-0.137D-02-0.137D+00
 Coeff-Com: -0.518D-01 0.118D+01
 Coeff:     -0.399D-04 0.708D-03 0.473D-02 0.545D-02-0.137D-02-0.137D+00
 Coeff:     -0.518D-01 0.118D+01
 Gap=     0.431 Goal=   None    Shift=    0.000
 RMSDP=1.16D-05 MaxDP=2.40D-04 DE=-3.78D-07 OVMax= 1.56D-04

 Cycle   9  Pass 1  IDiag  1:
 E= -268.221725185652     Delta-E=       -0.000000040895 Rises=F Damp=F
 DIIS: error= 2.32D-06 at cycle   9 NSaved=   9.
 NSaved= 9 IEnMin= 9 EnMin= -268.221725185652     IErMin= 9 ErrMin= 2.32D-06
 ErrMax= 2.32D-06  0.00D+00 EMaxC= 1.00D-01 BMatC= 3.27D-10 BMatP= 1.60D-08
 IDIUse=1 WtCom= 1.00D+00 WtEn= 0.00D+00
 Coeff-Com: -0.727D-05-0.146D-04 0.109D-03 0.409D-03 0.189D-02 0.824D-02
 Coeff-Com: -0.197D-01-0.152D+00 0.116D+01
 Coeff:     -0.727D-05-0.146D-04 0.109D-03 0.409D-03 0.189D-02 0.824D-02
 Coeff:     -0.197D-01-0.152D+00 0.116D+01
 Gap=     0.431 Goal=   None    Shift=    0.000
 RMSDP=3.16D-06 MaxDP=8.99D-05 DE=-4.09D-08 OVMax= 2.00D-05

 Cycle  10  Pass 1  IDiag  1:
 E= -268.221725186510     Delta-E=       -0.000000000857 Rises=F Damp=F
 DIIS: error= 5.74D-07 at cycle  10 NSaved=  10.
 NSaved=10 IEnMin=10 EnMin= -268.221725186510     IErMin=10 ErrMin= 5.74D-07
 ErrMax= 5.74D-07  0.00D+00 EMaxC= 1.00D-01 BMatC= 4.15D-11 BMatP= 3.27D-10
 IDIUse=1 WtCom= 1.00D+00 WtEn= 0.00D+00
 Coeff-Com:  0.373D-06-0.391D-04-0.204D-03-0.178D-03 0.706D-03 0.915D-02
 Coeff-Com: -0.386D-02-0.102D+00 0.364D+00 0.732D+00
 Coeff:      0.373D-06-0.391D-04-0.204D-03-0.178D-03 0.706D-03 0.915D-02
 Coeff:     -0.386D-02-0.102D+00 0.364D+00 0.732D+00
 Gap=     0.431 Goal=   None    Shift=    0.000
 RMSDP=3.54D-07 MaxDP=8.99D-06 DE=-8.57D-10 OVMax= 2.48D-06

 Cycle  11  Pass 1  IDiag  1:
 E= -268.221725186564     Delta-E=       -0.000000000054 Rises=F Damp=F
 DIIS: error= 1.46D-07 at cycle  11 NSaved=  11.
 NSaved=11 IEnMin=11 EnMin= -268.221725186564     IErMin=11 ErrMin= 1.46D-07
 ErrMax= 1.46D-07  0.00D+00 EMaxC= 1.00D-01 BMatC= 2.33D-12 BMatP= 4.15D-11
 IDIUse=1 WtCom= 1.00D+00 WtEn= 0.00D+00
 Coeff-Com:  0.674D-06-0.603D-05-0.506D-04-0.870D-04-0.691D-04 0.733D-03
 Coeff-Com:  0.106D-02-0.198D-02-0.607D-01 0.122D+00 0.939D+00
 Coeff:      0.674D-06-0.603D-05-0.506D-04-0.870D-04-0.691D-04 0.733D-03
 Coeff:      0.106D-02-0.198D-02-0.607D-01 0.122D+00 0.939D+00
 Gap=     0.431 Goal=   None    Shift=    0.000
 RMSDP=8.89D-08 MaxDP=1.70D-06 DE=-5.45D-11 OVMax= 9.74D-07

 Cycle  12  Pass 1  IDiag  1:
 E= -268.221725186568     Delta-E=       -0.000000000004 Rises=F Damp=F
 DIIS: error= 2.97D-08 at cycle  12 NSaved=  12.
 NSaved=12 IEnMin=12 EnMin= -268.221725186568     IErMin=12 ErrMin= 2.97D-08
 ErrMax= 2.97D-08  0.00D+00 EMaxC= 1.00D-01 BMatC= 3.56D-14 BMatP= 2.33D-12
 IDIUse=1 WtCom= 1.00D+00 WtEn= 0.00D+00
 Coeff-Com: -0.481D-07 0.137D-05 0.704D-05 0.708D-05-0.283D-04-0.338D-03
 Coeff-Com:  0.871D-04 0.393D-02-0.125D-01-0.327D-01-0.237D-01 0.107D+01
 Coeff:     -0.481D-07 0.137D-05 0.704D-05 0.708D-05-0.283D-04-0.338D-03
 Coeff:      0.871D-04 0.393D-02-0.125D-01-0.327D-01-0.237D-01 0.107D+01
 Gap=     0.431 Goal=   None    Shift=    0.000
 RMSDP=1.86D-08 MaxDP=4.46D-07 DE=-3.75D-12 OVMax= 1.76D-07

 Cycle  13  Pass 1  IDiag  1:
 E= -268.221725186568     Delta-E=        0.000000000000 Rises=F Damp=F
 DIIS: error= 7.31D-09 at cycle  13 NSaved=  13.
 NSaved=13 IEnMin=13 EnMin= -268.221725186568     IErMin=13 ErrMin= 7.31D-09
 ErrMax= 7.31D-09  0.00D+00 EMaxC= 1.00D-01 BMatC= 1.15D-15 BMatP= 3.56D-14
 IDIUse=1 WtCom= 1.00D+00 WtEn= 0.00D+00
 Coeff-Com: -0.115D-07-0.790D-07 0.438D-06 0.151D-05 0.622D-05 0.381D-04
 Coeff-Com: -0.486D-04-0.567D-03 0.363D-02 0.201D-02-0.221D-01-0.179D+00
 Coeff-Com:  0.120D+01
 Coeff:     -0.115D-07-0.790D-07 0.438D-06 0.151D-05 0.622D-05 0.381D-04
 Coeff:     -0.486D-04-0.567D-03 0.363D-02 0.201D-02-0.221D-01-0.179D+00
 Coeff:      0.120D+01
 Gap=     0.431 Goal=   None    Shift=    0.000
 RMSDP=4.01D-09 MaxDP=8.27D-08 DE=-4.55D-13 OVMax= 5.92D-08

 SCF Done:  E(RwB97XD) =  -268.221725187     A.U. after   13 cycles
            NFock= 13  Conv=0.40D-08     -V/T= 2.0057
 KE= 2.666893144189D+02 PE=-9.866252761913D+02 EE= 2.722244337664D+02
 Leave Link  502 at Wed May 26 08:27:05 2021, MaxMem=  2147483648 cpu:        14.3
 (Enter /opt/cluster/programs/g09_d.01/g09/l601.exe)
 Copying SCF densities to generalized density rwf, IOpCl= 0 IROHF=0.

 **********************************************************************

            Population analysis using the SCF density.

 **********************************************************************

 Orbital symmetries:
       Occupied  (A) (A) (A) (A) (A) (A) (A) (A) (A) (A) (A) (A)
                 (A) (A) (A) (A) (A) (A) (A) (A)
       Virtual   (A) (A) (A) (A) (A) (A) (A) (A) (A) (A) (A) (A)
                 (A) (A) (A) (A) (A) (A) (A) (A) (A) (A) (A) (A)
                 (A) (A) (A) (A) (A) (A) (A) (A) (A) (A) (A) (A)
                 (A) (A) (A) (A) (A) (A) (A) (A) (A) (A) (A) (A)
                 (A) (A) (A) (A) (A) (A) (A) (A) (A)
 The electronic state is 1-A.
 Alpha  occ. eigenvalues --  -19.32628 -19.27597 -10.44994 -10.35561 -10.31011
 Alpha  occ. eigenvalues --   -1.22460  -1.13514  -0.88136  -0.81335  -0.66537
 Alpha  occ. eigenvalues --   -0.59655  -0.58578  -0.56876  -0.52888  -0.51579
 Alpha  occ. eigenvalues --   -0.49457  -0.46235  -0.44331  -0.39172  -0.36752
 Alpha virt. eigenvalues --    0.06398   0.07236   0.07891   0.10065   0.10249
 Alpha virt. eigenvalues --    0.11185   0.12720   0.13429   0.15162   0.15940
 Alpha virt. eigenvalues --    0.16754   0.19925   0.20573   0.23201   0.25246
 Alpha virt. eigenvalues --    0.25972   0.26651   0.27446   0.30326   0.31492
 Alpha virt. eigenvalues --    0.33336   0.34421   0.36231   0.36669   0.36855
 Alpha virt. eigenvalues --    0.40695   0.42065   0.42774   0.43920   0.46754
 Alpha virt. eigenvalues --    0.55877   0.73847   0.73908   0.75962   0.77297
 Alpha virt. eigenvalues --    0.79851   0.81759   0.81889   0.91766   0.95827
 Alpha virt. eigenvalues --    1.06404   1.10081   1.13485   1.15305   1.18411
 Alpha virt. eigenvalues --    1.21723   1.26181   1.26563   1.28502   1.37013
 Alpha virt. eigenvalues --    1.39722   1.46580   1.48643   1.57408   1.67518
 Alpha virt. eigenvalues --    1.99066   2.00688
          Condensed to atoms (all electrons):
               1          2          3          4          5          6
     1  C    8.063538  -1.558391   0.349784   0.360357   0.362473  -0.703992
     2  C   -1.558391   6.711326  -0.010024  -0.023872  -0.025663   0.301577
     3  H    0.349784  -0.010024   0.459338  -0.021451  -0.021768  -0.000422
     4  H    0.360357  -0.023872  -0.021451   0.459610  -0.022595   0.011887
     5  H    0.362473  -0.025663  -0.021768  -0.022595   0.461106   0.000937
     6  O   -0.703992   0.301577  -0.000422   0.011887   0.000937   8.987777
     7  O    0.019433   0.227143   0.000267  -0.006708   0.002799  -0.253174
     8  C   -0.118288  -0.081739  -0.000357   0.000600   0.000154   0.083895
     9  H   -0.002596  -0.006819   0.000015   0.000004  -0.000007  -0.034905
    10  H    0.000662   0.008425  -0.000003   0.000001  -0.000009  -0.063758
    11  H   -0.003311  -0.006376  -0.000008   0.000009   0.000006  -0.033723
               7          8          9         10         11
     1  C    0.019433  -0.118288  -0.002596   0.000662  -0.003311
     2  C    0.227143  -0.081739  -0.006819   0.008425  -0.006376
     3  H    0.000267  -0.000357   0.000015  -0.000003  -0.000008
     4  H   -0.006708   0.000600   0.000004   0.000001   0.000009
     5  H    0.002799   0.000154  -0.000007  -0.000009   0.000006
     6  O   -0.253174   0.083895  -0.034905  -0.063758  -0.033723
     7  O    8.497902  -0.041496   0.002811   0.000723   0.002504
     8  C   -0.041496   5.325934   0.386620   0.399079   0.386483
     9  H    0.002811   0.386620   0.491668  -0.027212  -0.032591
    10  H    0.000723   0.399079  -0.027212   0.490861  -0.027097
    11  H    0.002504   0.386483  -0.032591  -0.027097   0.490342
 Mulliken charges:
               1
     1  C   -0.769670
     2  C    0.464412
     3  H    0.244629
     4  H    0.242157
     5  H    0.242567
     6  O   -0.296101
     7  O   -0.452207
     8  C   -0.340886
     9  H    0.223010
    10  H    0.218328
    11  H    0.223760
 Sum of Mulliken charges =   0.00000
 Mulliken charges with hydrogens summed into heavy atoms:
               1
     1  C   -0.040316
     2  C    0.464412
     6  O   -0.296101
     7  O   -0.452207
     8  C    0.324212
 Electronic spatial extent (au):  <R**2>=            438.1956
 Charge=              0.0000 electrons
 Dipole moment (field-independent basis, Debye):
    X=             -0.4765    Y=             -1.9280    Z=              0.0315  Tot=              1.9862
 Quadrupole moment (field-independent basis, Debye-Ang):
   XX=            -22.9993   YY=            -36.7913   ZZ=            -29.5163
   XY=             -2.0010   XZ=              0.0331   YZ=             -0.0305
 Traceless Quadrupole moment (field-independent basis, Debye-Ang):
   XX=              6.7697   YY=             -7.0224   ZZ=              0.2527
   XY=             -2.0010   XZ=              0.0331   YZ=             -0.0305
 Octapole moment (field-independent basis, Debye-Ang**2):
  XXX=             -7.2513  YYY=             -6.6535  ZZZ=              0.3045  XYY=             -1.5011
  XXY=             -2.3551  XXZ=              0.0344  XZZ=             -0.5065  YZZ=              0.1882
  YYZ=             -0.2136  XYZ=             -0.1167
 Hexadecapole moment (field-independent basis, Debye-Ang**3):
 XXXX=           -352.3409 YYYY=           -156.3879 ZZZZ=            -40.8049 XXXY=              8.1641
 XXXZ=             -0.1026 YYYX=             -1.3235 YYYZ=              0.4507 ZZZX=              0.5051
 ZZZY=             -0.2174 XXYY=            -83.2153 XXZZ=            -68.8791 YYZZ=            -29.6882
 XXYZ=             -0.4030 YYXZ=             -0.1838 ZZXY=             -2.9417
 N-N= 1.794898028195D+02 E-N=-9.866252760932D+02  KE= 2.666893144189D+02
 No NMR shielding tensors so no spin-rotation constants.
 Leave Link  601 at Wed May 26 08:27:06 2021, MaxMem=  2147483648 cpu:         0.6
 (Enter /opt/cluster/programs/g09_d.01/g09/l701.exe)
 Compute integral first derivatives.
 ... and contract with generalized density number  0.
 R6Disp: Adding Grimme-D2 dispersion energy 1st derivatives to the gradient.
 Leave Link  701 at Wed May 26 08:27:06 2021, MaxMem=  2147483648 cpu:         0.6
 (Enter /opt/cluster/programs/g09_d.01/g09/l702.exe)
 L702 exits ... SP integral derivatives will be done elsewhere.
 Leave Link  702 at Wed May 26 08:27:06 2021, MaxMem=  2147483648 cpu:         0.2
 (Enter /opt/cluster/programs/g09_d.01/g09/l703.exe)
 Compute integral first derivatives, UseDBF=F ICtDFT=           0.
 Integral derivatives from FoFJK, PRISM(SPDF).
 Calling FoFJK, ICntrl=      2127 FMM=F ISym2X=0 I1Cent= 0 IOpClX= 0 NMat=1 NMatS=1 NMatT=0.
 FoFJK:  IHMeth= 1 ICntrl=    2127 DoSepK=T KAlg= 0 I1Cent=   0 FoldK=F
 IRaf=         1 NMat=   1 IRICut=       1 DoRegI=T DoRafI=F ISym2E= 0.
 FoFCou: FMM=F IPFlag=           0 FMFlag=      100000 FMFlg1=         800
         NFxFlg=           0 DoJE=F BraDBF=F KetDBF=F FulRan=T
         wScrn=  0.000000 ICntrl=    2527 IOpCl=  0 I1Cent=           0 NGrid=           0
         NMat0=    1 NMatS0=      1 NMatT0=    0 NMatD0=    1 NMtDS0=    0 NMtDT0=    0
 Symmetry not used in FoFCou.
 Leave Link  703 at Wed May 26 08:27:06 2021, MaxMem=  2147483648 cpu:         3.6
 (Enter /opt/cluster/programs/g09_d.01/g09/l716.exe)
 Dipole        =-1.87461411D-01-7.58514888D-01 1.23977010D-02
 ***** Axes restored to original set *****
 -------------------------------------------------------------------
 Center     Atomic                   Forces (Hartrees/Bohr)
 Number     Number              X              Y              Z
 -------------------------------------------------------------------
      1        6          -0.000003440   -0.000008019   -0.000007832
      2        6           0.000008527   -0.000001783   -0.000043535
      3        1          -0.000009305    0.000001298    0.000000723
      4        1           0.000006234    0.000004677   -0.000002143
      5        1          -0.000002265   -0.000012798    0.000011937
      6        8          -0.000005085   -0.000009662   -0.000000235
      7        8           0.000022099    0.000010785    0.000019718
      8        6          -0.000016640    0.000017593    0.000016491
      9        1          -0.000004471    0.000003220   -0.000004425
     10        1          -0.000008468   -0.000005417    0.000007628
     11        1           0.000012814    0.000000106    0.000001674
 -------------------------------------------------------------------
 Cartesian Forces:  Max     0.000043535 RMS     0.000012212
 Leave Link  716 at Wed May 26 08:27:06 2021, MaxMem=  2147483648 cpu:         0.2
 (Enter /opt/cluster/programs/g09_d.01/g09/l103.exe)

 GradGradGradGradGradGradGradGradGradGradGradGradGradGradGradGradGradGrad
 Berny optimization.
 FormGI is forming the generalized inverse of G from B-inverse, IUseBI=4.
 Internal  Forces:  Max     0.000029769 RMS     0.000009294
 Search for a local minimum.
 Step number   1 out of a maximum of   47 on scan point     1 out of    18
 All quantities printed in internal units (Hartrees-Bohrs-Radians)
 RMS Force = .92826D-05 SwitMx=.10000D-02 MixMth= 2
 Mixed Optimization -- En-DIIS/RFO-DIIS
 Second derivative matrix not updated -- first step.
 ITU=  0
     Eigenvalues ---    0.00806   0.00875   0.01310   0.07445   0.07534
     Eigenvalues ---    0.10143   0.10630   0.16000   0.16000   0.16000
     Eigenvalues ---    0.16000   0.16000   0.16000   0.24999   0.25000
     Eigenvalues ---    0.25000   0.32694   0.34338   0.34489   0.34642
     Eigenvalues ---    0.34650   0.34858   0.35144   0.36746   0.51633
     Eigenvalues ---    0.903961000.000001000.000001000.000001000.00000
     Eigenvalues --- 1000.000001000.000001000.000001000.000001000.00000
     Eigenvalues --- 1000.000001000.00000
 RFO step:  Lambda=-1.15944100D-08 EMin= 8.05654684D-03
 Linear search not attempted -- first point.
 Iteration  1 RMS(Cart)=  0.00008388 RMS(Int)=  0.00000001
 Iteration  2 RMS(Cart)=  0.00000001 RMS(Int)=  0.00000000
 Iteration  1 RMS(Cart)=  0.00000000 RMS(Int)=  0.00000000
 ITry= 1 IFail=0 DXMaxC= 2.72D-04 DCOld= 1.00D+10 DXMaxT= 3.00D-01 DXLimC= 3.00D+00 Rises=F
 Variable       Old X    -DE/DX   Delta X   Delta X   Delta X     New X
                                 (Linear)    (Quad)   (Total)
    R1        2.82892   0.00000   0.00000  -0.00001  -0.00001   2.82891
    R2        2.06763   0.00000   0.00000   0.00001   0.00001   2.06764
    R3        2.05906   0.00000   0.00000  -0.00001  -0.00001   2.05905
    R4        2.06513  -0.00001   0.00000  -0.00002  -0.00002   2.06511
    R5        2.58253  -0.00002   0.00000  -0.00004  -0.00004   2.58249
    R6        2.32751  -0.00003   0.00000  -0.00003  -0.00003   2.32748
    R7        2.76231  -0.00003   0.00000  -0.00008  -0.00008   2.76223
    R8        2.06260   0.00000   0.00000   0.00000   0.00000   2.06260
    R9        2.05441   0.00000   0.00000  -0.00001  -0.00001   2.05440
   R10        2.06247   0.00000   0.00000   0.00001   0.00001   2.06248
    A1        1.91598   0.00001   0.00000   0.00005   0.00005   1.91603
    A2        1.90920   0.00000   0.00000   0.00003   0.00003   1.90924
    A3        1.92498   0.00000   0.00000  -0.00003  -0.00003   1.92494
    A4        1.91195   0.00000   0.00000   0.00000   0.00000   1.91195
    A5        1.87861  -0.00001   0.00000  -0.00007  -0.00007   1.87854
    A6        1.92292   0.00000   0.00000   0.00002   0.00002   1.92294
    A7        1.94811  -0.00001   0.00000  -0.00005  -0.00005   1.94806
    A8        2.19894   0.00001   0.00000   0.00003   0.00003   2.19898
    A9        2.13611   0.00001   0.00000   0.00002   0.00002   2.13613
   A10        2.04732  -0.00002   0.00000  -0.00007  -0.00007   2.04724
   A11        1.91964  -0.00001   0.00000  -0.00003  -0.00003   1.91961
   A12        1.82817   0.00000   0.00000  -0.00003  -0.00003   1.82815
   A13        1.92046   0.00001   0.00000   0.00006   0.00006   1.92051
   A14        1.94021   0.00000   0.00000   0.00000   0.00000   1.94021
   A15        1.91313   0.00000   0.00000   0.00001   0.00001   1.91314
   A16        1.94086   0.00000   0.00000  -0.00001  -0.00001   1.94085
    D1       -1.14138   0.00001   0.00000   0.00008   0.00008  -1.14130
    D2        1.99314   0.00000   0.00000  -0.00018  -0.00018   1.99296
    D3        3.04339   0.00000   0.00000   0.00003   0.00003   3.04343
    D4       -0.10527   0.00000   0.00000  -0.00023  -0.00023  -0.10550
    D5        0.92578   0.00000   0.00000   0.00001   0.00001   0.92580
    D6       -2.22288  -0.00001   0.00000  -0.00026  -0.00026  -2.22313
    D7        3.13087  -0.00001   0.00000   0.00000   0.00000   3.13087
    D8       -0.00395   0.00000   0.00000   0.00026   0.00026  -0.00370
    D9       -1.06793   0.00000   0.00000  -0.00004  -0.00004  -1.06796
   D10        3.12890   0.00000   0.00000   0.00000   0.00000   3.12889
   D11        1.04135   0.00000   0.00000   0.00000   0.00000   1.04135
         Item               Value     Threshold  Converged?
 Maximum Force            0.000030     0.000450     YES
 RMS     Force            0.000009     0.000300     YES
 Maximum Displacement     0.000272     0.001800     YES
 RMS     Displacement     0.000084     0.001200     YES
 Predicted change in Energy=-5.797226D-09
 Optimization completed.
    -- Stationary point found.
                           ----------------------------
                           !   Optimized Parameters   !
                           ! (Angstroms and Degrees)  !
 --------------------------                            --------------------------
 ! Name  Definition              Value          Derivative Info.                !
 --------------------------------------------------------------------------------
 ! R1    R(1,2)                  1.497          -DE/DX =    0.0                 !
 ! R2    R(1,3)                  1.0941         -DE/DX =    0.0                 !
 ! R3    R(1,4)                  1.0896         -DE/DX =    0.0                 !
 ! R4    R(1,5)                  1.0928         -DE/DX =    0.0                 !
 ! R5    R(2,6)                  1.3666         -DE/DX =    0.0                 !
 ! R6    R(2,7)                  1.2317         -DE/DX =    0.0                 !
 ! R7    R(6,8)                  1.4618         -DE/DX =    0.0                 !
 ! R8    R(8,9)                  1.0915         -DE/DX =    0.0                 !
 ! R9    R(8,10)                 1.0871         -DE/DX =    0.0                 !
 ! R10   R(8,11)                 1.0914         -DE/DX =    0.0                 !
 ! A1    A(2,1,3)              109.7774         -DE/DX =    0.0                 !
 ! A2    A(2,1,4)              109.3893         -DE/DX =    0.0                 !
 ! A3    A(2,1,5)              110.2931         -DE/DX =    0.0                 !
 ! A4    A(3,1,4)              109.5466         -DE/DX =    0.0                 !
 ! A5    A(3,1,5)              107.6365         -DE/DX =    0.0                 !
 ! A6    A(4,1,5)              110.1753         -DE/DX =    0.0                 !
 ! A7    A(1,2,6)              111.6188         -DE/DX =    0.0                 !
 ! A8    A(1,2,7)              125.9901         -DE/DX =    0.0                 !
 ! A9    A(6,2,7)              122.3899         -DE/DX =    0.0                 !
 ! A10   A(2,6,8)              117.3026         -DE/DX =    0.0                 !
 ! A11   A(6,8,9)              109.9871         -DE/DX =    0.0                 !
 ! A12   A(6,8,10)             104.7466         -DE/DX =    0.0                 !
 ! A13   A(6,8,11)             110.034          -DE/DX =    0.0                 !
 ! A14   A(9,8,10)             111.1657         -DE/DX =    0.0                 !
 ! A15   A(9,8,11)             109.6141         -DE/DX =    0.0                 !
 ! A16   A(10,8,11)            111.2029         -DE/DX =    0.0                 !
 ! D1    D(3,1,2,6)            -65.3964         -DE/DX =    0.0                 !
 ! D2    D(3,1,2,7)            114.1986         -DE/DX =    0.0                 !
 ! D3    D(4,1,2,6)            174.3736         -DE/DX =    0.0                 !
 ! D4    D(4,1,2,7)             -6.0315         -DE/DX =    0.0                 !
 ! D5    D(5,1,2,6)             53.0435         -DE/DX =    0.0                 !
 ! D6    D(5,1,2,7)           -127.3615         -DE/DX =    0.0                 !
 ! D7    D(1,2,6,8)            179.3854         -DE/DX =    0.0                 !
 ! D8    D(7,2,6,8)             -0.2265         -DE/DX =    0.0                 !
 ! D9    D(2,6,8,9)            -61.1876         -DE/DX =    0.0                 !
 ! D10   D(2,6,8,10)           179.2725         -DE/DX =    0.0                 !
 ! D11   D(2,6,8,11)            59.6649         -DE/DX =    0.0                 !
 --------------------------------------------------------------------------------
 Lowest energy point so far.  Saving SCF results.
 Iteration  1 RMS(Cart)=  0.05877756 RMS(Int)=  0.04047673
 Iteration  2 RMS(Cart)=  0.03682267 RMS(Int)=  0.03564919
 Iteration  3 RMS(Cart)=  0.00797690 RMS(Int)=  0.03547273
 Iteration  4 RMS(Cart)=  0.00022969 RMS(Int)=  0.03547237
 Iteration  5 RMS(Cart)=  0.00001657 RMS(Int)=  0.03547237
 Iteration  6 RMS(Cart)=  0.00000177 RMS(Int)=  0.03547237
 Iteration  7 RMS(Cart)=  0.00000013 RMS(Int)=  0.03547237
 Iteration  1 RMS(Cart)=  0.03948242 RMS(Int)=  0.01350563
 Iteration  2 RMS(Cart)=  0.01517468 RMS(Int)=  0.01500028
 Iteration  3 RMS(Cart)=  0.00577232 RMS(Int)=  0.01623911
 Iteration  4 RMS(Cart)=  0.00218741 RMS(Int)=  0.01678078
 Iteration  5 RMS(Cart)=  0.00082766 RMS(Int)=  0.01699478
 Iteration  6 RMS(Cart)=  0.00031298 RMS(Int)=  0.01707694
 Iteration  7 RMS(Cart)=  0.00011833 RMS(Int)=  0.01710817
 Iteration  8 RMS(Cart)=  0.00004473 RMS(Int)=  0.01712000
 Iteration  9 RMS(Cart)=  0.00001691 RMS(Int)=  0.01712447
 Iteration 10 RMS(Cart)=  0.00000639 RMS(Int)=  0.01712617
 Iteration 11 RMS(Cart)=  0.00000242 RMS(Int)=  0.01712681
 Iteration 12 RMS(Cart)=  0.00000091 RMS(Int)=  0.01712705
 GradGradGradGradGradGradGradGradGradGradGradGradGradGradGradGradGradGrad

 Leave Link  103 at Wed May 26 08:27:06 2021, MaxMem=  2147483648 cpu:         0.1
 (Enter /opt/cluster/programs/g09_d.01/g09/l202.exe)
                          Input orientation:                          
 ---------------------------------------------------------------------
 Center     Atomic      Atomic             Coordinates (Angstroms)
 Number     Number       Type             X           Y           Z
 ---------------------------------------------------------------------
      1          6           0       -3.036248    1.837771    1.379813
      2          6           0       -2.767074    0.693426    0.451257
      3          1           0       -3.357087    1.456315    2.354542
      4          1           0       -3.819390    2.468591    0.959820
      5          1           0       -2.125269    2.421904    1.535643
      6          8           0       -1.654443   -0.005379    0.827194
      7          8           0       -3.368355    0.478504   -0.601955
      8          6           0       -1.020690   -0.851157   -0.184492
      9          1           0       -1.720144   -1.620783   -0.520039
     10          1           0       -0.165087   -1.291994    0.321202
     11          1           0       -0.706214   -0.244198   -1.036985
 ---------------------------------------------------------------------
                    Distance matrix (angstroms):
                    1          2          3          4          5
     1  C    0.000000
     2  C    1.498064   0.000000
     3  H    1.094780   2.133685   0.000000
     4  H    1.089788   2.125374   1.784286   0.000000
     5  H    1.093333   2.139029   1.766447   1.789915   0.000000
     6  O    2.368960   1.366603   2.714468   3.290153   2.572018
     7  O    2.425965   1.231659   3.114019   2.569634   3.145058
     8  C    3.706731   2.416561   4.150888   4.490311   3.859001
     9  H    4.159707   2.719383   4.517890   4.829057   4.553380
    10  H    4.377173   3.275537   4.677236   5.282400   4.371523
    11  H    3.950261   2.709455   4.628318   4.586754   3.967396
                    6          7          8          9         10
     6  O    0.000000
     7  O    2.283441   0.000000
     8  C    1.463042   2.730165   0.000000
     9  H    2.104492   2.670265   1.092772   0.000000
    10  H    2.032139   3.774626   1.087254   1.798330   0.000000
    11  H    2.105074   2.792587   1.092720   1.786133   1.798712
                   11
    11  H    0.000000
 Stoichiometry    C3H6O2
 Framework group  C1[X(C3H6O2)]
 Deg. of freedom    27
 Full point group                 C1      NOp   1
 RotChk:  IX=2 Diff= 9.97D-02
 Largest Abelian subgroup         C1      NOp   1
 Largest concise Abelian subgroup C1      NOp   1
                         Standard orientation:                         
 ---------------------------------------------------------------------
 Center     Atomic      Atomic             Coordinates (Angstroms)
 Number     Number       Type             X           Y           Z
 ---------------------------------------------------------------------
      1          6           0        1.781453   -0.557973   -0.084583
      2          6           0        0.484105    0.171603    0.085137
      3          1           0        2.029455   -1.092269    0.838220
      4          1           0        2.571359    0.156487   -0.315307
      5          1           0        1.698092   -1.298555   -0.884563
      6          8           0       -0.570240   -0.694051    0.166399
      7          8           0        0.343367    1.393222    0.015686
      8          6           0       -1.903134   -0.153776   -0.101913
      9          1           0       -2.142186    0.628820    0.622344
     10          1           0       -2.571994   -1.004348    0.004270
     11          1           0       -1.944284    0.257376   -1.113495
 ---------------------------------------------------------------------
 Rotational constants (GHZ):      9.8538953      4.0632100      3.0130802
 Leave Link  202 at Wed May 26 08:27:06 2021, MaxMem=  2147483648 cpu:         0.0
 (Enter /opt/cluster/programs/g09_d.01/g09/l301.exe)
 Standard basis: 6-31+G (6D, 7F)
 Ernie: Thresh=  0.10000D-02 Tol=  0.10000D-05 Strict=F.
 There are    77 symmetry adapted cartesian basis functions of A   symmetry.
 There are    77 symmetry adapted basis functions of A   symmetry.
    77 basis functions,   154 primitive gaussians,    77 cartesian basis functions
    20 alpha electrons       20 beta electrons
       nuclear repulsion energy       179.4404447051 Hartrees.
 IExCor= 4639 DFT=T Ex+Corr=wB97XD ExCW=0 ScaHFX=  1.000000
 ScaDFX=  1.000000  1.000000  1.000000  1.000000 ScalE2=  1.000000  1.000000
 IRadAn=      0 IRanWt=     -1 IRanGd=            0 ICorTp=0 IEmpDi=121
  HFx wShort=  0.000000 wLong=  0.200000 cFull=  0.222036 cShort=  0.000000 cLong=  0.777964
  DFx wShort=  0.000000 wLong=  0.200000 cFull=  0.000000 cShort=  0.000000 cLong=  1.000000
 NAtoms=   11 NActive=   11 NUniq=   11 SFac= 1.00D+00 NAtFMM=   60 NAOKFM=F Big=F
 Integral buffers will be    131072 words long.
 Raffenetti 2 integral format.
 Two-electron integral symmetry is turned on.
 R6Disp:  Grimme-D2 Dispersion energy=       -0.0031052814 Hartrees.
 Nuclear repulsion after empirical dispersion term =      179.4373394237 Hartrees.
 Leave Link  301 at Wed May 26 08:27:06 2021, MaxMem=  2147483648 cpu:         0.3
 (Enter /opt/cluster/programs/g09_d.01/g09/l302.exe)
 NPDir=0 NMtPBC=     1 NCelOv=     1 NCel=       1 NClECP=     1 NCelD=      1
         NCelK=      1 NCelE2=     1 NClLst=     1 CellRange=     0.0.
 One-electron integrals computed using PRISM.
 NBasis=    77 RedAO= T EigKep=  9.34D-05  NBF=    77
 NBsUse=    77 1.00D-06 EigRej= -1.00D+00 NBFU=    77
 Precomputing XC quadrature grid using
 IXCGrd= 4 IRadAn=           0 IRanWt=          -1 IRanGd=           0 AccXCQ= 0.00D+00.
 Generated NRdTot=       0 NPtTot=           0 NUsed=           0 NTot=          32
 NSgBfM=    77    77    77    77    77 MxSgAt=    11 MxSgA2=    11.
 Leave Link  302 at Wed May 26 08:27:06 2021, MaxMem=  2147483648 cpu:         0.9
 (Enter /opt/cluster/programs/g09_d.01/g09/l303.exe)
 DipDrv:  MaxL=1.
 Leave Link  303 at Wed May 26 08:27:06 2021, MaxMem=  2147483648 cpu:         0.3
 (Enter /opt/cluster/programs/g09_d.01/g09/l401.exe)
 Initial guess from the checkpoint file:  "/home/unibas/boittier/RDKit_G2/O.pdb/SCAN_1_2_6_8_S_17_20.0/O.pdb.chk"
 B after Tr=     0.000000    0.000000    0.000000
         Rot=    0.999885    0.014248   -0.000634    0.005209 Ang=   1.74 deg.
 Guess basis will be translated and rotated to current coordinates.
 JPrj=2 DoOrth=T DoCkMO=T.
 Generating alternative initial guess.
 ExpMin= 4.38D-02 ExpMax= 5.48D+03 ExpMxC= 8.25D+02 IAcc=2 IRadAn=         4 AccDes= 0.00D+00
 Harris functional with IExCor= 4639 and IRadAn=       4 diagonalized for initial guess.
 HarFok:  IExCor= 4639 AccDes= 0.00D+00 IRadAn=         4 IDoV= 1 UseB2=F ITyADJ=14
 ICtDFT=  3500011 ScaDFX=  1.000000  1.000000  1.000000  1.000000
 FoFCou: FMM=F IPFlag=           0 FMFlag=      100000 FMFlg1=           0
         NFxFlg=           0 DoJE=T BraDBF=F KetDBF=T FulRan=T
         wScrn=  0.000000 ICntrl=     500 IOpCl=  0 I1Cent=   200000004 NGrid=           0
         NMat0=    1 NMatS0=      1 NMatT0=    0 NMatD0=    1 NMtDS0=    0 NMtDT0=    0
 Petite list used in FoFCou.
 Harris En= -257.367840789179    
 Leave Link  401 at Wed May 26 08:27:07 2021, MaxMem=  2147483648 cpu:         1.8
 (Enter /opt/cluster/programs/g09_d.01/g09/l502.exe)
 Closed shell SCF:
 Using DIIS extrapolation, IDIIS=  1040.
 Integral symmetry usage will be decided dynamically.
 Keep R1 ints in memory in canonical form, NReq=9956864.
 IVT=       37546 IEndB=       37546 NGot=  2147483648 MDV=  2138425091
 LenX=  2138425091 LenY=  2138418721
 Requested convergence on RMS density matrix=1.00D-08 within 128 cycles.
 Requested convergence on MAX density matrix=1.00D-06.
 Requested convergence on             energy=1.00D-06.
 No special actions if energy rises.
 FoFCou: FMM=F IPFlag=           0 FMFlag=           0 FMFlg1=           0
         NFxFlg=           0 DoJE=F BraDBF=F KetDBF=F FulRan=T
         wScrn=  0.000000 ICntrl=     600 IOpCl=  0 I1Cent=           0 NGrid=           0
         NMat0=    1 NMatS0=   3003 NMatT0=    0 NMatD0=    1 NMtDS0=    0 NMtDT0=    0
 Symmetry not used in FoFCou.

 Cycle   1  Pass 1  IDiag  1:
 E= -268.188727757599    
 DIIS: error= 1.20D-02 at cycle   1 NSaved=   1.
 NSaved= 1 IEnMin= 1 EnMin= -268.188727757599     IErMin= 1 ErrMin= 1.20D-02
 ErrMax= 1.20D-02  0.00D+00 EMaxC= 1.00D-01 BMatC= 1.38D-02 BMatP= 1.38D-02
 IDIUse=3 WtCom= 8.80D-01 WtEn= 1.20D-01
 Coeff-Com:  0.100D+01
 Coeff-En:   0.100D+01
 Coeff:      0.100D+01
 Recover alternate guess density for next cycle.
 RMSDP=9.55D-03 MaxDP=1.39D-01              OVMax= 0.00D+00

 Cycle   2  Pass 1  IDiag  1:
 E= -268.123207458987     Delta-E=        0.065520298612 Rises=F Damp=F
 Switch densities from cycles 1 and 2 for lowest energy.
 DIIS: error= 2.58D-02 at cycle   2 NSaved=   2.
 NSaved= 2 IEnMin= 1 EnMin= -268.188727757599     IErMin= 1 ErrMin= 1.20D-02
 ErrMax= 2.58D-02  0.00D+00 EMaxC= 1.00D+00 BMatC= 1.47D-01 BMatP= 1.38D-02
 IDIUse=1 WtCom= 1.00D+00 WtEn= 0.00D+00
 Coeff-Com:  0.909D+00 0.906D-01
 Coeff:      0.909D+00 0.906D-01
 Gap=     0.446 Goal=   None    Shift=    0.000
 RMSDP=6.61D-03 MaxDP=1.45D-01 DE= 6.55D-02 OVMax= 8.03D-02

 Cycle   3  Pass 1  IDiag  1:
 E= -268.216845293070     Delta-E=       -0.093637834083 Rises=F Damp=F
 DIIS: error= 4.66D-03 at cycle   3 NSaved=   3.
 NSaved= 3 IEnMin= 3 EnMin= -268.216845293070     IErMin= 3 ErrMin= 4.66D-03
 ErrMax= 4.66D-03  0.00D+00 EMaxC= 1.00D+00 BMatC= 1.17D-03 BMatP= 1.38D-02
 IDIUse=1 WtCom= 1.00D+00 WtEn= 0.00D+00
 Coeff-Com: -0.155D+00 0.575D-01 0.110D+01
 Coeff:     -0.155D+00 0.575D-01 0.110D+01
 Gap=     0.425 Goal=   None    Shift=    0.000
 RMSDP=1.42D-03 MaxDP=2.28D-02 DE=-9.36D-02 OVMax= 1.55D-02

 Cycle   4  Pass 1  IDiag  1:
 E= -268.218751792715     Delta-E=       -0.001906499645 Rises=F Damp=F
 DIIS: error= 1.64D-03 at cycle   4 NSaved=   4.
 NSaved= 4 IEnMin= 4 EnMin= -268.218751792715     IErMin= 4 ErrMin= 1.64D-03
 ErrMax= 1.64D-03  0.00D+00 EMaxC= 1.00D+00 BMatC= 2.01D-04 BMatP= 1.17D-03
 IDIUse=1 WtCom= 1.00D+00 WtEn= 0.00D+00
 Coeff-Com: -0.667D-01 0.200D-02 0.352D+00 0.713D+00
 Coeff:     -0.667D-01 0.200D-02 0.352D+00 0.713D+00
 Gap=     0.427 Goal=   None    Shift=    0.000
 RMSDP=4.37D-04 MaxDP=1.13D-02 DE=-1.91D-03 OVMax= 3.11D-03

 Cycle   5  Pass 1  IDiag  1:
 E= -268.218910040191     Delta-E=       -0.000158247476 Rises=F Damp=F
 DIIS: error= 3.90D-04 at cycle   5 NSaved=   5.
 NSaved= 5 IEnMin= 5 EnMin= -268.218910040191     IErMin= 5 ErrMin= 3.90D-04
 ErrMax= 3.90D-04  0.00D+00 EMaxC= 1.00D+00 BMatC= 2.02D-05 BMatP= 2.01D-04
 IDIUse=1 WtCom= 1.00D+00 WtEn= 0.00D+00
 Coeff-Com: -0.101D-01-0.375D-02 0.158D-01 0.269D+00 0.729D+00
 Coeff:     -0.101D-01-0.375D-02 0.158D-01 0.269D+00 0.729D+00
 Gap=     0.426 Goal=   None    Shift=    0.000
 RMSDP=9.89D-05 MaxDP=9.67D-04 DE=-1.58D-04 OVMax= 1.46D-03

 Cycle   6  Pass 1  IDiag  1:
 E= -268.218931617357     Delta-E=       -0.000021577166 Rises=F Damp=F
 DIIS: error= 9.09D-05 at cycle   6 NSaved=   6.
 NSaved= 6 IEnMin= 6 EnMin= -268.218931617357     IErMin= 6 ErrMin= 9.09D-05
 ErrMax= 9.09D-05  0.00D+00 EMaxC= 1.00D+00 BMatC= 1.14D-06 BMatP= 2.02D-05
 IDIUse=1 WtCom= 1.00D+00 WtEn= 0.00D+00
 Coeff-Com:  0.362D-02-0.195D-03-0.315D-01-0.972D-02 0.150D+00 0.888D+00
 Coeff:      0.362D-02-0.195D-03-0.315D-01-0.972D-02 0.150D+00 0.888D+00
 Gap=     0.427 Goal=   None    Shift=    0.000
 RMSDP=6.11D-05 MaxDP=1.06D-03 DE=-2.16D-05 OVMax= 9.26D-04

 Cycle   7  Pass 1  IDiag  1:
 E= -268.218933609047     Delta-E=       -0.000001991690 Rises=F Damp=F
 DIIS: error= 7.38D-05 at cycle   7 NSaved=   7.
 NSaved= 7 IEnMin= 7 EnMin= -268.218933609047     IErMin= 7 ErrMin= 7.38D-05
 ErrMax= 7.38D-05  0.00D+00 EMaxC= 1.00D+00 BMatC= 3.57D-07 BMatP= 1.14D-06
 IDIUse=1 WtCom= 1.00D+00 WtEn= 0.00D+00
 Coeff-Com:  0.270D-02 0.199D-03-0.169D-01-0.276D-01 0.152D-01 0.451D+00
 Coeff-Com:  0.575D+00
 Coeff:      0.270D-02 0.199D-03-0.169D-01-0.276D-01 0.152D-01 0.451D+00
 Coeff:      0.575D+00
 Gap=     0.426 Goal=   None    Shift=    0.000
 RMSDP=1.52D-05 MaxDP=2.40D-04 DE=-1.99D-06 OVMax= 3.07D-04

 Cycle   8  Pass 1  IDiag  1:
 E= -268.218934009330     Delta-E=       -0.000000400283 Rises=F Damp=F
 DIIS: error= 2.85D-05 at cycle   8 NSaved=   8.
 NSaved= 8 IEnMin= 8 EnMin= -268.218934009330     IErMin= 8 ErrMin= 2.85D-05
 ErrMax= 2.85D-05  0.00D+00 EMaxC= 1.00D+00 BMatC= 5.03D-08 BMatP= 3.57D-07
 IDIUse=1 WtCom= 1.00D+00 WtEn= 0.00D+00
 Coeff-Com:  0.248D-03 0.114D-03 0.387D-03-0.751D-02-0.287D-01-0.357D-01
 Coeff-Com:  0.234D+00 0.837D+00
 Coeff:      0.248D-03 0.114D-03 0.387D-03-0.751D-02-0.287D-01-0.357D-01
 Coeff:      0.234D+00 0.837D+00
 Gap=     0.426 Goal=   None    Shift=    0.000
 RMSDP=1.00D-05 MaxDP=1.57D-04 DE=-4.00D-07 OVMax= 2.75D-04

 Cycle   9  Pass 1  IDiag  1:
 E= -268.218934123131     Delta-E=       -0.000000113801 Rises=F Damp=F
 DIIS: error= 1.43D-05 at cycle   9 NSaved=   9.
 NSaved= 9 IEnMin= 9 EnMin= -268.218934123131     IErMin= 9 ErrMin= 1.43D-05
 ErrMax= 1.43D-05  0.00D+00 EMaxC= 1.00D+00 BMatC= 5.81D-09 BMatP= 5.03D-08
 IDIUse=1 WtCom= 1.00D+00 WtEn= 0.00D+00
 Coeff-Com: -0.499D-03-0.482D-04 0.379D-02 0.431D-02-0.109D-01-0.109D+00
 Coeff-Com: -0.554D-01 0.228D+00 0.940D+00
 Coeff:     -0.499D-03-0.482D-04 0.379D-02 0.431D-02-0.109D-01-0.109D+00
 Coeff:     -0.554D-01 0.228D+00 0.940D+00
 Gap=     0.426 Goal=   None    Shift=    0.000
 RMSDP=5.58D-06 MaxDP=9.70D-05 DE=-1.14D-07 OVMax= 1.59D-04

 Cycle  10  Pass 1  IDiag  1:
 E= -268.218934146844     Delta-E=       -0.000000023713 Rises=F Damp=F
 DIIS: error= 2.98D-06 at cycle  10 NSaved=  10.
 NSaved=10 IEnMin=10 EnMin= -268.218934146844     IErMin=10 ErrMin= 2.98D-06
 ErrMax= 2.98D-06  0.00D+00 EMaxC= 1.00D+00 BMatC= 3.16D-10 BMatP= 5.81D-09
 IDIUse=1 WtCom= 1.00D+00 WtEn= 0.00D+00
 Coeff-Com:  0.286D-04 0.462D-05-0.505D-03 0.948D-04 0.472D-02 0.186D-01
 Coeff-Com: -0.201D-01-0.129D+00-0.106D+00 0.123D+01
 Coeff:      0.286D-04 0.462D-05-0.505D-03 0.948D-04 0.472D-02 0.186D-01
 Coeff:     -0.201D-01-0.129D+00-0.106D+00 0.123D+01
 Gap=     0.426 Goal=   None    Shift=    0.000
 RMSDP=1.84D-06 MaxDP=2.29D-05 DE=-2.37D-08 OVMax= 5.79D-05

 Cycle  11  Pass 1  IDiag  1:
 E= -268.218934148876     Delta-E=       -0.000000002032 Rises=F Damp=F
 DIIS: error= 4.47D-07 at cycle  11 NSaved=  11.
 NSaved=11 IEnMin=11 EnMin= -268.218934148876     IErMin=11 ErrMin= 4.47D-07
 ErrMax= 4.47D-07  0.00D+00 EMaxC= 1.00D+00 BMatC= 1.99D-11 BMatP= 3.16D-10
 IDIUse=1 WtCom= 1.00D+00 WtEn= 0.00D+00
 Coeff-Com:  0.253D-04 0.227D-05-0.244D-03-0.175D-03 0.128D-02 0.799D-02
 Coeff-Com: -0.188D-02-0.313D-01-0.593D-01 0.211D+00 0.872D+00
 Coeff:      0.253D-04 0.227D-05-0.244D-03-0.175D-03 0.128D-02 0.799D-02
 Coeff:     -0.188D-02-0.313D-01-0.593D-01 0.211D+00 0.872D+00
 Gap=     0.426 Goal=   None    Shift=    0.000
 RMSDP=2.25D-07 MaxDP=2.01D-06 DE=-2.03D-09 OVMax= 6.32D-06

 Cycle  12  Pass 1  IDiag  1:
 E= -268.218934148930     Delta-E=       -0.000000000055 Rises=F Damp=F
 DIIS: error= 2.01D-07 at cycle  12 NSaved=  12.
 NSaved=12 IEnMin=12 EnMin= -268.218934148930     IErMin=12 ErrMin= 2.01D-07
 ErrMax= 2.01D-07  0.00D+00 EMaxC= 1.00D+00 BMatC= 3.54D-12 BMatP= 1.99D-11
 IDIUse=1 WtCom= 1.00D+00 WtEn= 0.00D+00
 Coeff-Com:  0.301D-05-0.495D-06 0.682D-05-0.593D-04-0.366D-03-0.550D-03
 Coeff-Com:  0.202D-02 0.119D-01-0.707D-03-0.129D+00 0.224D+00 0.893D+00
 Coeff:      0.301D-05-0.495D-06 0.682D-05-0.593D-04-0.366D-03-0.550D-03
 Coeff:      0.202D-02 0.119D-01-0.707D-03-0.129D+00 0.224D+00 0.893D+00
 Gap=     0.426 Goal=   None    Shift=    0.000
 RMSDP=1.17D-07 MaxDP=2.60D-06 DE=-5.48D-11 OVMax= 2.00D-06

 Cycle  13  Pass 1  IDiag  1:
 E= -268.218934148939     Delta-E=       -0.000000000009 Rises=F Damp=F
 DIIS: error= 4.57D-08 at cycle  13 NSaved=  13.
 NSaved=13 IEnMin=13 EnMin= -268.218934148939     IErMin=13 ErrMin= 4.57D-08
 ErrMax= 4.57D-08  0.00D+00 EMaxC= 1.00D+00 BMatC= 1.40D-13 BMatP= 3.54D-12
 IDIUse=1 WtCom= 1.00D+00 WtEn= 0.00D+00
 Coeff-Com: -0.176D-05-0.401D-07 0.169D-04 0.730D-05-0.910D-04-0.508D-03
 Coeff-Com: -0.479D-04 0.271D-02 0.341D-02-0.144D-01-0.587D-01 0.143D-01
 Coeff-Com:  0.105D+01
 Coeff:     -0.176D-05-0.401D-07 0.169D-04 0.730D-05-0.910D-04-0.508D-03
 Coeff:     -0.479D-04 0.271D-02 0.341D-02-0.144D-01-0.587D-01 0.143D-01
 Coeff:      0.105D+01
 Gap=     0.426 Goal=   None    Shift=    0.000
 RMSDP=3.26D-08 MaxDP=7.45D-07 DE=-8.87D-12 OVMax= 3.53D-07

 Cycle  14  Pass 1  IDiag  1:
 E= -268.218934148941     Delta-E=       -0.000000000001 Rises=F Damp=F
 DIIS: error= 8.84D-09 at cycle  14 NSaved=  14.
 NSaved=14 IEnMin=14 EnMin= -268.218934148941     IErMin=14 ErrMin= 8.84D-09
 ErrMax= 8.84D-09  0.00D+00 EMaxC= 1.00D+00 BMatC= 5.26D-15 BMatP= 1.40D-13
 IDIUse=1 WtCom= 1.00D+00 WtEn= 0.00D+00
 Coeff-Com:  0.248D-06 0.271D-07-0.389D-05-0.165D-06 0.351D-04 0.141D-03
 Coeff-Com: -0.122D-03-0.100D-02-0.886D-03 0.884D-02 0.227D-02-0.429D-01
 Coeff-Com: -0.219D+00 0.125D+01
 Coeff:      0.248D-06 0.271D-07-0.389D-05-0.165D-06 0.351D-04 0.141D-03
 Coeff:     -0.122D-03-0.100D-02-0.886D-03 0.884D-02 0.227D-02-0.429D-01
 Coeff:     -0.219D+00 0.125D+01
 Gap=     0.426 Goal=   None    Shift=    0.000
 RMSDP=6.57D-09 MaxDP=8.94D-08 DE=-1.36D-12 OVMax= 9.57D-08

 SCF Done:  E(RwB97XD) =  -268.218934149     A.U. after   14 cycles
            NFock= 14  Conv=0.66D-08     -V/T= 2.0058
 KE= 2.666848794370D+02 PE=-9.865124723324D+02 EE= 2.721713193228D+02
 Leave Link  502 at Wed May 26 08:27:09 2021, MaxMem=  2147483648 cpu:        15.3
 (Enter /opt/cluster/programs/g09_d.01/g09/l701.exe)
 Compute integral first derivatives.
 ... and contract with generalized density number  0.
 R6Disp: Adding Grimme-D2 dispersion energy 1st derivatives to the gradient.
 Leave Link  701 at Wed May 26 08:27:09 2021, MaxMem=  2147483648 cpu:         0.6
 (Enter /opt/cluster/programs/g09_d.01/g09/l702.exe)
 L702 exits ... SP integral derivatives will be done elsewhere.
 Leave Link  702 at Wed May 26 08:27:09 2021, MaxMem=  2147483648 cpu:         0.2
 (Enter /opt/cluster/programs/g09_d.01/g09/l703.exe)
 Compute integral first derivatives, UseDBF=F ICtDFT=           0.
 Integral derivatives from FoFJK, PRISM(SPDF).
 Calling FoFJK, ICntrl=      2127 FMM=F ISym2X=0 I1Cent= 0 IOpClX= 0 NMat=1 NMatS=1 NMatT=0.
 FoFJK:  IHMeth= 1 ICntrl=    2127 DoSepK=T KAlg= 0 I1Cent=   0 FoldK=F
 IRaf=         1 NMat=   1 IRICut=       1 DoRegI=T DoRafI=F ISym2E= 0.
 FoFCou: FMM=F IPFlag=           0 FMFlag=      100000 FMFlg1=         800
         NFxFlg=           0 DoJE=F BraDBF=F KetDBF=F FulRan=T
         wScrn=  0.000000 ICntrl=    2527 IOpCl=  0 I1Cent=           0 NGrid=           0
         NMat0=    1 NMatS0=      1 NMatT0=    0 NMatD0=    1 NMtDS0=    0 NMtDT0=    0
 Symmetry not used in FoFCou.
 Leave Link  703 at Wed May 26 08:27:09 2021, MaxMem=  2147483648 cpu:         3.6
 (Enter /opt/cluster/programs/g09_d.01/g09/l716.exe)
 Dipole        =-2.05665853D-01-7.70817238D-01-1.71604576D-01
 ***** Axes restored to original set *****
 -------------------------------------------------------------------
 Center     Atomic                   Forces (Hartrees/Bohr)
 Number     Number              X              Y              Z
 -------------------------------------------------------------------
      1        6          -0.005042094   -0.004512096    0.005619782
      2        6           0.007649400    0.012613463   -0.008281813
      3        1          -0.000026955    0.001404298    0.000705950
      4        1          -0.000396919   -0.000656634    0.000220672
      5        1          -0.000122568   -0.001122140   -0.000682356
      6        8           0.001952719    0.001119737   -0.001395406
      7        8          -0.000711606   -0.004199089    0.001646552
      8        6          -0.004046980   -0.005364490    0.001568161
      9        1           0.001319906    0.000283388   -0.000013610
     10        1          -0.000013905   -0.000002509   -0.000282609
     11        1          -0.000560999    0.000436073    0.000894676
 -------------------------------------------------------------------
 Cartesian Forces:  Max     0.012613463 RMS     0.003680827
 Leave Link  716 at Wed May 26 08:27:09 2021, MaxMem=  2147483648 cpu:         0.2
 (Enter /opt/cluster/programs/g09_d.01/g09/l103.exe)

 GradGradGradGradGradGradGradGradGradGradGradGradGradGradGradGradGradGrad
 Berny optimization.
 FormGI is forming the generalized inverse of G from B-inverse, IUseBI=4.
 Internal  Forces:  Max     0.009988391 RMS     0.002513971
 Search for a local minimum.
 Step number   1 out of a maximum of   47 on scan point     2 out of    18
 All quantities printed in internal units (Hartrees-Bohrs-Radians)
 RMS Force = .14283D-02 SwitMx=.10000D-02 MixMth= 1
 Mixed Optimization -- RFO/linear search
 Second derivative matrix not updated -- first step.
 ITU=  0
     Eigenvalues ---    0.00806   0.00875   0.01365   0.07444   0.07533
     Eigenvalues ---    0.10138   0.10634   0.16000   0.16000   0.16000
     Eigenvalues ---    0.16000   0.16000   0.16000   0.24787   0.25000
     Eigenvalues ---    0.25000   0.32694   0.34338   0.34489   0.34642
     Eigenvalues ---    0.34650   0.34858   0.35144   0.36746   0.51633
     Eigenvalues ---    0.903961000.000001000.000001000.000001000.00000
     Eigenvalues --- 1000.000001000.000001000.000001000.000001000.00000
     Eigenvalues --- 1000.000001000.00000
 RFO step:  Lambda=-2.01390856D-03 EMin= 8.05654684D-03
 Linear search not attempted -- first point.
 Iteration  1 RMS(Cart)=  0.05385500 RMS(Int)=  0.00345297
 Iteration  2 RMS(Cart)=  0.00470553 RMS(Int)=  0.00197267
 Iteration  3 RMS(Cart)=  0.00001468 RMS(Int)=  0.00197264
 Iteration  4 RMS(Cart)=  0.00000002 RMS(Int)=  0.00197264
 Iteration  1 RMS(Cart)=  0.00038018 RMS(Int)=  0.00012971
 Iteration  2 RMS(Cart)=  0.00014515 RMS(Int)=  0.00014421
 Iteration  3 RMS(Cart)=  0.00005542 RMS(Int)=  0.00015623
 Iteration  4 RMS(Cart)=  0.00002116 RMS(Int)=  0.00016153
 Iteration  5 RMS(Cart)=  0.00000808 RMS(Int)=  0.00016364
 Iteration  6 RMS(Cart)=  0.00000308 RMS(Int)=  0.00016446
 Iteration  7 RMS(Cart)=  0.00000118 RMS(Int)=  0.00016478
 Iteration  8 RMS(Cart)=  0.00000045 RMS(Int)=  0.00016490
 ITry= 1 IFail=0 DXMaxC= 1.21D-01 DCOld= 1.00D+10 DXMaxT= 3.00D-01 DXLimC= 3.00D+00 Rises=F
 Variable       Old X    -DE/DX   Delta X   Delta X   Delta X     New X
                                 (Linear)    (Quad)   (Total)
    R1        2.83093   0.00092   0.00000   0.00279   0.00279   2.83372
    R2        2.06883   0.00015   0.00000   0.00044   0.00044   2.06927
    R3        2.05940  -0.00019   0.00000  -0.00054  -0.00054   2.05887
    R4        2.06610  -0.00079   0.00000  -0.00228  -0.00228   2.06382
    R5        2.58251   0.00089   0.00000   0.00171   0.00171   2.58422
    R6        2.32750  -0.00033   0.00000  -0.00036  -0.00036   2.32713
    R7        2.76475  -0.00023   0.00000  -0.00062  -0.00062   2.76413
    R8        2.06504  -0.00103   0.00000  -0.00297  -0.00297   2.06208
    R9        2.05461  -0.00015   0.00000  -0.00042  -0.00042   2.05419
   R10        2.06494  -0.00061   0.00000  -0.00176  -0.00176   2.06318
    A1        1.91597   0.00263   0.00000   0.01711   0.01712   1.93310
    A2        1.90966  -0.00044   0.00000  -0.00284  -0.00287   1.90679
    A3        1.92490  -0.00188   0.00000  -0.01237  -0.01237   1.91253
    A4        1.91157  -0.00083   0.00000  -0.00360  -0.00361   1.90796
    A5        1.87910  -0.00035   0.00000  -0.00191  -0.00186   1.87724
    A6        1.92243   0.00089   0.00000   0.00379   0.00376   1.92618
    A7        1.94592   0.00217   0.00000   0.01596   0.00912   1.95504
    A8        2.18415   0.00278   0.00000   0.01571   0.00876   2.19291
    A9        2.14536  -0.00407   0.00000  -0.00634  -0.01310   2.13225
   A10        2.04660   0.00054   0.00000   0.00214   0.00214   2.04874
   A11        1.92007   0.00159   0.00000   0.01029   0.01029   1.93036
   A12        1.82725   0.00039   0.00000   0.00244   0.00243   1.82968
   A13        1.92094  -0.00185   0.00000  -0.01198  -0.01198   1.90896
   A14        1.94009  -0.00039   0.00000  -0.00120  -0.00122   1.93887
   A15        1.91331   0.00012   0.00000   0.00066   0.00068   1.91398
   A16        1.94078   0.00016   0.00000  -0.00019  -0.00020   1.94058
    D1       -1.21077   0.00389   0.00000   0.13306   0.13358  -1.07719
    D2        2.06163  -0.00318   0.00000  -0.07869  -0.07916   1.98247
    D3        2.97419   0.00356   0.00000   0.12869   0.12920   3.10338
    D4       -0.03659  -0.00351   0.00000  -0.08306  -0.08355  -0.12014
    D5        0.85694   0.00394   0.00000   0.13371   0.13416   0.99111
    D6       -2.15383  -0.00313   0.00000  -0.07805  -0.07858  -2.23242
    D7       -2.80325  -0.00999   0.00000   0.00000   0.00000  -2.80325
    D8        0.21093  -0.00252   0.00000   0.20813   0.20607   0.41699
    D9       -1.06838  -0.00004   0.00000  -0.02011  -0.02008  -1.08846
   D10        3.12888  -0.00060   0.00000  -0.02531  -0.02532   3.10356
   D11        1.04170  -0.00007   0.00000  -0.02038  -0.02040   1.02130
         Item               Value     Threshold  Converged?
 Maximum Force            0.003714     0.000450     NO 
 RMS     Force            0.001428     0.000300     NO 
 Maximum Displacement     0.120787     0.001800     NO 
 RMS     Displacement     0.055208     0.001200     NO 
 Predicted change in Energy=-1.167075D-03
 Lowest energy point so far.  Saving SCF results.
 GradGradGradGradGradGradGradGradGradGradGradGradGradGradGradGradGradGrad

 Leave Link  103 at Wed May 26 08:27:09 2021, MaxMem=  2147483648 cpu:         0.1
 (Enter /opt/cluster/programs/g09_d.01/g09/l202.exe)
                          Input orientation:                          
 ---------------------------------------------------------------------
 Center     Atomic      Atomic             Coordinates (Angstroms)
 Number     Number       Type             X           Y           Z
 ---------------------------------------------------------------------
      1          6           0       -3.031502    1.848316    1.375093
      2          6           0       -2.741432    0.730038    0.419093
      3          1           0       -3.300166    1.455852    2.361421
      4          1           0       -3.855851    2.446664    0.988503
      5          1           0       -2.138929    2.465514    1.498040
      6          8           0       -1.681001   -0.030998    0.827002
      7          8           0       -3.409855    0.444059   -0.574857
      8          6           0       -1.019375   -0.858540   -0.181444
      9          1           0       -1.711434   -1.599999   -0.583957
     10          1           0       -0.197659   -1.336231    0.346031
     11          1           0       -0.652795   -0.221675   -0.988925
 ---------------------------------------------------------------------
                    Distance matrix (angstroms):
                    1          2          3          4          5
     1  C    0.000000
     2  C    1.499541   0.000000
     3  H    1.095012   2.147470   0.000000
     4  H    1.089505   2.124373   1.781965   0.000000
     5  H    1.092124   2.130496   1.764459   1.791034   0.000000
     6  O    2.378252   1.367509   2.680832   3.300737   2.625369
     7  O    2.432569   1.231466   3.107650   2.579425   3.162029
     8  C    3.714638   2.418617   4.126086   4.509850   3.888882
     9  H    4.179873   2.737897   4.531838   4.842173   4.587577
    10  H    4.385314   3.278046   4.634984   5.301455   4.421415
    11  H    3.941027   2.692708   4.587754   4.614089   3.951528
                    6          7          8          9         10
     6  O    0.000000
     7  O    2.275922   0.000000
     8  C    1.462716   2.750624   0.000000
     9  H    2.110331   2.657610   1.091203   0.000000
    10  H    2.033536   3.786247   1.087030   1.796097   0.000000
    11  H    2.095509   2.866362   1.091789   1.784515   1.797635
                   11
    11  H    0.000000
 Stoichiometry    C3H6O2
 Framework group  C1[X(C3H6O2)]
 Deg. of freedom    27
 Full point group                 C1      NOp   1
 RotChk:  IX=2 Diff= 3.52D-02
 Largest Abelian subgroup         C1      NOp   1
 Largest concise Abelian subgroup C1      NOp   1
                         Standard orientation:                         
 ---------------------------------------------------------------------
 Center     Atomic      Atomic             Coordinates (Angstroms)
 Number     Number       Type             X           Y           Z
 ---------------------------------------------------------------------
      1          6           0        1.782968   -0.569163   -0.081104
      2          6           0        0.483193    0.171673    0.020726
      3          1           0        1.988867   -1.120420    0.842353
      4          1           0        2.588224    0.141640   -0.263709
      5          1           0        1.726839   -1.296779   -0.893606
      6          8           0       -0.575966   -0.674001    0.202659
      7          8           0        0.354369    1.396300    0.034875
      8          6           0       -1.908943   -0.159984   -0.111183
      9          1           0       -2.156807    0.684061    0.534477
     10          1           0       -2.578905   -0.997573    0.065536
     11          1           0       -1.938752    0.155523   -1.155965
 ---------------------------------------------------------------------
 Rotational constants (GHZ):      9.8358549      4.0371090      3.0025565
 Leave Link  202 at Wed May 26 08:27:09 2021, MaxMem=  2147483648 cpu:         0.0
 (Enter /opt/cluster/programs/g09_d.01/g09/l301.exe)
 Standard basis: 6-31+G (6D, 7F)
 Ernie: Thresh=  0.10000D-02 Tol=  0.10000D-05 Strict=F.
 There are    77 symmetry adapted cartesian basis functions of A   symmetry.
 There are    77 symmetry adapted basis functions of A   symmetry.
    77 basis functions,   154 primitive gaussians,    77 cartesian basis functions
    20 alpha electrons       20 beta electrons
       nuclear repulsion energy       179.2515489445 Hartrees.
 IExCor= 4639 DFT=T Ex+Corr=wB97XD ExCW=0 ScaHFX=  1.000000
 ScaDFX=  1.000000  1.000000  1.000000  1.000000 ScalE2=  1.000000  1.000000
 IRadAn=      0 IRanWt=     -1 IRanGd=            0 ICorTp=0 IEmpDi=121
  HFx wShort=  0.000000 wLong=  0.200000 cFull=  0.222036 cShort=  0.000000 cLong=  0.777964
  DFx wShort=  0.000000 wLong=  0.200000 cFull=  0.000000 cShort=  0.000000 cLong=  1.000000
 NAtoms=   11 NActive=   11 NUniq=   11 SFac= 1.00D+00 NAtFMM=   60 NAOKFM=F Big=F
 Integral buffers will be    131072 words long.
 Raffenetti 2 integral format.
 Two-electron integral symmetry is turned on.
 R6Disp:  Grimme-D2 Dispersion energy=       -0.0031010325 Hartrees.
 Nuclear repulsion after empirical dispersion term =      179.2484479120 Hartrees.
 Leave Link  301 at Wed May 26 08:27:09 2021, MaxMem=  2147483648 cpu:         0.3
 (Enter /opt/cluster/programs/g09_d.01/g09/l302.exe)
 NPDir=0 NMtPBC=     1 NCelOv=     1 NCel=       1 NClECP=     1 NCelD=      1
         NCelK=      1 NCelE2=     1 NClLst=     1 CellRange=     0.0.
 One-electron integrals computed using PRISM.
 NBasis=    77 RedAO= T EigKep=  8.33D-05  NBF=    77
 NBsUse=    77 1.00D-06 EigRej= -1.00D+00 NBFU=    77
 Precomputing XC quadrature grid using
 IXCGrd= 4 IRadAn=           0 IRanWt=          -1 IRanGd=           0 AccXCQ= 0.00D+00.
 Generated NRdTot=       0 NPtTot=           0 NUsed=           0 NTot=          32
 NSgBfM=    77    77    77    77    77 MxSgAt=    11 MxSgA2=    11.
 Leave Link  302 at Wed May 26 08:27:10 2021, MaxMem=  2147483648 cpu:         0.9
 (Enter /opt/cluster/programs/g09_d.01/g09/l303.exe)
 DipDrv:  MaxL=1.
 Leave Link  303 at Wed May 26 08:27:10 2021, MaxMem=  2147483648 cpu:         0.3
 (Enter /opt/cluster/programs/g09_d.01/g09/l401.exe)
 Initial guess from the checkpoint file:  "/home/unibas/boittier/RDKit_G2/O.pdb/SCAN_1_2_6_8_S_17_20.0/O.pdb.chk"
 B after Tr=     0.000000    0.000000    0.000000
         Rot=    0.999982    0.005641    0.001064    0.001613 Ang=   0.68 deg.
 Guess basis will be translated and rotated to current coordinates.
 JPrj=2 DoOrth=T DoCkMO=T.
 Generating alternative initial guess.
 ExpMin= 4.38D-02 ExpMax= 5.48D+03 ExpMxC= 8.25D+02 IAcc=2 IRadAn=         4 AccDes= 0.00D+00
 Harris functional with IExCor= 4639 and IRadAn=       4 diagonalized for initial guess.
 HarFok:  IExCor= 4639 AccDes= 0.00D+00 IRadAn=         4 IDoV= 1 UseB2=F ITyADJ=14
 ICtDFT=  3500011 ScaDFX=  1.000000  1.000000  1.000000  1.000000
 FoFCou: FMM=F IPFlag=           0 FMFlag=      100000 FMFlg1=           0
         NFxFlg=           0 DoJE=T BraDBF=F KetDBF=T FulRan=T
         wScrn=  0.000000 ICntrl=     500 IOpCl=  0 I1Cent=   200000004 NGrid=           0
         NMat0=    1 NMatS0=      1 NMatT0=    0 NMatD0=    1 NMtDS0=    0 NMtDT0=    0
 Petite list used in FoFCou.
 Harris En= -257.367070728211    
 Leave Link  401 at Wed May 26 08:27:10 2021, MaxMem=  2147483648 cpu:         1.8
 (Enter /opt/cluster/programs/g09_d.01/g09/l502.exe)
 Closed shell SCF:
 Using DIIS extrapolation, IDIIS=  1040.
 Integral symmetry usage will be decided dynamically.
 Keep R1 ints in memory in canonical form, NReq=9956864.
 IVT=       37546 IEndB=       37546 NGot=  2147483648 MDV=  2138425091
 LenX=  2138425091 LenY=  2138418721
 Requested convergence on RMS density matrix=1.00D-08 within 128 cycles.
 Requested convergence on MAX density matrix=1.00D-06.
 Requested convergence on             energy=1.00D-06.
 No special actions if energy rises.
 FoFCou: FMM=F IPFlag=           0 FMFlag=           0 FMFlg1=           0
[...]
           D1         -65.39638 -42.58414 -43.82954 -47.07434 -56.94006
           D2         114.19858 141.87156 142.72930 137.86156 123.71245
           D3         174.37357-164.89936-166.53201-169.75263-178.50122
           D4          -6.03147  19.55634  20.02683  15.18327   2.15129
           D5          53.04352  75.76926  74.05183  70.47768  60.56108
           D6        -127.36152 -99.77504 -99.38932-104.58642-118.78641
           D7         179.38539-160.61464-140.61465-120.61465-100.61464
           D8          -0.22650  15.10584  33.06635  54.64419  78.76418
           D9         -61.18761 -66.26119 -63.63717 -51.35218 -57.25133
           D10        179.27253 174.10388 176.68384-170.81485-176.22953
           D11         59.66487  54.61713  57.74240  70.68170  65.11426
                           6         7         8         9        10
     Eigenvalues --  -268.19953-268.20143-268.20511-268.20779-268.20869
           R1           1.50155   1.50555   1.50725   1.50746   1.50753
           R2           1.09485   1.09384   1.09445   1.09507   1.09481
           R3           1.08970   1.08961   1.08942   1.08922   1.08924
           R4           1.09439   1.09548   1.09536   1.09473   1.09472
           R5           1.39396   1.38730   1.38037   1.37604   1.37460
           R6           1.22173   1.22215   1.22321   1.22418   1.22458
           R7           1.45818   1.45763   1.45648   1.45475   1.45393
           R8           1.09336   1.09329   1.09329   1.09340   1.09334
           R9           1.08742   1.08742   1.08751   1.08757   1.08754
           R10          1.09558   1.09498   1.09430   1.09359   1.09332
           A1         108.92239 109.61370 110.18628 110.57929 111.30423
           A2         110.09785 109.33005 108.71214 108.38979 108.23031
           A3         111.15009 111.45806 111.66131 111.79879 111.39323
           A4         109.59098 109.87951 109.63829 109.19273 108.94867
           A5         107.38861 107.88239 107.98635 107.94119 107.94978
           A6         109.63761 108.65288 108.62722 108.89783 108.96541
           A7         114.33454 115.61665 116.62335 117.49957 117.90506
           A8         125.01411 124.43323 124.11826 123.89444 123.79007
           A9         120.46144 119.59489 118.96435 118.49713 118.30474
           A10        118.69840 119.60978 120.27175 121.39563 121.93029
           A11        109.95869 110.05145 110.31333 110.61041 111.04057
           A12        105.26830 105.05260 104.85876 104.67021 104.61335
           A13        111.16680 111.47371 111.46852 111.42245 111.11559
           A14        110.06095 109.86624 109.87285 109.80644 109.74779
           A15        110.45370 110.58805 110.49582 110.44090 110.41471
           A16        109.81332 109.66629 109.68604 109.73842 109.75480
           D1         -63.92309 -50.30424 -50.52504 -57.48071 -60.55585
           D2         111.06402 122.79893 123.16497 118.66089 119.31127
           D3         175.88623-170.80551-170.69659-177.14244 179.74795
           D4          -9.12666   2.29767   2.99342  -1.00085  -0.38494
           D5          54.20000  69.05778  69.47617  62.82032  59.97751
           D6        -130.81289-117.83904-116.83382-121.03808-120.15538
           D7         -80.61458 -60.61455 -40.61455 -20.61456  -0.61461
           D8         104.14787 125.92571 145.35492 163.02941 179.51083
           D9         -62.89921 -59.05582 -57.72828 -60.95084 -62.08556
           D10        178.58361-177.26968-175.97233-179.15847 179.59307
           D11         59.73634  64.02615  65.41780  62.30434  61.22558
                          11        12        13        14        15
     Eigenvalues --  -268.20790-268.20532-268.20165-268.19955-268.20079
           R1           1.50746   1.50727   1.50570   1.50182   1.49826
           R2           1.09471   1.09533   1.09557   1.09432   1.09544
           R3           1.08922   1.08939   1.08961   1.08967   1.08973
           R4           1.09507   1.09452   1.09381   1.09490   1.09406
           R5           1.37588   1.37998   1.38687   1.39326   1.39377
           R6           1.22422   1.22328   1.22220   1.22178   1.22314
           R7           1.45465   1.45638   1.45766   1.45789   1.45983
           R8           1.09357   1.09425   1.09498   1.09555   1.09531
           R9           1.08758   1.08752   1.08742   1.08743   1.08734
           R10          1.09340   1.09330   1.09328   1.09334   1.09333
           A1         111.78727 111.67725 111.43823 111.25225 109.54830
           A2         108.37679 108.68572 109.28653 110.06808 110.37946
           A3         110.61723 110.20839 109.68132 108.88552 109.78148
           A4         108.90380 108.64375 108.61420 109.61644 109.80016
           A5         107.93831 107.98434 107.90457 107.39899 107.24740
           A6         109.17563 109.61150 109.89209 109.56578 110.02796
           A7         117.54214 116.68536 115.67388 114.43944 113.19338
           A8         123.88441 124.09857 124.41222 124.94636 125.54978
           A9         118.47552 118.93186 119.55752 120.40343 121.25608
           A10        121.45587 120.34177 119.58707 118.89034 117.72141
           A11        111.40127 111.47249 111.45577 111.21672 110.25599
           A12        104.65978 104.84288 105.04090 105.26906 105.38407
           A13        110.65645 110.33377 110.08405 109.93412 110.23564
           A14        109.73498 109.68940 109.66121 109.79922 110.01124
           A15        110.43528 110.48450 110.58137 110.45335 110.58784
           A16        109.80072 109.87222 109.87514 110.04888 110.24674
           D1         -62.56034 -69.11596 -69.78989 -54.01842 -59.86610
           D2         121.10011 117.08973 117.12022 131.26402 119.81837
           D3         177.41061 171.04366 170.16277-175.72596 179.11201
           D4           1.07106  -2.75065  -2.92713   9.55648  -1.20352
           D5          57.75524  50.90800  49.63134  64.15530  57.65448
           D6        -118.58431-122.88631-123.45855-110.56226-122.66105
           D7          19.38535  39.38537  59.38533  79.38536  99.38545
           D8        -164.07139-146.48500-127.16674-105.63428 -80.31425
           D9         -62.50748 -65.40382 -64.58058 -59.45454 -64.35750
           D10        178.97640 175.98966 176.73764-178.31163 176.96634
           D11         60.75845  57.74507  58.50350  63.19746  58.02174
                          16        17        18
     Eigenvalues --  -268.20610-268.21329-268.21943
           R1           1.49721   1.49712   1.49676
           R2           1.09594   1.09538   1.09505
           R3           1.08986   1.08993   1.08993
           R4           1.09264   1.09219   1.09193
           R5           1.38548   1.37554   1.36858
           R6           1.22646   1.22945   1.23126
           R7           1.46183   1.46318   1.46233
           R8           1.09371   1.09269   1.09188
           R9           1.08728   1.08709   1.08715
           R10          1.09232   1.09115   1.09112
           A1         108.27253 108.08925 108.68806
           A2         110.40845 110.18725 109.77467
           A3         110.76160 111.04560 110.95608
           A4         109.45750 109.34783 109.15705
           A5         107.41902 107.63654 107.77274
           A6         110.43975 110.45451 110.43475
           A7         112.46280 111.96454 111.76794
           A8         125.42654 125.42889 125.73488
           A9         121.93385 122.27314 122.32756
           A10        117.97223 117.66523 117.32535
           A11        109.23069 109.25004 109.67535
           A12        105.43381 104.92438 104.77990
           A13        110.51853 110.72789 110.39218
           A14        110.29307 110.83206 111.22895
           A15        110.72863 110.11124 109.62825
           A16        110.50351 110.88034 111.04741
           D1         -70.11988 -73.92642 -75.75312
           D2         105.10251  99.53773  99.57995
           D3         170.06910 166.63840 164.92340
           D4         -14.70851 -19.89745 -19.74353
           D5          47.41704  43.92606  42.58014
           D6        -137.36056-142.60979-142.08680
           D7         119.38544 139.38544 159.38544
           D8         -56.02766 -34.31682 -16.13179
           D9         -70.17883 -58.86020 -54.17788
           D10        171.30756-177.73652-173.65297
           D11         51.88106  62.57711  66.72062
 Largest change from initial coordinates is atom   11       0.304 Angstoms.
 Leave Link  103 at Wed May 26 08:32:23 2021, MaxMem=  2147483648 cpu:         0.1
 (Enter /opt/cluster/programs/g09_d.01/g09/l202.exe)
                          Input orientation:                          
 ---------------------------------------------------------------------
 Center     Atomic      Atomic             Coordinates (Angstroms)
 Number     Number       Type             X           Y           Z
 ---------------------------------------------------------------------
      1          6           0       -3.126210    2.046406    0.431501
      2          6           0       -2.714482    0.652144    0.787612
      3          1           0       -2.307601    2.728971    0.682717
      4          1           0       -4.012514    2.325973    1.000930
      5          1           0       -3.317586    2.135504   -0.639833
      6          8           0       -1.828149    0.137398   -0.119289
      7          8           0       -3.040025    0.044635    1.807884
      8          6           0       -0.999613   -0.986445    0.315338
      9          1           0       -0.471031   -0.720247    1.232915
     10          1           0       -0.305511   -1.152732   -0.504698
     11          1           0       -1.617277   -1.868607    0.490924
 ---------------------------------------------------------------------
                    Distance matrix (angstroms):
                    1          2          3          4          5
     1  C    0.000000
     2  C    1.496763   0.000000
     3  H    1.095045   2.118906   0.000000
     4  H    1.089928   2.128872   1.780560   0.000000
     5  H    1.091933   2.145155   1.766751   1.792011   0.000000
     6  O    2.373320   1.368583   2.754876   3.288800   2.545942
     7  O    2.430832   1.231260   3.001350   2.607952   3.231113
     8  C    3.705954   2.418428   3.956022   4.529870   4.003988
     9  H    3.917475   2.667363   3.946240   4.677112   4.445827
    10  H    4.366611   3.275788   4.526139   5.301903   4.461318
    11  H    4.196158   2.765153   4.653069   4.857136   4.494727
                    6          7          8          9         10
     6  O    0.000000
     7  O    2.278431   0.000000
     8  C    1.462325   2.730220   0.000000
     9  H    2.098995   2.741417   1.091883   0.000000
    10  H    2.032585   3.776148   1.087147   1.798260   0.000000
    11  H    2.107340   2.723801   1.091123   1.784142   1.795681
                   11
    11  H    0.000000
 Stoichiometry    C3H6O2
 Framework group  C1[X(C3H6O2)]
 Deg. of freedom    27
 Full point group                 C1      NOp   1
 RotChk:  IX=0 Diff= 2.21D-15
 Largest Abelian subgroup         C1      NOp   1
 Largest concise Abelian subgroup C1      NOp   1
                         Standard orientation:                         
 ---------------------------------------------------------------------
 Center     Atomic      Atomic             Coordinates (Angstroms)
 Number     Number       Type             X           Y           Z
 ---------------------------------------------------------------------
      1          6           0        1.782306   -0.560598    0.083436
      2          6           0        0.486932    0.172462   -0.074462
      3          1           0        1.845395   -0.945089    1.106818
      4          1           0        2.615047    0.119561   -0.095076
      5          1           0        1.833941   -1.413251   -0.596738
      6          8           0       -0.571927   -0.687017   -0.189058
      7          8           0        0.340814    1.393882   -0.021701
      8          6           0       -1.901593   -0.157873    0.111588
      9          1           0       -1.901824    0.292312    1.106345
     10          1           0       -2.559828   -1.022121    0.070472
     11          1           0       -2.189692    0.589722   -0.629121
 ---------------------------------------------------------------------
 Rotational constants (GHZ):      9.8399264      4.0597330      3.0146803
 Leave Link  202 at Wed May 26 08:32:23 2021, MaxMem=  2147483648 cpu:         0.0
 (Enter /opt/cluster/programs/g09_d.01/g09/l601.exe)
 Copying SCF densities to generalized density rwf, IOpCl= 0 IROHF=0.

 **********************************************************************

            Population analysis using the SCF density.

 **********************************************************************

 Orbital symmetries:
       Occupied  (A) (A) (A) (A) (A) (A) (A) (A) (A) (A) (A) (A)
                 (A) (A) (A) (A) (A) (A) (A) (A)
       Virtual   (A) (A) (A) (A) (A) (A) (A) (A) (A) (A) (A) (A)
                 (A) (A) (A) (A) (A) (A) (A) (A) (A) (A) (A) (A)
                 (A) (A) (A) (A) (A) (A) (A) (A) (A) (A) (A) (A)
                 (A) (A) (A) (A) (A) (A) (A) (A) (A) (A) (A) (A)
                 (A) (A) (A) (A) (A) (A) (A) (A) (A)
 The electronic state is 1-A.
 Alpha  occ. eigenvalues --  -19.32465 -19.27655 -10.45043 -10.35641 -10.31071
 Alpha  occ. eigenvalues --   -1.22365  -1.13512  -0.88087  -0.81419  -0.66542
 Alpha  occ. eigenvalues --   -0.59625  -0.58576  -0.56878  -0.52941  -0.51651
 Alpha  occ. eigenvalues --   -0.49557  -0.46280  -0.44208  -0.39057  -0.36739
 Alpha virt. eigenvalues --    0.05979   0.07222   0.08050   0.10088   0.10214
 Alpha virt. eigenvalues --    0.11176   0.12783   0.13203   0.15375   0.15848
 Alpha virt. eigenvalues --    0.16566   0.19808   0.20696   0.22691   0.24751
 Alpha virt. eigenvalues --    0.26548   0.26590   0.27711   0.30279   0.31330
 Alpha virt. eigenvalues --    0.33544   0.34399   0.35879   0.36315   0.37252
 Alpha virt. eigenvalues --    0.40519   0.41511   0.42475   0.43524   0.46315
 Alpha virt. eigenvalues --    0.55584   0.72525   0.74486   0.75683   0.76002
 Alpha virt. eigenvalues --    0.80089   0.82048   0.82931   0.91691   0.94982
 Alpha virt. eigenvalues --    1.06686   1.09794   1.13090   1.15467   1.18343
 Alpha virt. eigenvalues --    1.21172   1.25388   1.28299   1.29062   1.36968
 Alpha virt. eigenvalues --    1.40306   1.45842   1.48027   1.53004   1.63286
 Alpha virt. eigenvalues --    1.98504   2.00426
          Condensed to atoms (all electrons):
               1          2          3          4          5          6
     1  C    7.365719  -1.025385   0.359301   0.359447   0.358279  -0.611066
     2  C   -1.025385   6.262200  -0.015265  -0.022782  -0.024453   0.253520
     3  H    0.359301  -0.015265   0.459512  -0.021126  -0.021854  -0.001271
     4  H    0.359447  -0.022782  -0.021126   0.461069  -0.023320   0.011111
     5  H    0.358279  -0.024453  -0.021854  -0.023320   0.462794   0.002083
     6  O   -0.611066   0.253520  -0.001271   0.011111   0.002083   8.957631
     7  O   -0.029566   0.257552  -0.003249  -0.005806   0.005364  -0.246895
     8  C   -0.063893  -0.095665  -0.000569   0.000385  -0.000008   0.061657
     9  H    0.000991  -0.004230   0.000052  -0.000006   0.000001  -0.043850
    10  H    0.001319   0.006787  -0.000004   0.000001  -0.000012  -0.062677
    11  H   -0.006047  -0.005810  -0.000011   0.000012   0.000000  -0.027269
               7          8          9         10         11
     1  C   -0.029566  -0.063893   0.000991   0.001319  -0.006047
     2  C    0.257552  -0.095665  -0.004230   0.006787  -0.005810
     3  H   -0.003249  -0.000569   0.000052  -0.000004  -0.000011
     4  H   -0.005806   0.000385  -0.000006   0.000001   0.000012
     5  H    0.005364  -0.000008   0.000001  -0.000012   0.000000
     6  O   -0.246895   0.061657  -0.043850  -0.062677  -0.027269
     7  O    8.495694  -0.031800   0.003140   0.000488   0.002389
     8  C   -0.031800   5.314611   0.386953   0.399261   0.383438
     9  H    0.003140   0.386953   0.500812  -0.026963  -0.032918
    10  H    0.000488   0.399261  -0.026963   0.489900  -0.027512
    11  H    0.002389   0.383438  -0.032918  -0.027512   0.485567
 Mulliken charges:
               1
     1  C   -0.709098
     2  C    0.413531
     3  H    0.244486
     4  H    0.241017
     5  H    0.241125
     6  O   -0.292974
     7  O   -0.447309
     8  C   -0.354368
     9  H    0.216018
    10  H    0.219412
    11  H    0.228161
 Sum of Mulliken charges =   0.00000
 Mulliken charges with hydrogens summed into heavy atoms:
               1
     1  C    0.017530
     2  C    0.413531
     6  O   -0.292974
     7  O   -0.447309
     8  C    0.309222
 Electronic spatial extent (au):  <R**2>=            437.3995
 Charge=              0.0000 electrons
 Dipole moment (field-independent basis, Debye):
    X=             -0.4875    Y=             -1.9730    Z=              0.5987  Tot=              2.1187
 Quadrupole moment (field-independent basis, Debye-Ang):
   XX=            -23.1206   YY=            -36.6857   ZZ=            -29.6198
   XY=             -2.0785   XZ=             -0.3891   YZ=             -0.5501
 Traceless Quadrupole moment (field-independent basis, Debye-Ang):
   XX=              6.6881   YY=             -6.8770   ZZ=              0.1889
   XY=             -2.0785   XZ=             -0.3891   YZ=             -0.5501
 Octapole moment (field-independent basis, Debye-Ang**2):
  XXX=             -7.2547  YYY=             -6.8602  ZZZ=              0.8823  XYY=             -1.7719
  XXY=             -2.2963  XXZ=              0.2336  XZZ=             -0.2991  YZZ=              0.3903
  YYZ=             -0.2767  XYZ=              0.2107
 Hexadecapole moment (field-independent basis, Debye-Ang**3):
 XXXX=           -347.6694 YYYY=           -156.0905 ZZZZ=            -42.7349 XXXY=              7.9793
 XXXZ=             -0.1383 YYYX=             -1.8436 YYYZ=              0.8154 ZZZX=              0.6357
 ZZZY=             -0.5760 XXYY=            -82.9259 XXZZ=            -68.8756 YYZZ=            -30.6730
 XXYZ=             -0.9628 YYXZ=             -0.4820 ZZXY=             -2.3790
 N-N= 1.794268602560D+02 E-N=-9.864925558194D+02  KE= 2.666868032330D+02
 No NMR shielding tensors so no spin-rotation constants.
 Leave Link  601 at Wed May 26 08:32:23 2021, MaxMem=  2147483648 cpu:         0.6
 (Enter /opt/cluster/programs/g09_d.01/g09/l9999.exe)
 1\1\GINC-NODE06\Scan\RwB97XD\6-31+G\C3H6O2\BOITTIER\26-May-2021\0\\#p 
 wB97XD/6-31+G Opt=ModRedun\\O.pdb\\0,1\C,-3.1262099746,2.0464060784,0.
 4315008313\C,-2.7144821223,0.6521442326,0.7876117442\H,-2.3076010654,2
 .7289705774,0.6827169768\H,-4.0125140202,2.325973393,1.0009298897\H,-3
 .3175861695,2.135504281,-0.6398325685\O,-1.828149076,0.1373975247,-0.1
 192894904\O,-3.0400254002,0.0446349486,1.8078839045\C,-0.9996132796,-0
 .9864449243,0.3153381701\H,-0.4710308751,-0.7202468872,1.2329148099\H,
 -0.3055108473,-1.1527319448,-0.5046978832\H,-1.61727717,-1.8686072794,
 0.4909236157\\Version=ES64L-G09RevD.01\State=1-A\HF=-268.2217252,-268.
 2197054,-268.2137309,-268.2065166,-268.2010102,-268.1995263,-268.20142
 93,-268.2051074,-268.2077942,-268.2086885,-268.2079045,-268.2053201,-2
 68.2016467,-268.1995492,-268.2007901,-268.2060975,-268.2132856,-268.21
 94337\RMSD=4.005e-09,7.139e-09,6.410e-09,6.938e-09,3.747e-09,1.634e-09
 ,3.463e-09,6.485e-09,5.079e-09,9.181e-09,9.594e-09,6.304e-09,7.061e-09
 ,7.736e-09,8.211e-09,9.175e-09,3.082e-09,8.070e-09\PG=C01 [X(C3H6O2)]\
 \@


 THE DIFFERENCE BETWEEN A NOOSE AND A HALO IS ONLY 12 INCHES.
 Job cpu time:       0 days  0 hours 39 minutes 13.0 seconds.
 File lengths (MBytes):  RWF=      6 Int=      0 D2E=      0 Chk=      3 Scr=      1
 Normal termination of Gaussian 09 at Wed May 26 08:32:23 2021.
