L.pdb                                                                   
FOpt      RwB97XD                                                     6-31+G              
Number of atoms                            I                8
Info1-9                                    I   N=           9
          19          19           0           0           0         110
           2          18        -802
Charge                                     I                0
Multiplicity                               I                1
Number of electrons                        I               30
Number of alpha electrons                  I               15
Number of beta electrons                   I               15
Number of basis functions                  I               60
Number of independent functions            I               60
Number of point charges in /Mol/           I                0
Number of translation vectors              I                0
Atomic numbers                             I   N=           8
           6           6           6           8           1           1
           1           1
Nuclear charges                            R   N=           8
  6.00000000E+00  6.00000000E+00  6.00000000E+00  8.00000000E+00  1.00000000E+00
  1.00000000E+00  1.00000000E+00  1.00000000E+00
Current cartesian coordinates              R   N=          24
  2.94910896E+00 -7.93124833E-01  1.51951082E-01  1.22282700E+00  9.91044099E-01
 -3.23301670E-01 -1.46709003E+00  7.40974115E-01  4.06487116E-01 -2.89306880E+00
 -9.51984202E-01 -3.34834642E-01 -2.21660652E+00  2.25516035E+00  1.62515083E+00
  4.93317144E+00 -5.07647552E-01 -2.77015827E-01  2.41953748E+00 -2.59778840E+00
  9.74094737E-01  1.77937241E+00  2.83278893E+00 -1.05437177E+00
Force Field                                I                0
Int Atom Types                             I   N=           8
           0           0           0           0           0           0
           0           0
MM charges                                 R   N=           8
  0.00000000E+00  0.00000000E+00  0.00000000E+00  0.00000000E+00  0.00000000E+00
  0.00000000E+00  0.00000000E+00  0.00000000E+00
Integer atomic weights                     I   N=           8
          12          12          12          16           1           1
           1           1
Real atomic weights                        R   N=           8
  1.20000000E+01  1.20000000E+01  1.20000000E+01  1.59949146E+01  1.00782504E+00
  1.00782504E+00  1.00782504E+00  1.00782504E+00
Atom fragment info                         I   N=           8
           0           0           0           0           0           0
           0           0
Atom residue num                           I   N=           8
           0           0           0           0           0           0
           0           0
Nuclear spins                              I   N=           8
           0           0           0           0           1           1
           1           1
Nuclear ZEff                               R   N=           8
 -3.60000000E+00 -3.60000000E+00 -3.60000000E+00 -5.60000000E+00 -1.00000000E+00
 -1.00000000E+00 -1.00000000E+00 -1.00000000E+00
Nuclear ZNuc                               R   N=           8
  6.00000000E+00  6.00000000E+00  6.00000000E+00  8.00000000E+00  1.00000000E+00
  1.00000000E+00  1.00000000E+00  1.00000000E+00
Nuclear QMom                               R   N=           8
  0.00000000E+00  0.00000000E+00  0.00000000E+00  0.00000000E+00  0.00000000E+00
  0.00000000E+00  0.00000000E+00  0.00000000E+00
Nuclear GFac                               R   N=           8
  0.00000000E+00  0.00000000E+00  0.00000000E+00  0.00000000E+00  2.79284600E+00
  2.79284600E+00  2.79284600E+00  2.79284600E+00
MicOpt                                     I   N=           8
          -1          -1          -1          -1          -1          -1
          -1          -1
Number of contracted shells                I               24
Number of primitive shells                 I               60
Pure/Cartesian d shells                    I                1
Pure/Cartesian f shells                    I                0
Highest angular momentum                   I                1
Largest degree of contraction              I                6
Shell types                                I   N=          24
           0          -1          -1          -1           0          -1
          -1          -1           0          -1          -1          -1
           0          -1          -1          -1           0           0
           0           0           0           0           0           0
Number of primitives per shell             I   N=          24
           6           3           1           1           6           3
           1           1           6           3           1           1
           6           3           1           1           3           1
           3           1           3           1           3           1
Shell to atom map                          I   N=          24
           1           1           1           1           2           2
           2           2           3           3           3           3
           4           4           4           4           5           5
           6           6           7           7           8           8
Primitive exponents                        R   N=          60
  3.04752488E+03  4.57369518E+02  1.03948685E+02  2.92101553E+01  9.28666296E+00
  3.16392696E+00  7.86827235E+00  1.88128854E+00  5.44249258E-01  1.68714478E-01
  4.38000000E-02  3.04752488E+03  4.57369518E+02  1.03948685E+02  2.92101553E+01
  9.28666296E+00  3.16392696E+00  7.86827235E+00  1.88128854E+00  5.44249258E-01
  1.68714478E-01  4.38000000E-02  3.04752488E+03  4.57369518E+02  1.03948685E+02
  2.92101553E+01  9.28666296E+00  3.16392696E+00  7.86827235E+00  1.88128854E+00
  5.44249258E-01  1.68714478E-01  4.38000000E-02  5.48467166E+03  8.25234946E+02
  1.88046958E+02  5.29645000E+01  1.68975704E+01  5.79963534E+00  1.55396162E+01
  3.59993359E+00  1.01376175E+00  2.70005823E-01  8.45000000E-02  1.87311370E+01
  2.82539436E+00  6.40121692E-01  1.61277759E-01  1.87311370E+01  2.82539436E+00
  6.40121692E-01  1.61277759E-01  1.87311370E+01  2.82539436E+00  6.40121692E-01
  1.61277759E-01  1.87311370E+01  2.82539436E+00  6.40121692E-01  1.61277759E-01
Contraction coefficients                   R   N=          60
  1.83473713E-03  1.40373228E-02  6.88426223E-02  2.32184443E-01  4.67941348E-01
  3.62311985E-01 -1.19332420E-01 -1.60854152E-01  1.14345644E+00  1.00000000E+00
  1.00000000E+00  1.83473713E-03  1.40373228E-02  6.88426223E-02  2.32184443E-01
  4.67941348E-01  3.62311985E-01 -1.19332420E-01 -1.60854152E-01  1.14345644E+00
  1.00000000E+00  1.00000000E+00  1.83473713E-03  1.40373228E-02  6.88426223E-02
  2.32184443E-01  4.67941348E-01  3.62311985E-01 -1.19332420E-01 -1.60854152E-01
  1.14345644E+00  1.00000000E+00  1.00000000E+00  1.83107443E-03  1.39501722E-02
  6.84450781E-02  2.32714336E-01  4.70192898E-01  3.58520853E-01 -1.10777550E-01
 -1.48026263E-01  1.13076702E+00  1.00000000E+00  1.00000000E+00  3.34946043E-02
  2.34726953E-01  8.13757326E-01  1.00000000E+00  3.34946043E-02  2.34726953E-01
  8.13757326E-01  1.00000000E+00  3.34946043E-02  2.34726953E-01  8.13757326E-01
  1.00000000E+00  3.34946043E-02  2.34726953E-01  8.13757326E-01  1.00000000E+00
P(S=P) Contraction coefficients            R   N=          60
  0.00000000E+00  0.00000000E+00  0.00000000E+00  0.00000000E+00  0.00000000E+00
  0.00000000E+00  6.89990666E-02  3.16423961E-01  7.44308291E-01  1.00000000E+00
  1.00000000E+00  0.00000000E+00  0.00000000E+00  0.00000000E+00  0.00000000E+00
  0.00000000E+00  0.00000000E+00  6.89990666E-02  3.16423961E-01  7.44308291E-01
  1.00000000E+00  1.00000000E+00  0.00000000E+00  0.00000000E+00  0.00000000E+00
  0.00000000E+00  0.00000000E+00  0.00000000E+00  6.89990666E-02  3.16423961E-01
  7.44308291E-01  1.00000000E+00  1.00000000E+00  0.00000000E+00  0.00000000E+00
  0.00000000E+00  0.00000000E+00  0.00000000E+00  0.00000000E+00  7.08742682E-02
  3.39752839E-01  7.27158577E-01  1.00000000E+00  1.00000000E+00  0.00000000E+00
  0.00000000E+00  0.00000000E+00  0.00000000E+00  0.00000000E+00  0.00000000E+00
  0.00000000E+00  0.00000000E+00  0.00000000E+00  0.00000000E+00  0.00000000E+00
  0.00000000E+00  0.00000000E+00  0.00000000E+00  0.00000000E+00  0.00000000E+00
Coordinates of each shell                  R   N=          72
  2.94910896E+00 -7.93124833E-01  1.51951082E-01  2.94910896E+00 -7.93124833E-01
  1.51951082E-01  2.94910896E+00 -7.93124833E-01  1.51951082E-01  2.94910896E+00
 -7.93124833E-01  1.51951082E-01  1.22282700E+00  9.91044099E-01 -3.23301670E-01
  1.22282700E+00  9.91044099E-01 -3.23301670E-01  1.22282700E+00  9.91044099E-01
 -3.23301670E-01  1.22282700E+00  9.91044099E-01 -3.23301670E-01 -1.46709003E+00
  7.40974115E-01  4.06487116E-01 -1.46709003E+00  7.40974115E-01  4.06487116E-01
 -1.46709003E+00  7.40974115E-01  4.06487116E-01 -1.46709003E+00  7.40974115E-01
  4.06487116E-01 -2.89306880E+00 -9.51984202E-01 -3.34834642E-01 -2.89306880E+00
 -9.51984202E-01 -3.34834642E-01 -2.89306880E+00 -9.51984202E-01 -3.34834642E-01
 -2.89306880E+00 -9.51984202E-01 -3.34834642E-01 -2.21660652E+00  2.25516035E+00
  1.62515083E+00 -2.21660652E+00  2.25516035E+00  1.62515083E+00  4.93317144E+00
 -5.07647552E-01 -2.77015827E-01  4.93317144E+00 -5.07647552E-01 -2.77015827E-01
  2.41953748E+00 -2.59778840E+00  9.74094737E-01  2.41953748E+00 -2.59778840E+00
  9.74094737E-01  1.77937241E+00  2.83278893E+00 -1.05437177E+00  1.77937241E+00
  2.83278893E+00 -1.05437177E+00
Constraint Structure                       R   N=          24
  2.96816298E+00 -7.92929032E-01  1.50329100E-01  1.22368861E+00  9.86331128E-01
 -3.27140443E-01 -1.46850970E+00  7.42926623E-01  4.02987373E-01 -2.91395163E+00
 -9.55117147E-01 -3.27473035E-01 -2.21538062E+00  2.28261116E+00  1.60044635E+00
  4.95394765E+00 -4.94399384E-01 -2.70325827E-01  2.45241151E+00 -2.60748946E+00
  9.61998599E-01  1.78058319E+00  2.84224255E+00 -1.02939102E+00
Num ILSW                                   I              100
ILSW                                       I   N=         100
           0           1           0           0           2           0
           0           0           0           0        4639          -1
           0           0           0           0           2           0
           0           0           0           0           1           0
           1           0           0           0           0           0
           0           0      100000           0          -1           0
           0           0           0           0           0           0
           0           0           0           1           0           0
           0           0           1           0           0           0
           0           0         121          41           0           0
           0           0          58           0           0           0
           0           0           0           8           0           0
           0           0           0           0           0           0
           0           0           0           0           0           0
           0           0           0           0           0           0
           0           0           0           0           0           0
           0           0           0           0
Num RLSW                                   I               41
RLSW                                       R   N=          41
  1.00000000E+00  1.00000000E+00  1.00000000E+00  1.00000000E+00  1.00000000E+00
  0.00000000E+00  2.00000000E-01  2.22036000E-01  0.00000000E+00  7.77964000E-01
  0.00000000E+00  2.00000000E-01  0.00000000E+00  0.00000000E+00  1.00000000E+00
  0.00000000E+00  0.00000000E+00  1.00000000E+00  0.00000000E+00  0.00000000E+00
  0.00000000E+00  0.00000000E+00  1.00000000E+00  0.00000000E+00  0.00000000E+00
  0.00000000E+00  0.00000000E+00  1.00000000E+00  0.00000000E+00  0.00000000E+00
  0.00000000E+00  0.00000000E+00  1.00000000E+00  0.00000000E+00  0.00000000E+00
  0.00000000E+00  0.00000000E+00  0.00000000E+00  1.00000000E+00  1.00000000E+00
  0.00000000E+00
MxBond                                     I                3
NBond                                      I   N=           8
           3           3           3           1           1           1
           1           1
IBond                                      I   N=          24
           2           6           7           1           3           8
           2           4           5           3           0           0
           3           0           0           1           0           0
           1           0           0           2           0           0
RBond                                      R   N=          24
  2.00000000E+00  1.00000000E+00  1.00000000E+00  2.00000000E+00  1.00000000E+00
  1.00000000E+00  1.00000000E+00  2.00000000E+00  1.00000000E+00  2.00000000E+00
  0.00000000E+00  0.00000000E+00  1.00000000E+00  0.00000000E+00  0.00000000E+00
  1.00000000E+00  0.00000000E+00  0.00000000E+00  1.00000000E+00  0.00000000E+00
  0.00000000E+00  1.00000000E+00  0.00000000E+00  0.00000000E+00
Virial Ratio                               R      2.005805094136381E+00
SCF Energy                                 R     -1.917863723447419E+02
Total Energy                               R     -1.917863723447419E+02
RMS Force                                  R      3.225103960322310E-03
RMS Density                                R      6.187852891487361E-09
External E-field                           R   N=          35
  0.00000000E+00  0.00000000E+00  0.00000000E+00  0.00000000E+00  0.00000000E+00
  0.00000000E+00  0.00000000E+00  0.00000000E+00  0.00000000E+00  0.00000000E+00
  0.00000000E+00  0.00000000E+00  0.00000000E+00  0.00000000E+00  0.00000000E+00
  0.00000000E+00  0.00000000E+00  0.00000000E+00  0.00000000E+00  0.00000000E+00
  0.00000000E+00  0.00000000E+00  0.00000000E+00  0.00000000E+00  0.00000000E+00
  0.00000000E+00  0.00000000E+00  0.00000000E+00  0.00000000E+00  0.00000000E+00
  0.00000000E+00  0.00000000E+00  0.00000000E+00  0.00000000E+00  0.00000000E+00
IOpCl                                      I                0
IROHF                                      I                0
Alpha Orbital Energies                     R   N=          60
 -1.92927071E+01 -1.04093413E+01 -1.03311693E+01 -1.03282654E+01 -1.17508735E+00
 -9.11384002E-01 -7.68594112E-01 -6.57665197E-01 -6.11281559E-01 -5.51289067E-01
 -5.38908322E-01 -4.87591609E-01 -4.73001814E-01 -3.78533324E-01 -3.53049581E-01
  4.43564433E-03  5.73690311E-02  7.67658304E-02  8.44429884E-02  9.71606512E-02
  1.12304260E-01  1.24881356E-01  1.34859533E-01  1.47086855E-01  1.64464614E-01
  1.73462014E-01  1.77042821E-01  1.97409778E-01  2.24545630E-01  2.69036022E-01
  2.83530502E-01  2.97652656E-01  3.14500310E-01  3.27967000E-01  3.46811414E-01
  3.73057462E-01  3.81768387E-01  4.41724880E-01  4.59048842E-01  5.10153471E-01
  7.02072876E-01  7.23339460E-01  7.62467200E-01  7.79626513E-01  8.08009445E-01
  8.45890401E-01  8.95212917E-01  9.28750641E-01  1.01792975E+00  1.04853480E+00
  1.10926449E+00  1.13054535E+00  1.13994370E+00  1.23395631E+00  1.27350998E+00
  1.31733692E+00  1.33169628E+00  1.38376391E+00  1.45629192E+00  1.89243853E+00
Alpha MO coefficients                      R   N=        3600
  2.98598418E-05  3.30143778E-04 -1.46494274E-04  4.67201307E-06  3.07606505E-05
  1.48325836E-04  5.76264438E-04  3.88277091E-05 -4.77913563E-04  9.78892605E-03
 -1.73031738E-03  1.51026098E-03  3.30006132E-05  1.15373168E-05 -1.75089360E-04
  2.39992564E-04 -1.68729162E-05 -8.90701656E-05  7.76691778E-05  5.73476964E-05
  1.55506581E-03  8.39005726E-04  6.96043442E-05 -4.47059454E-03  1.27144822E-03
 -1.07871867E-03  2.13702365E-04  1.42761088E-04 -1.65665415E-04  7.56724043E-05
  3.80622289E-05  5.93834241E-03 -2.42497066E-03 -4.80840742E-03 -2.27272049E-03
 -1.44460153E-02 -1.17961723E-03  2.12986196E-03  2.49838340E-03  9.95217118E-01
  2.93546734E-02  1.36346477E-03  1.51363141E-03  6.65430903E-04 -2.08295124E-02
 -3.05355937E-03 -3.06327025E-03 -1.25311039E-03  9.60041441E-03  7.01458288E-04
  3.95832150E-04 -1.17829940E-04 -1.35208807E-04  1.02068744E-03 -3.63899850E-05
 -5.81402775E-04  1.75169966E-04 -2.58187244E-04 -5.99082639E-05 -5.42293652E-04
 -1.34400462E-04 -5.36997598E-04  1.48984241E-04 -4.64210554E-05 -5.19237554E-05
  1.59844490E-03 -8.54270401E-04  4.17378401E-04  1.55387115E-04 -7.50837171E-03
  1.59794907E-03 -1.47168652E-03 -2.32036834E-05  1.66406676E-03 -4.45084102E-04
  5.29807551E-04 -7.40520841E-06 -1.66559680E-04  3.87746162E-03 -3.39009432E-03
  2.23570524E-04  5.43046489E-04 -4.56864711E-03  4.03961128E-03 -3.12864610E-04
  5.71871993E-04  9.95429161E-01  3.60726852E-02 -7.72224063E-04 -1.05381983E-03
 -5.12623921E-04 -3.13117162E-02 -1.53395579E-04  1.79053705E-03  1.50914466E-03
  9.86965365E-03  4.81618425E-03 -6.05954067E-04 -1.96344738E-03 -1.28638073E-04
 -9.20814898E-05 -4.17001269E-04 -4.00558851E-04 -1.40003415E-04  1.30818046E-03
  4.80326910E-04 -1.27174211E-04 -3.00007838E-04  1.03085753E-02  2.94378384E-03
  4.53137008E-03  2.24778635E-03 -5.34636973E-04  3.13214857E-03 -1.55623164E-05
  7.37925950E-04 -1.73151251E-04 -2.81339534E-04 -1.79291844E-04  2.06655288E-04
  1.46908115E-01  3.86410330E-03  6.23294761E-04 -6.45773335E-04  1.75130697E-04
  4.95825804E-03 -3.94499953E-03  2.10700035E-03 -1.23295535E-04 -3.71578678E-02
  6.77733699E-03 -5.27911996E-03  1.09777199E-03  9.84449599E-01  3.57083049E-02
 -1.49458301E-04 -1.66461802E-04  3.10277776E-04 -3.31579311E-02  1.94928265E-03
  2.83845368E-03 -2.08627261E-03  6.79126972E-02 -2.13537702E-03 -1.21193744E-02
  6.18292798E-03 -1.58543613E-03 -7.42978261E-04 -5.89494874E-04 -1.00312394E-04
  2.47031957E-04  6.13477056E-03  5.17874620E-03  3.23750693E-04 -1.22122775E-03
 -2.93413290E-02 -7.20732576E-03  1.42323162E-03  7.02559409E-04 -3.42187234E-06
 -2.09331426E-04 -1.26978574E-04 -1.00142642E-04  3.59137145E-05  1.73816519E-04
  8.37387856E-05  4.88965119E-04  4.79557989E-06  1.97757504E-03  7.02995810E-06
  5.28120614E-04  1.07618697E-03 -1.50475867E-04  5.27257844E-04 -2.33137194E-04
  1.56261829E-03 -3.98721819E-04 -1.66779408E-04 -6.90271626E-04  3.26817554E-03
  9.84423811E-01  3.50867530E-02 -4.43651327E-04  4.77039942E-04 -7.43073356E-05
 -3.17179032E-02  3.30294395E-03 -3.26452064E-03  7.68150953E-04  3.29472680E-02
 -6.24617553E-03  7.53826713E-03 -2.03903611E-03 -1.47165641E-01 -6.60306850E-03
 -7.69125264E-04  9.27262723E-04 -3.07540182E-04  1.34301020E-02  4.35119698E-03
 -4.53213053E-03  1.44250267E-03 -4.75979465E-03 -1.41755796E-02  3.20004334E-03
  1.04078126E-03  2.72501809E-04 -3.98742024E-04 -1.18965413E-04 -9.04792970E-06
 -2.90422365E-05  1.15295243E-03 -7.03189195E-05 -1.79001909E-04 -5.79561284E-04
 -2.78991066E-02 -6.66527123E-03  4.67266050E-04  1.93886679E-03  1.55340416E-05
  2.71919097E-04  4.95410635E-05  3.76073573E-05 -1.03109911E-05 -1.06420004E-03
 -5.12304708E-04 -3.04089994E-04 -3.51104422E-06  1.25487459E-03 -1.22527684E-04
  9.20771732E-05  2.56932409E-04 -2.30284751E-05  4.09631758E-04 -6.88089800E-04
  3.99496242E-03 -5.87396337E-04  3.76914389E-03 -2.76727950E-05 -1.38038269E-04
 -5.68290262E-03  8.81873354E-03 -6.28336297E-03  2.93778072E-03 -6.77469481E-04
 -1.73933338E-04 -1.77836178E-03 -1.21271590E-03  3.03453394E-03  8.25691510E-03
 -4.03560443E-03  2.68707647E-04 -1.64701623E-04 -1.90614406E-02  3.70986153E-02
 -2.59025332E-02 -9.13914253E-03  4.67192466E-03  8.25818515E-03  5.56441612E-03
 -1.41501776E-02 -7.69282620E-03 -4.12042405E-02  1.53247763E-02  7.86003315E-03
 -1.74812467E-03 -1.16143237E-01  2.37313298E-01 -1.09390581E-01 -1.37096646E-01
 -6.17707506E-02  5.13585427E-02  3.36494791E-02  4.90702627E-02  2.17571751E-02
  4.26446726E-02 -6.78382816E-03 -8.93061589E-03 -5.70275155E-03 -1.92504720E-01
  4.25751447E-01  1.11926211E-01  1.30733316E-01  5.72764153E-02  4.16808105E-01
  4.50904189E-02  5.10792589E-02  2.30220240E-02 -2.42560667E-03  7.10493170E-03
  5.12743976E-03  1.51231291E-03  2.85401270E-02 -1.77204233E-02  1.33900308E-03
  1.75409113E-03  1.86469011E-03  1.85082334E-03  5.30472321E-03  2.94104337E-03
 -1.38403725E-01  2.68432963E-01 -7.60609332E-02  7.44868977E-02 -1.58627932E-02
  2.06633190E-01 -9.71082692E-03  2.41494064E-03  7.39274610E-04  2.03177288E-02
 -1.00437245E-02 -1.11215343E-03  3.16888918E-03 -1.64802454E-01  3.21066523E-01
  3.29764192E-02 -6.17852973E-02  3.46109570E-02  2.25368322E-01  3.05707294E-04
  1.72849532E-02  2.77887388E-03 -1.03973545E-01  3.40265604E-02  1.19047813E-02
 -1.43772724E-02 -5.24732002E-02  1.02551627E-01  1.28938662E-01  4.64942168E-02
 -8.33115950E-04  1.09942260E-01  1.65609049E-02 -1.44439691E-02 -6.97772830E-03
  8.88487756E-02  1.93847413E-02  3.99033829E-03 -3.65783110E-03  4.25349262E-02
 -9.61157027E-02  8.45623896E-03 -1.51397633E-02 -1.04108003E-02 -1.18656122E-01
 -4.98364264E-03 -8.87789872E-03 -5.01235510E-03 -1.78909849E-02 -3.12352424E-03
 -7.44002867E-03 -3.99938196E-03  2.95963318E-02  1.13838233E-02  6.78997402E-02
  1.05463416E-02  6.89488012E-02  6.18299025E-03  8.45200654E-02  6.20338476E-03
 -1.29012161E-01  2.55487389E-01  3.45634624E-02 -9.73434474E-03 -7.11057684E-03
  2.31644457E-01  1.71636958E-02 -1.05034085E-02  1.58897258E-03 -1.24930465E-01
  2.01373208E-02 -2.44217414E-02  5.59901668E-03  4.60983790E-02 -9.25603512E-02
  2.04087588E-01 -1.08999748E-01 -1.39303258E-02 -9.21453776E-02  4.46958612E-02
 -2.71846778E-02 -2.62393849E-03  4.95068951E-02  5.58593484E-02 -2.32409501E-02
  5.66617410E-03  1.20396746E-01 -2.53058203E-01 -1.15905210E-01 -1.32787116E-01
 -2.74341848E-02 -2.52024974E-01 -1.47373177E-02 -3.84544339E-02 -1.20148029E-02
  7.84366785E-02  1.65715078E-02 -5.02625588E-03 -1.44086999E-02 -6.15105205E-02
  1.43279683E-01 -2.42397362E-02 -3.60782083E-02 -5.34023677E-03  1.75516113E-01
 -8.36094972E-03 -1.10585493E-02 -4.68600854E-04  2.05807289E-02  6.62498618E-03
  9.75141810E-03  6.07246054E-03 -1.23003782E-01 -3.73461483E-02  1.14128453E-01
  3.70147767E-02  9.94380431E-02  2.83116172E-02 -5.18678651E-02 -1.66379639E-02
 -6.75901728E-02  1.36764002E-01  9.05344867E-02 -1.62282285E-01  6.54078438E-02
  1.47541254E-01  3.38975199E-02 -4.75800981E-02  2.26728237E-02 -7.49288514E-02
  2.08482997E-02 -1.69769109E-02  5.73541497E-03  9.46980773E-02 -1.93946363E-01
 -6.56639108E-02 -8.32317740E-02  7.33297370E-02 -1.95036075E-01 -1.65607017E-02
 -5.37565487E-02  2.95426564E-02  9.33876939E-02  3.69101769E-03 -2.21876975E-02
  4.83685518E-03 -8.63939735E-02  1.87491055E-01 -1.18768806E-01  1.10159563E-01
  1.46990558E-01  2.18360196E-01 -4.26678532E-02  5.21457485E-02  5.89496644E-02
 -9.60201029E-03 -6.93911107E-03  7.62042064E-03  8.62835031E-03  5.20741622E-02
 -1.21198398E-01 -2.72416173E-03  1.02178224E-01  9.30213086E-02 -1.69562074E-01
 -5.04562914E-03  3.62500708E-02  3.85284620E-02 -2.92396204E-02 -1.15793719E-03
 -4.62197687E-03 -2.58627518E-03  1.80198658E-01  7.46158365E-02  9.11597684E-02
  4.05731517E-02  1.34242915E-01  6.71043026E-02 -1.48503840E-01 -5.99367221E-02
  3.73439916E-03 -8.50847656E-03 -1.87505330E-01 -1.32973733E-01  7.21580336E-02
 -1.59388124E-02 -7.95154844E-02 -6.11939910E-02  3.30647376E-02 -1.87447593E-02
 -1.96449564E-03 -6.40728574E-03  2.49741552E-03  7.67741138E-03 -8.97924085E-03
 -1.96328302E-01 -2.17806762E-01  9.01570813E-02 -5.09513783E-02 -4.43324815E-02
 -7.87557581E-02  2.73241733E-02 -1.01081864E-02  2.42283758E-04 -9.59169922E-03
  7.79254977E-04 -1.09058169E-02  2.76133653E-02  2.25772887E-01 -1.71330707E-01
 -1.11454207E-01  3.81800248E-02  8.95964082E-02 -8.37347198E-02 -5.13389686E-02
  2.33926673E-02  1.93963006E-02 -5.47380079E-03 -7.83367340E-03  1.55102195E-02
 -3.46959327E-02  1.67671036E-01 -6.58301058E-02 -4.25394259E-02 -6.49519012E-02
  7.60736411E-02 -4.10342868E-02 -2.28546087E-02 -2.30258128E-02 -6.32798079E-03
  9.69768739E-04  2.43167832E-03 -1.23295029E-01 -5.63050986E-02 -1.16368533E-01
 -5.51350818E-02  9.71721310E-02  4.33235297E-02 -1.58350622E-01 -9.01376935E-02
 -3.56131857E-03  2.54313688E-03  2.94594018E-01 -2.36187413E-01  3.12249055E-02
  5.94738566E-02  9.62443506E-02 -7.57981021E-02  6.67392269E-03 -2.72356869E-02
  2.45173607E-02 -1.83570169E-02  3.51288824E-03  2.16989835E-02 -4.53238628E-02
 -2.40339398E-01  2.37445716E-01 -1.02467876E-01 -4.57926404E-02 -6.17849834E-02
  7.87653055E-02 -4.67759873E-02 -4.95598183E-03  1.44055643E-03  5.20008709E-03
 -4.09292104E-03 -6.19103739E-03  1.31550520E-02  1.42551912E-01  3.10085203E-02
 -2.03672867E-01  8.82001160E-03  6.90774995E-02  2.29359779E-02 -9.41257937E-02
  3.94745092E-02  2.24084177E-02 -5.82764825E-04 -1.18282873E-02 -6.96517337E-03
  1.42595978E-02  6.02800369E-02 -1.42642000E-02 -1.83185609E-01  3.80219899E-02
  3.73190927E-02  2.59149284E-03 -9.59324526E-02  1.54591550E-02  9.47938741E-04
 -9.03258843E-05 -2.04920740E-04 -7.48157581E-02 -4.44184768E-02  1.55554369E-01
  1.01321056E-01  9.24505188E-02  5.77810263E-02  8.74573660E-02  5.99299164E-02
  7.00502004E-05 -1.36565549E-03 -8.18435520E-02 -1.14960551E-01  9.66586902E-02
  1.15838814E-02 -4.17851973E-02 -4.64852926E-02  4.31775393E-02  2.96440115E-02
 -5.43407439E-03 -1.84018853E-03 -2.40120323E-04 -6.34387799E-03  9.65731957E-03
 -6.32898886E-02  4.26048418E-02  7.30498676E-02  3.19016737E-02 -3.10292596E-02
  2.03465699E-02  3.38209662E-02  1.30217653E-02 -2.11032072E-02  1.37450135E-02
  7.78592111E-03  3.87666780E-02 -1.15427135E-01  1.57841086E-01  2.47543631E-01
  1.64255599E-01 -1.10883924E-01  3.21849968E-02  8.16708744E-02  6.93593097E-02
 -4.31267458E-02 -7.31460502E-03 -7.14909993E-04  6.86649872E-03 -8.51672140E-02
  1.86407684E-01 -3.19355331E-01 -3.35585337E-01 -9.00245231E-02  3.50066963E-01
 -1.28554927E-01 -1.33096169E-01 -2.61689644E-02  1.01884890E-01 -7.26852659E-03
 -1.08992653E-02 -5.04222722E-03  7.84541194E-02  4.87845306E-02 -7.15945925E-02
 -4.33628093E-02  9.85000538E-02  5.94290764E-02  5.86793172E-03  2.05687952E-03
 -5.10943537E-03  1.32807771E-02 -2.49070208E-01 -1.95134867E-01  8.15534156E-02
  1.96724162E-02 -1.12765224E-01 -9.89390930E-02  3.88449183E-02 -9.20884720E-02
 -3.24729350E-03 -2.80163469E-02  1.56107019E-02 -1.32636080E-02  2.25328798E-02
  9.11708826E-02  7.01478476E-02 -1.13277768E-01  7.32207393E-02  2.11103681E-02
  4.06010912E-02 -5.03222787E-02  4.48223301E-02  5.07996617E-02 -2.05730601E-02
 -8.50272966E-03  2.09915006E-02 -4.13645891E-02 -2.30374300E-01  6.51027615E-02
 -1.40545966E-01 -6.34081539E-02 -1.19445734E-01  4.29241104E-02 -6.85342920E-02
  5.99094079E-02  8.37418874E-04  1.96434533E-02 -1.67712477E-02  1.48895104E-02
 -3.08453291E-02 -8.97125881E-02  2.83272348E-01 -8.98426198E-02 -7.28643279E-02
 -6.47606443E-02  1.50229062E-01 -6.70917321E-02 -3.63959318E-02 -4.50011412E-03
  6.24068927E-03  7.20199958E-04 -2.24670884E-03 -1.14002046E-02 -1.93933122E-01
 -1.41552625E-01  1.89022001E-01  1.26276174E-01  1.12676840E-01  7.91537112E-02
  1.62580793E-02 -4.40246961E-02  1.57990244E-02 -1.60702617E-01  1.13726324E-01
  1.37576480E-02 -4.39854521E-02 -6.16286363E-02  5.88537264E-02  2.89130087E-01
 -5.11025054E-02  2.89627151E-02 -5.09459635E-03 -4.57276044E-03  6.42052322E-03
  2.13298964E-02  2.33509285E-01 -2.10354375E-02  1.56846633E-02  1.48640581E-02
  1.47478976E-01 -2.16357242E-02 -2.43949762E-01 -6.11953592E-02  1.05845158E-01
 -2.77266324E-02  9.91233965E-03 -1.44456683E-02 -1.72116290E-02 -2.22876362E-01
  1.83873199E-01 -3.72249495E-02  2.09404901E-02 -1.13988796E-01  1.15871980E-01
 -4.80586329E-02 -5.80542959E-03 -3.41319812E-02  3.30042689E-02  1.26565985E-02
 -2.57414630E-02  1.47765414E-01 -1.04214877E-01  3.76325436E-01 -5.56959041E-02
  7.88053091E-02 -7.90681938E-02  2.28637230E-01  6.68700572E-04  1.29704710E-02
  6.62980949E-03  7.42657993E-03 -4.93723610E-02 -3.26043297E-02 -4.69354636E-02
 -1.75640345E-02  1.15105083E-01  8.29492055E-02  1.73188246E-01  1.17205744E-01
  6.67939505E-05  9.15948115E-04  5.85281959E-02  1.44478665E-01  3.54243301E-01
 -3.70417796E-02  5.84918942E-02  7.91235140E-02  2.29518958E-01 -2.21691604E-01
  4.40335477E-02 -1.63889400E-02  4.01245619E-02  8.57498871E-04 -7.50458126E-03
  4.18395887E-02  1.35583482E-01  3.61602361E-01  3.24560600E-02  4.26035160E-02
  5.70531983E-02  2.52407455E-01  1.91672736E-01  5.69681156E-02 -4.65781337E-02
  6.39684487E-02  4.16163693E-03 -7.41041121E-04  1.32119232E-02 -4.22892083E-02
 -6.20929556E-02 -5.00237837E-02  1.25898582E-02  1.32492385E-02 -2.59943922E-02
  4.16096038E-02  1.20868225E-02 -2.99801964E-03 -3.56089630E-02 -3.05985238E-03
  9.94531565E-03 -8.11162597E-03  1.64266791E-01 -9.83203062E-02  2.97996181E-02
 -1.46206482E-02  1.10062977E-01 -6.65318963E-02 -2.29417309E-02 -6.29095833E-03
  1.75616877E-02 -3.36637778E-03 -7.82477810E-02 -9.16825020E-02  2.69328730E-03
 -3.22489500E-03 -3.19319616E-03 -7.03998180E-03 -1.91128870E-03  1.20283022E-04
 -5.48604278E-03  1.34447733E-02 -5.56077117E-02  2.93973092E-02  4.18129720E-02
 -3.83330126E-03 -5.28463957E-02 -8.74608716E-03  3.88900597E-02  2.61391781E-02
 -2.47061145E-02 -3.79549482E-03 -1.09814757E-03  3.55850648E-02 -7.22167690E-02
  2.24595872E-01  5.76232457E-02 -9.09851835E-03 -2.53623881E-01  2.06548511E-01
  4.54291564E-02 -2.66687696E-02 -1.23041161E-02  5.44021590E-03  1.40574561E-02
  1.55161425E-02  8.45710334E-04 -1.77711372E-02 -1.21052870E-01  5.68131975E-02
  7.45261773E-02  6.34597823E-02  8.43332673E-02  1.48194312E-02 -2.15944044E-02
 -1.82527164E-03  1.12281957E-02  8.78242779E-03 -7.64093032E-03  5.14856150E-04
 -1.96032969E-03  4.41207349E-01 -2.24516730E-01 -3.17155075E-01  6.95428046E-03
  2.98419249E-01 -1.47928339E-01 -2.10614073E-01  2.54431683E-02  5.15654561E-02