B.pdb                                                                   
FOpt      RwB97XD                                                     6-31+G              
Number of atoms                            I               10
Info1-9                                    I   N=           9
          21          21           0           0           0         110
           2          18        -802
Charge                                     I                0
Multiplicity                               I                1
Number of electrons                        I               38
Number of alpha electrons                  I               19
Number of beta electrons                   I               19
Number of basis functions                  I               75
Number of independent functions            I               75
Number of point charges in /Mol/           I                0
Number of translation vectors              I                0
Atomic numbers                             I   N=          10
           6           6           6           6           1           1
           9           1           1           1
Nuclear charges                            R   N=          10
  6.00000000E+00  6.00000000E+00  6.00000000E+00  6.00000000E+00  1.00000000E+00
  1.00000000E+00  9.00000000E+00  1.00000000E+00  1.00000000E+00  1.00000000E+00
Current cartesian coordinates              R   N=          30
 -2.62130148E+00 -1.94593122E+00 -2.73720482E-01 -9.33494089E-01 -1.46637832E-01
  1.71140626E-01  1.74210667E+00 -3.54362144E-01  9.47808355E-01  3.66778596E+00
 -1.36840238E-01 -6.70999920E-01 -4.54774176E+00 -1.49297846E+00 -7.93771656E-01
 -2.08173405E+00 -3.91379095E+00 -1.23697249E-01 -1.72924437E+00  2.40436371E+00
 -4.13428565E-02  2.09121919E+00 -6.42277118E-01  2.95331197E+00  3.35835438E+00
  1.74740974E-01 -2.67555796E+00  5.61251919E+00 -2.62339224E-01 -3.35708697E-02
Force Field                                I                0
Int Atom Types                             I   N=          10
           0           0           0           0           0           0
           0           0           0           0
MM charges                                 R   N=          10
  0.00000000E+00  0.00000000E+00  0.00000000E+00  0.00000000E+00  0.00000000E+00
  0.00000000E+00  0.00000000E+00  0.00000000E+00  0.00000000E+00  0.00000000E+00
Integer atomic weights                     I   N=          10
          12          12          12          12           1           1
          19           1           1           1
Real atomic weights                        R   N=          10
  1.20000000E+01  1.20000000E+01  1.20000000E+01  1.20000000E+01  1.00782504E+00
  1.00782504E+00  1.89984032E+01  1.00782504E+00  1.00782504E+00  1.00782504E+00
Atom fragment info                         I   N=          10
           0           0           0           0           0           0
           0           0           0           0
Atom residue num                           I   N=          10
           0           0           0           0           0           0
           0           0           0           0
Nuclear spins                              I   N=          10
           0           0           0           0           1           1
           1           1           1           1
Nuclear ZEff                               R   N=          10
 -3.60000000E+00 -3.60000000E+00 -3.60000000E+00 -3.60000000E+00 -1.00000000E+00
 -1.00000000E+00 -6.75000000E+00 -1.00000000E+00 -1.00000000E+00 -1.00000000E+00
Nuclear ZNuc                               R   N=          10
  6.00000000E+00  6.00000000E+00  6.00000000E+00  6.00000000E+00  1.00000000E+00
  1.00000000E+00  9.00000000E+00  1.00000000E+00  1.00000000E+00  1.00000000E+00
Nuclear QMom                               R   N=          10
  0.00000000E+00  0.00000000E+00  0.00000000E+00  0.00000000E+00  0.00000000E+00
  0.00000000E+00  0.00000000E+00  0.00000000E+00  0.00000000E+00  0.00000000E+00
Nuclear GFac                               R   N=          10
  0.00000000E+00  0.00000000E+00  0.00000000E+00  0.00000000E+00  2.79284600E+00
  2.79284600E+00  2.62886700E+00  2.79284600E+00  2.79284600E+00  2.79284600E+00
MicOpt                                     I   N=          10
          -1          -1          -1          -1          -1          -1
          -1          -1          -1          -1
Number of contracted shells                I               30
Number of primitive shells                 I               75
Pure/Cartesian d shells                    I                1
Pure/Cartesian f shells                    I                0
Highest angular momentum                   I                1
Largest degree of contraction              I                6
Shell types                                I   N=          30
           0          -1          -1          -1           0          -1
          -1          -1           0          -1          -1          -1
           0          -1          -1          -1           0           0
           0           0           0          -1          -1          -1
           0           0           0           0           0           0
Number of primitives per shell             I   N=          30
           6           3           1           1           6           3
           1           1           6           3           1           1
           6           3           1           1           3           1
           3           1           6           3           1           1
           3           1           3           1           3           1
Shell to atom map                          I   N=          30
           1           1           1           1           2           2
           2           2           3           3           3           3
           4           4           4           4           5           5
           6           6           7           7           7           7
           8           8           9           9          10          10
Primitive exponents                        R   N=          75
  3.04752488E+03  4.57369518E+02  1.03948685E+02  2.92101553E+01  9.28666296E+00
  3.16392696E+00  7.86827235E+00  1.88128854E+00  5.44249258E-01  1.68714478E-01
  4.38000000E-02  3.04752488E+03  4.57369518E+02  1.03948685E+02  2.92101553E+01
  9.28666296E+00  3.16392696E+00  7.86827235E+00  1.88128854E+00  5.44249258E-01
  1.68714478E-01  4.38000000E-02  3.04752488E+03  4.57369518E+02  1.03948685E+02
  2.92101553E+01  9.28666296E+00  3.16392696E+00  7.86827235E+00  1.88128854E+00
  5.44249258E-01  1.68714478E-01  4.38000000E-02  3.04752488E+03  4.57369518E+02
  1.03948685E+02  2.92101553E+01  9.28666296E+00  3.16392696E+00  7.86827235E+00
  1.88128854E+00  5.44249258E-01  1.68714478E-01  4.38000000E-02  1.87311370E+01
  2.82539436E+00  6.40121692E-01  1.61277759E-01  1.87311370E+01  2.82539436E+00
  6.40121692E-01  1.61277759E-01  7.00171309E+03  1.05136609E+03  2.39285690E+02
  6.73974453E+01  2.15199573E+01  7.40310130E+00  2.08479528E+01  4.80830834E+00
  1.34406986E+00  3.58151393E-01  1.07600000E-01  1.87311370E+01  2.82539436E+00
  6.40121692E-01  1.61277759E-01  1.87311370E+01  2.82539436E+00  6.40121692E-01
  1.61277759E-01  1.87311370E+01  2.82539436E+00  6.40121692E-01  1.61277759E-01
Contraction coefficients                   R   N=          75
  1.83473713E-03  1.40373228E-02  6.88426223E-02  2.32184443E-01  4.67941348E-01
  3.62311985E-01 -1.19332420E-01 -1.60854152E-01  1.14345644E+00  1.00000000E+00
  1.00000000E+00  1.83473713E-03  1.40373228E-02  6.88426223E-02  2.32184443E-01
  4.67941348E-01  3.62311985E-01 -1.19332420E-01 -1.60854152E-01  1.14345644E+00
  1.00000000E+00  1.00000000E+00  1.83473713E-03  1.40373228E-02  6.88426223E-02
  2.32184443E-01  4.67941348E-01  3.62311985E-01 -1.19332420E-01 -1.60854152E-01
  1.14345644E+00  1.00000000E+00  1.00000000E+00  1.83473713E-03  1.40373228E-02
  6.88426223E-02  2.32184443E-01  4.67941348E-01  3.62311985E-01 -1.19332420E-01
 -1.60854152E-01  1.14345644E+00  1.00000000E+00  1.00000000E+00  3.34946043E-02
  2.34726953E-01  8.13757326E-01  1.00000000E+00  3.34946043E-02  2.34726953E-01
  8.13757326E-01  1.00000000E+00  1.81961690E-03  1.39160796E-02  6.84053245E-02
  2.33185760E-01  4.71267439E-01  3.56618546E-01 -1.08506975E-01 -1.46451658E-01
  1.12868858E+00  1.00000000E+00  1.00000000E+00  3.34946043E-02  2.34726953E-01
  8.13757326E-01  1.00000000E+00  3.34946043E-02  2.34726953E-01  8.13757326E-01
  1.00000000E+00  3.34946043E-02  2.34726953E-01  8.13757326E-01  1.00000000E+00
P(S=P) Contraction coefficients            R   N=          75
  0.00000000E+00  0.00000000E+00  0.00000000E+00  0.00000000E+00  0.00000000E+00
  0.00000000E+00  6.89990666E-02  3.16423961E-01  7.44308291E-01  1.00000000E+00
  1.00000000E+00  0.00000000E+00  0.00000000E+00  0.00000000E+00  0.00000000E+00
  0.00000000E+00  0.00000000E+00  6.89990666E-02  3.16423961E-01  7.44308291E-01
  1.00000000E+00  1.00000000E+00  0.00000000E+00  0.00000000E+00  0.00000000E+00
  0.00000000E+00  0.00000000E+00  0.00000000E+00  6.89990666E-02  3.16423961E-01
  7.44308291E-01  1.00000000E+00  1.00000000E+00  0.00000000E+00  0.00000000E+00
  0.00000000E+00  0.00000000E+00  0.00000000E+00  0.00000000E+00  6.89990666E-02
  3.16423961E-01  7.44308291E-01  1.00000000E+00  1.00000000E+00  0.00000000E+00
  0.00000000E+00  0.00000000E+00  0.00000000E+00  0.00000000E+00  0.00000000E+00
  0.00000000E+00  0.00000000E+00  0.00000000E+00  0.00000000E+00  0.00000000E+00
  0.00000000E+00  0.00000000E+00  0.00000000E+00  7.16287242E-02  3.45912103E-01
  7.22469956E-01  1.00000000E+00  1.00000000E+00  0.00000000E+00  0.00000000E+00
  0.00000000E+00  0.00000000E+00  0.00000000E+00  0.00000000E+00  0.00000000E+00
  0.00000000E+00  0.00000000E+00  0.00000000E+00  0.00000000E+00  0.00000000E+00
Coordinates of each shell                  R   N=          90
 -2.62130148E+00 -1.94593122E+00 -2.73720482E-01 -2.62130148E+00 -1.94593122E+00
 -2.73720482E-01 -2.62130148E+00 -1.94593122E+00 -2.73720482E-01 -2.62130148E+00
 -1.94593122E+00 -2.73720482E-01 -9.33494089E-01 -1.46637832E-01  1.71140626E-01
 -9.33494089E-01 -1.46637832E-01  1.71140626E-01 -9.33494089E-01 -1.46637832E-01
  1.71140626E-01 -9.33494089E-01 -1.46637832E-01  1.71140626E-01  1.74210667E+00
 -3.54362144E-01  9.47808355E-01  1.74210667E+00 -3.54362144E-01  9.47808355E-01
  1.74210667E+00 -3.54362144E-01  9.47808355E-01  1.74210667E+00 -3.54362144E-01
  9.47808355E-01  3.66778596E+00 -1.36840238E-01 -6.70999920E-01  3.66778596E+00
 -1.36840238E-01 -6.70999920E-01  3.66778596E+00 -1.36840238E-01 -6.70999920E-01
  3.66778596E+00 -1.36840238E-01 -6.70999920E-01 -4.54774176E+00 -1.49297846E+00
 -7.93771656E-01 -4.54774176E+00 -1.49297846E+00 -7.93771656E-01 -2.08173405E+00
 -3.91379095E+00 -1.23697249E-01 -2.08173405E+00 -3.91379095E+00 -1.23697249E-01
 -1.72924437E+00  2.40436371E+00 -4.13428565E-02 -1.72924437E+00  2.40436371E+00
 -4.13428565E-02 -1.72924437E+00  2.40436371E+00 -4.13428565E-02 -1.72924437E+00
  2.40436371E+00 -4.13428565E-02  2.09121919E+00 -6.42277118E-01  2.95331197E+00
  2.09121919E+00 -6.42277118E-01  2.95331197E+00  3.35835438E+00  1.74740974E-01
 -2.67555796E+00  3.35835438E+00  1.74740974E-01 -2.67555796E+00  5.61251919E+00
 -2.62339224E-01 -3.35708697E-02  5.61251919E+00 -2.62339224E-01 -3.35708697E-02
Constraint Structure                       R   N=          30
 -2.63718125E+00 -1.95180141E+00 -2.67575672E-01 -9.31075794E-01 -1.57553906E-01
  1.67828567E-01  1.74517134E+00 -3.50415922E-01  9.44825371E-01  3.68925169E+00
 -1.43413684E-01 -6.66995747E-01 -4.56447697E+00 -1.48906581E+00 -7.81611416E-01
 -2.11455696E+00 -3.92619112E+00 -1.22571317E-01 -1.73825119E+00  2.41695239E+00
 -4.76191094E-02  2.09378609E+00 -6.07949735E-01  2.95754433E+00  3.40103448E+00
  1.40623530E-01 -2.68001517E+00  5.63147818E+00 -2.50878881E-01 -1.32695574E-02
Num ILSW                                   I              100
ILSW                                       I   N=         100
           0           1           0           0           2           0
           0           0           0           0        4639          -1
           0           0           0           0           2           0
           0           0           0           0           1           0
           1           0           0           0           0           0
           0           0      100000           0          -1           0
           0           0           0           0           0           0
           0           0           0           1           0           0
           0           0           1           0           0           0
           0           0         121          41           0           0
           0           0          58           0           0           0
           0           0           0          10           0           0
           0           0           0           0           0           0
           0           0           0           0           0           0
           0           0           0           0           0           0
           0           0           0           0           0           0
           0           0           0           0
Num RLSW                                   I               41
RLSW                                       R   N=          41
  1.00000000E+00  1.00000000E+00  1.00000000E+00  1.00000000E+00  1.00000000E+00
  0.00000000E+00  2.00000000E-01  2.22036000E-01  0.00000000E+00  7.77964000E-01
  0.00000000E+00  2.00000000E-01  0.00000000E+00  0.00000000E+00  1.00000000E+00
  0.00000000E+00  0.00000000E+00  1.00000000E+00  0.00000000E+00  0.00000000E+00
  0.00000000E+00  0.00000000E+00  1.00000000E+00  0.00000000E+00  0.00000000E+00
  0.00000000E+00  0.00000000E+00  1.00000000E+00  0.00000000E+00  0.00000000E+00
  0.00000000E+00  0.00000000E+00  1.00000000E+00  0.00000000E+00  0.00000000E+00
  0.00000000E+00  0.00000000E+00  0.00000000E+00  1.00000000E+00  1.00000000E+00
  0.00000000E+00
MxBond                                     I                3
NBond                                      I   N=          10
           3           3           3           3           1           1
           1           1           1           1
IBond                                      I   N=          30
           2           5           6           1           3           7
           2           4           8           3           9          10
           1           0           0           1           0           0
           2           0           0           3           0           0
           4           0           0           4           0           0
RBond                                      R   N=          30
  2.00000000E+00  1.00000000E+00  1.00000000E+00  2.00000000E+00  1.00000000E+00
  1.00000000E+00  1.00000000E+00  2.00000000E+00  1.00000000E+00  2.00000000E+00
  1.00000000E+00  1.00000000E+00  1.00000000E+00  0.00000000E+00  0.00000000E+00
  1.00000000E+00  0.00000000E+00  0.00000000E+00  1.00000000E+00  0.00000000E+00
  0.00000000E+00  1.00000000E+00  0.00000000E+00  0.00000000E+00  1.00000000E+00
  0.00000000E+00  0.00000000E+00  1.00000000E+00  0.00000000E+00  0.00000000E+00
Virial Ratio                               R      2.005642090386608E+00
SCF Energy                                 R     -2.550923717369629E+02
Total Energy                               R     -2.550923717369629E+02
RMS Force                                  R      2.439548917708343E-04
RMS Density                                R      6.352605013105499E-09
External E-field                           R   N=          35
  0.00000000E+00  0.00000000E+00  0.00000000E+00  0.00000000E+00  0.00000000E+00
  0.00000000E+00  0.00000000E+00  0.00000000E+00  0.00000000E+00  0.00000000E+00
  0.00000000E+00  0.00000000E+00  0.00000000E+00  0.00000000E+00  0.00000000E+00
  0.00000000E+00  0.00000000E+00  0.00000000E+00  0.00000000E+00  0.00000000E+00
  0.00000000E+00  0.00000000E+00  0.00000000E+00  0.00000000E+00  0.00000000E+00
  0.00000000E+00  0.00000000E+00  0.00000000E+00  0.00000000E+00  0.00000000E+00
  0.00000000E+00  0.00000000E+00  0.00000000E+00  0.00000000E+00  0.00000000E+00
IOpCl                                      I                0
IROHF                                      I                0
Alpha Orbital Energies                     R   N=          75
 -2.48268134E+01 -1.04004900E+01 -1.03300771E+01 -1.03208070E+01 -1.03077815E+01
 -1.30476086E+00 -9.27074088E-01 -8.62389236E-01 -7.34429159E-01 -6.56916755E-01
 -6.04046789E-01 -5.77561888E-01 -5.61723741E-01 -5.23446504E-01 -5.06610410E-01
 -4.84842386E-01 -4.49601647E-01 -3.77543331E-01 -3.52050132E-01  3.79116695E-02
  5.92952008E-02  7.83492245E-02  8.44643297E-02  9.68590352E-02  1.13553729E-01
  1.16606661E-01  1.33376318E-01  1.38679480E-01  1.42846756E-01  1.59337107E-01
  1.76608782E-01  1.80865437E-01  1.84193535E-01  1.97340579E-01  2.01060884E-01
  2.34052405E-01  2.48116977E-01  2.66157473E-01  2.83809839E-01  2.90577123E-01
  3.10138795E-01  3.26733362E-01  3.89913582E-01  4.08618106E-01  4.32698975E-01
  4.44389338E-01  4.68234667E-01  4.89940773E-01  5.00478341E-01  5.19043179E-01
  6.88331599E-01  7.35950908E-01  7.70871352E-01  7.87454361E-01  8.06638906E-01
  8.22353683E-01  8.51943149E-01  9.09732127E-01  9.13246724E-01  9.36347148E-01
  1.02281781E+00  1.05004469E+00  1.07071485E+00  1.12216764E+00  1.13165960E+00
  1.16766406E+00  1.21659725E+00  1.23786843E+00  1.32579720E+00  1.39764016E+00
  1.47485163E+00  1.68019947E+00  1.83663650E+00  1.85554328E+00  2.36493052E+00
Alpha MO coefficients                      R   N=        5625
  1.11968905E-05 -7.52240056E-05 -1.51009646E-04 -1.50081064E-05 -3.50683737E-05
  4.30624322E-05  2.06099248E-03 -2.26467116E-03  5.67895272E-04  1.21716113E-02
  2.36273340E-03  2.33887656E-03  5.43330585E-04 -2.46316097E-05  3.39041019E-04
 -1.55814591E-04  5.82433125E-04 -1.51391323E-06 -5.12201852E-05 -2.30063474E-03
  2.63163969E-03 -7.36071127E-04 -2.39700695E-02 -2.69146768E-04 -2.10917332E-04
 -5.31441843E-04 -9.18644285E-06 -2.66975158E-04  8.97230648E-05 -4.14110021E-05
  6.17407389E-05  1.81097059E-03 -1.19144484E-03 -8.50439892E-04 -6.91008719E-04
 -8.10757582E-03 -5.23562699E-03  7.48839470E-04  3.33407879E-03  7.63472513E-06
  1.27637345E-04 -4.20563574E-05  7.15031455E-05 -6.26665764E-05 -1.54955335E-04
  3.86097845E-04 -3.50034070E-05  7.11836461E-04  1.62570647E-02 -3.28137592E-03
 -4.81838640E-04  2.13193953E-03  3.28040098E-04  1.01012992E-03 -2.72372710E-04
 -1.51302515E-03  9.95026149E-01  2.75855219E-02  3.68720808E-04 -1.20717551E-03
  1.02221992E-04 -1.52782781E-02 -5.63950583E-04  1.97344074E-03 -1.54409202E-04
  9.21672840E-03  5.73401445E-04 -1.15263209E-03  2.04711644E-04  2.79333299E-06
  5.51361603E-04  1.15340908E-04  4.90330273E-04 -3.43797223E-05 -3.80002869E-04
  4.82595701E-03 -1.15498375E-03 -6.82910962E-04 -5.64046053E-04 -1.78961051E-04
  8.52806046E-03  3.76431634E-03  1.54496271E-03  1.06322714E-03 -2.01570554E-02
 -4.20099308E-03 -3.56330198E-03 -1.18257286E-03  9.95505452E-01  3.63526518E-02
 -3.83936209E-04  1.02648481E-03 -7.96976239E-05 -3.56606934E-02 -3.16310684E-04
  5.56209650E-04 -3.19079761E-04  4.94888572E-02  5.25805750E-03 -5.43596844E-03
  2.59046436E-03  1.95488642E-03 -1.92683961E-04  5.23144311E-04 -3.04936162E-05
  1.33751363E-04  3.50228631E-03 -4.60452099E-03 -2.43534155E-04 -2.70592974E-04
 -3.43507390E-03  1.30018032E-02  1.98794929E-04 -3.46774470E-03 -1.59621443E-04
 -6.41724233E-04  1.58671804E-04  4.09362280E-05  2.52696880E-05  2.52814945E-03
 -1.22004397E-03 -1.57624933E-04  6.84141653E-04 -2.48664516E-02  4.66255936E-03
  7.55793822E-04 -3.73542951E-03 -3.73624946E-05  4.59087529E-04 -2.69466758E-04
 -1.31762990E-03  3.84730757E-05  6.41215407E-04 -1.36555575E-05 -8.58169006E-05
 -1.12921562E-05 -5.99032535E-04 -6.09050009E-05  7.92321009E-04  2.53921780E-05
  6.51059851E-03  9.53663758E-04 -4.57980699E-03  2.03825535E-04 -2.15090382E-04
  5.16025943E-04 -2.48804123E-04  2.25371983E-04 -5.94540364E-05  8.33625366E-04
 -5.53678807E-04 -5.41643035E-04 -1.56487571E-04  4.25718980E-05 -3.02716389E-05
  2.58319529E-03  9.63841926E-06  1.36455465E-03  9.85974331E-05 -3.14898245E-02
 -5.11073523E-03 -5.15521816E-03 -1.15575316E-03 -1.82061061E-03 -2.40326697E-04
 -6.43551403E-04  1.78400368E-05 -2.68974374E-04  4.01287208E-03  6.84470182E-03
 -9.67834199E-04  1.48413176E-03 -9.31734477E-04 -1.52199944E-02 -7.80690345E-03
 -2.66079358E-03  9.94345383E-01  3.64293379E-02 -2.33981476E-04  1.22690948E-04
 -4.82333651E-04 -3.56738704E-02  2.04059531E-03 -8.30148518E-04  4.67187161E-03
  7.64841820E-02 -5.90537340E-04  3.39506787E-03 -1.40777117E-02  4.60910877E-02
  3.16672946E-04  7.00291519E-04  8.22047109E-05 -5.94705233E-04  8.32445187E-03
 -4.66057176E-03 -1.34165194E-04  1.51818689E-03 -4.21152501E-02  8.69502344E-03
  8.31452641E-04 -5.33190072E-03 -1.27028290E-04 -2.02213807E-05 -1.04112692E-04
  3.11628672E-04 -2.19169922E-06 -2.13703528E-04 -9.88861317E-05  1.73199844E-04
 -3.16768448E-05  1.86106682E-04  6.76069650E-05 -8.11728190E-04  4.77713695E-05
  2.27352764E-03  3.90607978E-04 -7.59318168E-04  1.68718760E-04 -6.21163479E-04
  2.56999617E-03 -3.53009374E-04 -8.57970286E-04 -1.19334211E-04  1.08613294E-03
 -1.80079382E-04 -9.00277515E-05  1.66476137E-04 -2.15980641E-05  3.09241801E-05
  6.03636094E-04 -1.52902433E-03  5.75658362E-04 -4.26180021E-04 -2.68168288E-02
 -4.07738463E-03 -4.29741332E-03 -1.57568919E-03  1.17234369E-04 -6.49103298E-04
 -2.04991256E-04  3.42499555E-05 -1.64343714E-05  2.64049317E-03  1.47855195E-03
 -2.89463296E-04  9.07361786E-04 -1.01973208E-02 -1.58516545E-02 -6.43827971E-03
 -2.40655647E-03 -4.63347917E-02 -2.84568751E-03 -8.33253109E-04 -1.36060597E-04
  8.48592666E-04  9.26613155E-03  5.76943974E-03  5.41536949E-04 -3.90137451E-03
  1.72924023E-02 -1.43499487E-02  1.84146009E-03 -2.75191438E-03  9.94270941E-01
  3.55037956E-02 -4.38849537E-04 -5.90348422E-05  3.41157922E-04 -3.19299710E-02
  3.53729557E-03  4.32970863E-04 -3.02247572E-03  2.13719791E-02 -4.86776440E-03
 -6.30978517E-04  5.43918315E-03 -1.41177298E-04 -9.04953343E-04  1.18068228E-04
  6.04303969E-04  4.56195381E-06  1.15540400E-04  8.77797117E-05 -9.26160220E-06
 -1.42782292E-05 -2.51741207E-04 -4.71824139E-04  7.32743037E-05  5.78217757E-05
  5.86061080E-05  4.14848357E-05  2.72250590E-04 -4.72407530E-04  2.68859073E-05
 -3.92900738E-04 -5.96440372E-04  3.61684321E-03 -6.92502572E-04  4.10330436E-03
  9.95295230E-01  3.56828405E-02  5.81365698E-04  4.57600862E-04  1.38231788E-04
 -3.25292555E-02 -3.83392467E-03 -3.38765070E-03 -1.03319238E-03  1.99403678E-02
  2.89325169E-03  6.20327487E-03  7.39532856E-04 -5.11396419E-03 -1.52936470E-03
  8.61579662E-04  9.14943959E-04  2.28592007E-04  9.47326124E-03 -5.17614512E-03
 -5.39333013E-03 -1.08872624E-03  2.45135586E-02  1.67383646E-02 -8.34398381E-04
  5.92915035E-03  4.55490064E-04 -4.55378207E-04  1.28549610E-04  5.14906161E-05
  1.17458894E-04  2.48386025E-03 -2.73300300E-04  9.03301644E-04 -1.55418007E-03
 -1.60146573E-02  1.75894523E-02  8.65462944E-04 -2.74178748E-03  1.98382051E-04
 -6.11651472E-05 -1.36476019E-04 -2.02160917E-05 -4.08800473E-05 -6.26693511E-04
  1.86621562E-03 -3.23402313E-05  5.88145179E-05 -2.65229644E-02  4.65349791E-03
  5.07923502E-04 -4.06087776E-03 -7.18633374E-04  3.79618423E-03 -5.73637194E-04
  3.83604550E-03 -1.69349141E-06 -1.52326937E-04 -6.17004567E-06  1.15516189E-04
 -2.06110888E-05  2.07966187E-04  2.50598769E-04 -3.05092039E-04  1.47901738E-04
 -2.65399248E-05 -1.55506142E-05  1.80594592E-04 -2.79318254E-04  2.71026479E-05
  5.65118629E-04  1.29207270E-04  2.37944499E-04 -1.11596765E-04 -7.90291805E-04
 -9.95017547E-03  1.90730068E-02  8.00682177E-03  1.46863033E-02  2.12631717E-03
  3.25529943E-03 -2.41170581E-02  2.42375635E-02 -6.70016741E-03 -8.93122411E-02
 -2.07835468E-02 -1.37652880E-02 -5.71815613E-03 -5.86539016E-02  1.14500038E-01
 -2.92156808E-02  8.95089680E-02 -7.73862074E-03  3.71262015E-02  2.96031544E-02
 -3.96150579E-02  8.80254923E-03  1.77424265E-01  8.84138335E-03 -7.19805780E-03
  5.32965256E-03 -8.57047651E-03  1.71021511E-02 -1.23906843E-02  5.84449479E-03
 -4.31450983E-03 -1.06111988E-02  1.41330727E-02  1.12470153E-02  6.08099693E-03
 -1.57937184E-02  2.96893178E-02 -7.03082311E-03 -7.89178821E-03 -1.72948129E-03
  2.32611127E-03 -1.98094074E-03 -2.07655247E-04  1.16415858E-03 -1.79500673E-04
 -2.72507415E-03 -4.49945990E-05 -6.07817520E-03 -5.57247685E-02  1.05531980E-02
  2.77400278E-03 -7.99940185E-03  8.55364269E-04 -1.26826106E-02  3.37344918E-03
  1.63763377E-02 -2.25869216E-01  4.79472134E-01  2.85821549E-02 -9.22878436E-02
  7.79873134E-03  5.43319229E-01  2.16237426E-02 -7.27306563E-02  5.96856661E-03
 -1.50514619E-02 -4.68464297E-03  1.14407339E-02 -1.81888731E-03  1.81932758E-03
 -4.98845027E-03  5.52531234E-05 -3.98618547E-03  6.00196399E-04  2.37543138E-03
 -8.57350477E-02  1.66127158E-01  6.17724763E-02  4.52903201E-02  1.57730980E-02
  1.23940952E-01  3.87193677E-04  9.93643044E-03  1.63645948E-03  8.84828648E-02
  1.03615399E-02  1.86949335E-02  2.67154974E-03 -1.21247403E-01  2.42813711E-01
  3.69980188E-02 -7.53391201E-02  7.33202875E-03  1.76769434E-01  2.90251404E-02
  2.86949209E-03  2.42648717E-03 -1.71500963E-02  4.35597745E-02  1.38062467E-02
  8.59144080E-03 -1.39895918E-01  2.72442376E-01 -8.25558013E-03  4.08022113E-03
 -5.70464246E-02  1.79511667E-01 -1.11844184E-03 -5.74771000E-03  4.80027131E-03
 -1.13144717E-01  1.28251786E-02 -4.59540196E-03  2.13910003E-02 -9.91192859E-02
  1.92399965E-01 -6.98032065E-02 -7.44804162E-03  4.79055007E-02  1.35794477E-01
 -3.46080832E-03  5.56312268E-04  8.20326805E-04  4.52098245E-02 -1.20072523E-02
 -1.12184323E-03  3.61171273E-03  3.54933743E-02 -1.77173466E-03  4.45656109E-02
  1.14202253E-02  4.62706800E-02 -1.04242381E-01  2.22916487E-02 -5.36787670E-02
  4.86280187E-03 -1.29954192E-01  8.10738549E-03 -2.33921023E-02  2.04553031E-03
 -2.53535736E-02 -7.57510752E-03  8.58601925E-03 -1.54800833E-03  6.72669060E-02
  4.02135809E-03  4.86007615E-02  5.77808269E-03  4.47507706E-02  3.97806503E-03
 -1.39680140E-01  2.69196475E-01  5.48277909E-02  6.39275476E-02  1.62629318E-02
  2.07209090E-01  2.83823293E-03 -2.32920931E-03  2.54927475E-04 -6.66299454E-02
 -7.77771228E-03 -1.18789403E-02 -1.55751124E-03 -8.81159578E-02  1.82972717E-01
 -1.37530926E-01 -1.04976477E-01 -2.72426136E-02  1.18678115E-01 -2.81685218E-02
 -1.32296183E-02 -8.42724113E-04 -8.97368049E-02 -5.90148030E-02 -1.72664748E-02
 -1.91410728E-02  8.34845752E-02 -1.64756851E-01 -1.08999159E-01 -1.72241042E-02
  4.59505011E-02 -1.13359530E-01 -2.09212786E-02 -2.71847878E-03 -8.54447870E-03
  1.01436944E-01 -6.55334751E-02  7.25944701E-03 -6.62705661E-03  1.16733205E-01
 -2.26335318E-01  4.61748191E-02  4.11160764E-03 -4.84081607E-02 -1.84069391E-01
  6.72018984E-03 -5.16057766E-04  4.26526060E-03  5.38565267E-02 -4.66314685E-03
 -2.16916354E-03  1.39494291E-02  7.83150200E-02  1.54495611E-02  7.68801993E-02
  1.11877806E-02  2.80562413E-02 -6.41876941E-02 -1.69464733E-02 -6.27520524E-02
 -1.74111284E-03 -8.04073514E-02 -7.91712728E-03 -3.30275394E-02 -1.08663560E-03
 -1.16955205E-02 -2.77969280E-03  3.57784793E-03 -9.70273041E-04 -4.56896849E-02
 -5.51857378E-03 -6.27857143E-02 -5.65601525E-03 -6.82857919E-02 -1.74021200E-02
 -9.20504716E-02  1.80086528E-01 -4.95121987E-02 -1.34531587E-02 -1.99416082E-02
  1.66151055E-01 -1.74583626E-02 -1.01309229E-02 -5.73319417E-03 -6.52964210E-02
 -9.13117497E-03 -1.68975512E-02 -8.24793402E-04  6.84570607E-02 -1.46613973E-01
 -1.89713354E-01 -7.52028912E-02 -7.79426859E-02 -1.44865622E-01 -5.15376624E-02
 -1.99785363E-02 -2.32615860E-02  5.33882093E-02 -2.72213376E-02 -8.77176260E-03
 -8.59370430E-03  7.26640423E-02 -1.48572621E-01  1.93522652E-01 -9.75616015E-03
 -6.70520845E-02 -1.35421224E-01  3.63317062E-02 -3.49501129E-03 -2.80354852E-02
  1.40582092E-01  2.81274200E-02  2.53981482E-03 -2.75631120E-02 -1.18775937E-01
  2.37057204E-01  6.95810767E-02 -1.06153360E-03 -3.02349323E-02  2.24151882E-01
  3.03229194E-02 -1.07263882E-03 -8.20201877E-03 -1.20596519E-01  2.64060833E-02
  2.67602090E-03 -1.94853941E-02  9.55793282E-02  3.42258641E-02  7.52030197E-02
  2.48331933E-02 -2.62692891E-02  6.09613467E-02 -9.75334598E-02  8.10505286E-02
 -3.79374725E-02  7.80101422E-02 -5.40574488E-02  4.32934442E-02 -2.15003052E-02
  2.73730855E-02  1.52624735E-03 -7.87749897E-03  1.48642075E-03 -7.29849914E-02
 -2.07095194E-02  1.05991596E-01  4.02424986E-02  1.21185308E-01  4.11596619E-02
 -5.63372564E-02  1.10278684E-01 -4.88646248E-02 -1.47409278E-01 -1.15595942E-03
  1.32569630E-01  5.94741605E-04 -5.46335127E-02  5.05858234E-03  5.44265010E-02
  1.06763006E-02 -4.78088304E-03  2.10916108E-03  7.78569160E-02 -1.72252523E-01
  7.21807365E-02 -1.36745230E-01  5.56855518E-02 -1.76833471E-01  1.24521869E-03
 -2.64251743E-02  1.20050459E-02 -1.24883282E-01 -1.58614448E-02  2.98997428E-02
 -1.86467750E-03 -7.58483308E-02  1.51149547E-01  5.97349589E-02 -4.36297491E-02
  1.29857080E-01  1.75603096E-01  5.29472037E-04 -2.14530369E-02  5.27642530E-02
  1.58115199E-02 -2.73039210E-02 -9.14061507E-03  7.31304645E-03  4.97662865E-02
 -9.92919370E-02 -5.55839753E-02 -2.74696603E-02  1.35676735E-01 -1.09025113E-01
 -1.59341955E-02 -9.70629459E-03  4.61865966E-02  5.75932501E-02 -1.62225576E-02
 -1.05582069E-03  1.33600887E-02  6.29161579E-02  3.50141620E-02  1.16624966E-01
  5.00642558E-02 -4.83567198E-02  1.13541119E-01 -8.75903548E-02  3.13595015E-01
  8.96354384E-04  1.42825602E-01 -4.94939271E-02  1.81995671E-01  1.70824895E-03
  5.56597937E-02 -5.36340822E-04 -1.45740988E-03  4.44230695E-04  1.40010461E-01
  5.98058234E-02 -1.08793479E-01 -5.00457230E-02 -5.29175257E-02 -2.51547390E-02