 Entering Gaussian System, Link 0=/opt/cluster/programs/g09_d.01/g09//g09
 Input=/home/unibas/boittier/RDKit_G2/L.pdb/SCAN_1_2_3_4_S_17_20.0/12_SCAN_1_2_3_4_F/12_SCAN_L.pdb.com
 Output=/scratch/boittier/12_SCAN_L.pdb/12_SCAN_L.pdb.out
 Initial command:
 /opt/cluster/programs/g09_d.01/g09/l1.exe "/scratch/boittier/12_SCAN_L.pdb/Gau-186424.inp" -scrdir="/scratch/boittier/12_SCAN_L.pdb/"
 Entering Link 1 = /opt/cluster/programs/g09_d.01/g09/l1.exe PID=    186426.
  
 Copyright (c) 1988,1990,1992,1993,1995,1998,2003,2009,2013,
            Gaussian, Inc.  All Rights Reserved.
  
 This is part of the Gaussian(R) 09 program.  It is based on
 the Gaussian(R) 03 system (copyright 2003, Gaussian, Inc.),
 the Gaussian(R) 98 system (copyright 1998, Gaussian, Inc.),
 the Gaussian(R) 94 system (copyright 1995, Gaussian, Inc.),
 the Gaussian 92(TM) system (copyright 1992, Gaussian, Inc.),
 the Gaussian 90(TM) system (copyright 1990, Gaussian, Inc.),
 the Gaussian 88(TM) system (copyright 1988, Gaussian, Inc.),
 the Gaussian 86(TM) system (copyright 1986, Carnegie Mellon
 University), and the Gaussian 82(TM) system (copyright 1983,
 Carnegie Mellon University). Gaussian is a federally registered
 trademark of Gaussian, Inc.
  
 This software contains proprietary and confidential information,
 including trade secrets, belonging to Gaussian, Inc.
  
 This software is provided under written license and may be
 used, copied, transmitted, or stored only in accord with that
 written license.
  
 The following legend is applicable only to US Government
 contracts under FAR:
  
                    RESTRICTED RIGHTS LEGEND
  
 Use, reproduction and disclosure by the US Government is
 subject to restrictions as set forth in subparagraphs (a)
 and (c) of the Commercial Computer Software - Restricted
 Rights clause in FAR 52.227-19.
  
 Gaussian, Inc.
 340 Quinnipiac St., Bldg. 40, Wallingford CT 06492
  
  
 ---------------------------------------------------------------
 Warning -- This program may not be used in any manner that
 competes with the business of Gaussian, Inc. or will provide
 assistance to any competitor of Gaussian, Inc.  The licensee
 of this program is prohibited from giving any competitor of
 Gaussian, Inc. access to this program.  By using this program,
 the user acknowledges that Gaussian, Inc. is engaged in the
 business of creating and licensing software in the field of
 computational chemistry and represents and warrants to the
 licensee that it is not a competitor of Gaussian, Inc. and that
 it will not use this program in any manner prohibited above.
 ---------------------------------------------------------------
  

 Cite this work as:
 Gaussian 09, Revision D.01,
 M. J. Frisch, G. W. Trucks, H. B. Schlegel, G. E. Scuseria, 
 M. A. Robb, J. R. Cheeseman, G. Scalmani, V. Barone, B. Mennucci, 
 G. A. Petersson, H. Nakatsuji, M. Caricato, X. Li, H. P. Hratchian, 
 A. F. Izmaylov, J. Bloino, G. Zheng, J. L. Sonnenberg, M. Hada, 
 M. Ehara, K. Toyota, R. Fukuda, J. Hasegawa, M. Ishida, T. Nakajima, 
 Y. Honda, O. Kitao, H. Nakai, T. Vreven, J. A. Montgomery, Jr., 
 J. E. Peralta, F. Ogliaro, M. Bearpark, J. J. Heyd, E. Brothers, 
 K. N. Kudin, V. N. Staroverov, T. Keith, R. Kobayashi, J. Normand, 
 K. Raghavachari, A. Rendell, J. C. Burant, S. S. Iyengar, J. Tomasi, 
 M. Cossi, N. Rega, J. M. Millam, M. Klene, J. E. Knox, J. B. Cross, 
 V. Bakken, C. Adamo, J. Jaramillo, R. Gomperts, R. E. Stratmann, 
 O. Yazyev, A. J. Austin, R. Cammi, C. Pomelli, J. W. Ochterski, 
 R. L. Martin, K. Morokuma, V. G. Zakrzewski, G. A. Voth, 
 P. Salvador, J. J. Dannenberg, S. Dapprich, A. D. Daniels, 
 O. Farkas, J. B. Foresman, J. V. Ortiz, J. Cioslowski, 
 and D. J. Fox, Gaussian, Inc., Wallingford CT, 2013.
 
 ******************************************
 Gaussian 09:  ES64L-G09RevD.01 24-Apr-2013
                12-May-2021 
 ******************************************
 %chk=/home/unibas/boittier/RDKit_G2/L.pdb/SCAN_1_2_3_4_S_17_20.0/12_SCAN_1_2_3_4
 _F/L.pdb.chk
 %nproc=8
 Will use up to    8 processors via shared memory.
 %mem=16GB
 -----------------------------
 #p wB97XD/6-31+G Opt=ModRedun
 -----------------------------
 1/14=-1,18=120,19=15,26=3,38=1/1,3;
 2/9=110,12=2,17=6,18=5,40=1/2;
 3/5=1,6=6,7=10,11=2,16=1,25=1,30=1,71=1,74=-58/1,2,3;
 4//1;
 5/5=2,38=5/2;
 6/7=2,8=2,9=2,10=2,28=1/1;
 7//1,2,3,16;
 1/14=-1,18=20,19=15,26=3/3(2);
 2/9=110/2;
 99//99;
 2/9=110/2;
 3/5=1,6=6,7=10,11=2,16=1,25=1,30=1,71=1,74=-58/1,2,3;
 4/5=5,16=3,69=1/1;
 5/5=2,38=5/2;
 7//1,2,3,16;
 1/14=-1,18=20,19=15,26=3/3(-5);
 2/9=110/2;
 6/7=2,8=2,9=2,10=2,19=2,28=1/1;
 99/9=1/99;
 Leave Link    1 at Wed May 12 11:58:23 2021, MaxMem=  2147483648 cpu:         0.2
 (Enter /opt/cluster/programs/g09_d.01/g09/l101.exe)
 -----
 L.pdb
 -----
 Symbolic Z-matrix:
 Charge =  0 Multiplicity = 1
 C                     1.57038   0.41981   0.07957 
 C                     0.6477   -0.52209  -0.17328 
 C                    -0.77695  -0.39321   0.2132 
 O                    -1.54199   0.50531  -0.17329 
 H                    -1.17207  -1.20754   0.84743 
 H                     2.62137   0.26222  -0.14248 
 H                     1.29685   1.38001   0.5088 
 H                     0.94298  -1.50423  -0.54436 
 
 The following ModRedundant input section has been read:
 D       1       2       3       4 F                                           
 
 NAtoms=      8 NQM=        8 NQMF=       0 NMMI=      0 NMMIF=      0
                NMic=       0 NMicF=      0.
                    Isotopes and Nuclear Properties:
 (Nuclear quadrupole moments (NQMom) in fm**2, nuclear magnetic moments (NMagM)
  in nuclear magnetons)

  Atom         1           2           3           4           5           6           7           8
 IAtWgt=          12          12          12          16           1           1           1           1
 AtmWgt=  12.0000000  12.0000000  12.0000000  15.9949146   1.0078250   1.0078250   1.0078250   1.0078250
 NucSpn=           0           0           0           0           1           1           1           1
 AtZEff=   0.0000000   0.0000000   0.0000000   0.0000000   0.0000000   0.0000000   0.0000000   0.0000000
 NQMom=    0.0000000   0.0000000   0.0000000   0.0000000   0.0000000   0.0000000   0.0000000   0.0000000
 NMagM=    0.0000000   0.0000000   0.0000000   0.0000000   2.7928460   2.7928460   2.7928460   2.7928460
 AtZNuc=   6.0000000   6.0000000   6.0000000   8.0000000   1.0000000   1.0000000   1.0000000   1.0000000
 Leave Link  101 at Wed May 12 11:58:24 2021, MaxMem=  2147483648 cpu:         4.2
 (Enter /opt/cluster/programs/g09_d.01/g09/l103.exe)

 GradGradGradGradGradGradGradGradGradGradGradGradGradGradGradGradGradGrad
 Berny optimization.
 Initialization pass.
                           ----------------------------
                           !    Initial Parameters    !
                           ! (Angstroms and Degrees)  !
 --------------------------                            --------------------------
 ! Name  Definition              Value          Derivative Info.                !
 --------------------------------------------------------------------------------
 ! R1    R(1,2)                  1.3426         estimate D2E/DX2                !
 ! R2    R(1,6)                  1.0857         estimate D2E/DX2                !
 ! R3    R(1,7)                  1.0868         estimate D2E/DX2                !
 ! R4    R(2,3)                  1.4818         estimate D2E/DX2                !
 ! R5    R(2,8)                  1.0906         estimate D2E/DX2                !
 ! R6    R(3,4)                  1.2418         estimate D2E/DX2                !
 ! R7    R(3,5)                  1.1052         estimate D2E/DX2                !
 ! A1    A(2,1,6)              121.664          estimate D2E/DX2                !
 ! A2    A(2,1,7)              121.4179         estimate D2E/DX2                !
 ! A3    A(6,1,7)              116.916          estimate D2E/DX2                !
 ! A4    A(1,2,3)              123.4099         estimate D2E/DX2                !
 ! A5    A(1,2,8)              120.6501         estimate D2E/DX2                !
 ! A6    A(3,2,8)              115.3011         estimate D2E/DX2                !
 ! A7    A(2,3,4)              125.0369         estimate D2E/DX2                !
 ! A8    A(2,3,5)              115.4242         estimate D2E/DX2                !
 ! A9    A(4,3,5)              119.4381         estimate D2E/DX2                !
 ! D1    D(6,1,2,3)            174.8806         estimate D2E/DX2                !
 ! D2    D(6,1,2,8)              4.4789         estimate D2E/DX2                !
 ! D3    D(7,1,2,3)             -5.661          estimate D2E/DX2                !
 ! D4    D(7,1,2,8)           -176.0628         estimate D2E/DX2                !
 ! D5    D(1,2,3,4)             60.0009         Frozen                          !
 ! D6    D(1,2,3,5)           -123.6869         estimate D2E/DX2                !
 ! D7    D(8,2,3,4)           -129.1285         estimate D2E/DX2                !
 ! D8    D(8,2,3,5)             47.1837         estimate D2E/DX2                !
 --------------------------------------------------------------------------------
 Trust Radius=3.00D-01 FncErr=1.00D-07 GrdErr=1.00D-06
 Number of steps in this run=     34 maximum allowed number of steps=    100.
 GradGradGradGradGradGradGradGradGradGradGradGradGradGradGradGradGradGrad

 Leave Link  103 at Wed May 12 11:58:24 2021, MaxMem=  2147483648 cpu:         0.1
 (Enter /opt/cluster/programs/g09_d.01/g09/l202.exe)
                          Input orientation:                          
 ---------------------------------------------------------------------
 Center     Atomic      Atomic             Coordinates (Angstroms)
 Number     Number       Type             X           Y           Z
 ---------------------------------------------------------------------
      1          6           0        1.570380    0.419810    0.079570
      2          6           0        0.647701   -0.522093   -0.173275
      3          6           0       -0.776945   -0.393209    0.213200
      4          8           0       -1.541993    0.505313   -0.173294
      5          1           0       -1.172071   -1.207539    0.847430
      6          1           0        2.621372    0.262217   -0.142481
      7          1           0        1.296846    1.380005    0.508798
      8          1           0        0.942978   -1.504230   -0.544356
 ---------------------------------------------------------------------
                    Distance matrix (angstroms):
                    1          2          3          4          5
     1  C    0.000000
     2  C    1.342553   0.000000
     3  C    2.487728   1.481752   0.000000
     4  O    3.123798   2.418744   1.241780   0.000000
     5  H    3.280078   2.196189   1.105217   2.027950   0.000000
     6  H    1.085692   2.124022   3.479174   4.170570   4.186922
     7  H    1.086753   2.122402   2.744499   3.047842   3.592437
     8  H    2.117746   1.090634   2.183207   3.217302   2.549221
                    6          7          8
     6  H    0.000000
     7  H    1.851481   0.000000
     8  H    2.469584   3.090820   0.000000
 Stoichiometry    C3H4O
 Framework group  C1[X(C3H4O)]
 Deg. of freedom    18
 Full point group                 C1      NOp   1
 Largest Abelian subgroup         C1      NOp   1
 Largest concise Abelian subgroup C1      NOp   1
                         Standard orientation:                         
 ---------------------------------------------------------------------
 Center     Atomic      Atomic             Coordinates (Angstroms)
 Number     Number       Type             X           Y           Z
 ---------------------------------------------------------------------
      1          6           0       -1.570380   -0.419810    0.079570
      2          6           0       -0.647701    0.522093   -0.173275
      3          6           0        0.776945    0.393209    0.213200
      4          8           0        1.541993   -0.505313   -0.173294
      5          1           0        1.172071    1.207539    0.847430
      6          1           0       -2.621372   -0.262217   -0.142481
      7          1           0       -1.296846   -1.380005    0.508798
      8          1           0       -0.942978    1.504230   -0.544356
 ---------------------------------------------------------------------
 Rotational constants (GHZ):     25.6420050      5.4115366      4.6952128
 Leave Link  202 at Wed May 12 11:58:24 2021, MaxMem=  2147483648 cpu:         0.0
 (Enter /opt/cluster/programs/g09_d.01/g09/l301.exe)
 Standard basis: 6-31+G (6D, 7F)
 Ernie: Thresh=  0.10000D-02 Tol=  0.10000D-05 Strict=F.
 There are    60 symmetry adapted cartesian basis functions of A   symmetry.
 There are    60 symmetry adapted basis functions of A   symmetry.
    60 basis functions,   120 primitive gaussians,    60 cartesian basis functions
    15 alpha electrons       15 beta electrons
       nuclear repulsion energy       102.8094230348 Hartrees.
 IExCor= 4639 DFT=T Ex+Corr=wB97XD ExCW=0 ScaHFX=  1.000000
 ScaDFX=  1.000000  1.000000  1.000000  1.000000 ScalE2=  1.000000  1.000000
 IRadAn=      0 IRanWt=     -1 IRanGd=            0 ICorTp=0 IEmpDi=121
  HFx wShort=  0.000000 wLong=  0.200000 cFull=  0.222036 cShort=  0.000000 cLong=  0.777964
  DFx wShort=  0.000000 wLong=  0.200000 cFull=  0.000000 cShort=  0.000000 cLong=  1.000000
 NAtoms=    8 NActive=    8 NUniq=    8 SFac= 1.00D+00 NAtFMM=   60 NAOKFM=F Big=F
 Integral buffers will be    131072 words long.
 Raffenetti 2 integral format.
 Two-electron integral symmetry is turned on.
 R6Disp:  Grimme-D2 Dispersion energy=       -0.0017966591 Hartrees.
 Nuclear repulsion after empirical dispersion term =      102.8076263757 Hartrees.
 Leave Link  301 at Wed May 12 11:58:24 2021, MaxMem=  2147483648 cpu:         0.3
 (Enter /opt/cluster/programs/g09_d.01/g09/l302.exe)
 NPDir=0 NMtPBC=     1 NCelOv=     1 NCel=       1 NClECP=     1 NCelD=      1
         NCelK=      1 NCelE2=     1 NClLst=     1 CellRange=     0.0.
 One-electron integrals computed using PRISM.
 NBasis=    60 RedAO= T EigKep=  1.36D-04  NBF=    60
 NBsUse=    60 1.00D-06 EigRej= -1.00D+00 NBFU=    60
 Precomputing XC quadrature grid using
 IXCGrd= 4 IRadAn=           0 IRanWt=          -1 IRanGd=           0 AccXCQ= 0.00D+00.
 Generated NRdTot=       0 NPtTot=           0 NUsed=           0 NTot=          32
 NSgBfM=    60    60    60    60    60 MxSgAt=     8 MxSgA2=     8.
 Leave Link  302 at Wed May 12 11:58:24 2021, MaxMem=  2147483648 cpu:         0.8
 (Enter /opt/cluster/programs/g09_d.01/g09/l303.exe)
 DipDrv:  MaxL=1.
 Leave Link  303 at Wed May 12 11:58:24 2021, MaxMem=  2147483648 cpu:         0.2
 (Enter /opt/cluster/programs/g09_d.01/g09/l401.exe)
 ExpMin= 4.38D-02 ExpMax= 5.48D+03 ExpMxC= 8.25D+02 IAcc=2 IRadAn=         4 AccDes= 0.00D+00
 Harris functional with IExCor= 4639 and IRadAn=       4 diagonalized for initial guess.
 HarFok:  IExCor= 4639 AccDes= 0.00D+00 IRadAn=         4 IDoV= 1 UseB2=F ITyADJ=14
 ICtDFT=  3500011 ScaDFX=  1.000000  1.000000  1.000000  1.000000
 FoFCou: FMM=F IPFlag=           0 FMFlag=      100000 FMFlg1=           0
         NFxFlg=           0 DoJE=T BraDBF=F KetDBF=T FulRan=T
         wScrn=  0.000000 ICntrl=     500 IOpCl=  0 I1Cent=   200000004 NGrid=           0
         NMat0=    1 NMatS0=      1 NMatT0=    0 NMatD0=    1 NMtDS0=    0 NMtDT0=    0
 Petite list used in FoFCou.
 Harris En= -183.742796549086    
 JPrj=0 DoOrth=F DoCkMO=F.
 Leave Link  401 at Wed May 12 11:58:24 2021, MaxMem=  2147483648 cpu:         1.0
 (Enter /opt/cluster/programs/g09_d.01/g09/l502.exe)
 Closed shell SCF:
 Using DIIS extrapolation, IDIIS=  1040.
 Integral symmetry usage will be decided dynamically.
 Keep R1 ints in memory in canonical form, NReq=4262490.
 IVT=       30290 IEndB=       30290 NGot=  2147483648 MDV=  2144102629
 LenX=  2144102629 LenY=  2144098588
 Requested convergence on RMS density matrix=1.00D-08 within 128 cycles.
 Requested convergence on MAX density matrix=1.00D-06.
 Requested convergence on             energy=1.00D-06.
 No special actions if energy rises.
 FoFCou: FMM=F IPFlag=           0 FMFlag=           0 FMFlg1=           0
         NFxFlg=           0 DoJE=F BraDBF=F KetDBF=F FulRan=T
         wScrn=  0.000000 ICntrl=     600 IOpCl=  0 I1Cent=           0 NGrid=           0
         NMat0=    1 NMatS0=   1830 NMatT0=    0 NMatD0=    1 NMtDS0=    0 NMtDT0=    0
 Symmetry not used in FoFCou.

 Cycle   1  Pass 1  IDiag  1:
 E= -191.746217747793    
 DIIS: error= 2.69D-02 at cycle   1 NSaved=   1.
 NSaved= 1 IEnMin= 1 EnMin= -191.746217747793     IErMin= 1 ErrMin= 2.69D-02
 ErrMax= 2.69D-02  0.00D+00 EMaxC= 1.00D-01 BMatC= 7.31D-02 BMatP= 7.31D-02
 IDIUse=3 WtCom= 7.31D-01 WtEn= 2.69D-01
 Coeff-Com:  0.100D+01
 Coeff-En:   0.100D+01
 Coeff:      0.100D+01
 Gap=     0.415 Goal=   None    Shift=    0.000
 GapD=    0.415 DampG=2.000 DampE=0.500 DampFc=1.0000 IDamp=-1.
 RMSDP=1.05D-02 MaxDP=1.13D-01              OVMax= 8.56D-02

 Cycle   2  Pass 1  IDiag  1:
 E= -191.759027641589     Delta-E=       -0.012809893796 Rises=F Damp=F
 DIIS: error= 1.86D-02 at cycle   2 NSaved=   2.
 NSaved= 2 IEnMin= 2 EnMin= -191.759027641589     IErMin= 2 ErrMin= 1.86D-02
 ErrMax= 1.86D-02  0.00D+00 EMaxC= 1.00D-01 BMatC= 3.28D-02 BMatP= 7.31D-02
 IDIUse=3 WtCom= 8.14D-01 WtEn= 1.86D-01
 Coeff-Com:  0.379D+00 0.621D+00
 Coeff-En:   0.375D+00 0.625D+00
 Coeff:      0.379D+00 0.621D+00
 Gap=     0.402 Goal=   None    Shift=    0.000
 RMSDP=3.94D-03 MaxDP=5.46D-02 DE=-1.28D-02 OVMax= 7.10D-02

 Cycle   3  Pass 1  IDiag  1:
 E= -191.780374571329     Delta-E=       -0.021346929739 Rises=F Damp=F
 DIIS: error= 7.77D-03 at cycle   3 NSaved=   3.
 NSaved= 3 IEnMin= 3 EnMin= -191.780374571329     IErMin= 3 ErrMin= 7.77D-03
 ErrMax= 7.77D-03  0.00D+00 EMaxC= 1.00D-01 BMatC= 7.52D-03 BMatP= 3.28D-02
 IDIUse=3 WtCom= 9.22D-01 WtEn= 7.77D-02
 Coeff-Com:  0.606D-01 0.330D+00 0.610D+00
 Coeff-En:   0.000D+00 0.144D+00 0.856D+00
 Coeff:      0.559D-01 0.315D+00 0.629D+00
 Gap=     0.359 Goal=   None    Shift=    0.000
 RMSDP=1.78D-03 MaxDP=2.07D-02 DE=-2.13D-02 OVMax= 3.08D-02

 Cycle   4  Pass 1  IDiag  1:
 E= -191.785548814135     Delta-E=       -0.005174242807 Rises=F Damp=F
 DIIS: error= 3.29D-03 at cycle   4 NSaved=   4.
 NSaved= 4 IEnMin= 4 EnMin= -191.785548814135     IErMin= 4 ErrMin= 3.29D-03
 ErrMax= 3.29D-03  0.00D+00 EMaxC= 1.00D-01 BMatC= 7.95D-04 BMatP= 7.52D-03
 IDIUse=3 WtCom= 9.67D-01 WtEn= 3.29D-02
 Coeff-Com: -0.432D-02 0.951D-01 0.326D+00 0.583D+00
 Coeff-En:   0.000D+00 0.000D+00 0.430D-01 0.957D+00
 Coeff:     -0.418D-02 0.920D-01 0.317D+00 0.595D+00
 Gap=     0.355 Goal=   None    Shift=    0.000
 RMSDP=6.17D-04 MaxDP=6.28D-03 DE=-5.17D-03 OVMax= 8.35D-03

 Cycle   5  Pass 1  IDiag  1:
 E= -191.786219384354     Delta-E=       -0.000670570219 Rises=F Damp=F
 DIIS: error= 8.76D-04 at cycle   5 NSaved=   5.
 NSaved= 5 IEnMin= 5 EnMin= -191.786219384354     IErMin= 5 ErrMin= 8.76D-04
 ErrMax= 8.76D-04  0.00D+00 EMaxC= 1.00D-01 BMatC= 2.27D-05 BMatP= 7.95D-04
 IDIUse=3 WtCom= 9.91D-01 WtEn= 8.76D-03
 Coeff-Com: -0.445D-02 0.220D-01 0.102D+00 0.244D+00 0.636D+00
 Coeff-En:   0.000D+00 0.000D+00 0.000D+00 0.000D+00 0.100D+01
 Coeff:     -0.441D-02 0.218D-01 0.101D+00 0.242D+00 0.639D+00
 Gap=     0.355 Goal=   None    Shift=    0.000
 RMSDP=1.89D-04 MaxDP=2.45D-03 DE=-6.71D-04 OVMax= 2.43D-03

 Cycle   6  Pass 1  IDiag  1:
 E= -191.786243442622     Delta-E=       -0.000024058268 Rises=F Damp=F
 DIIS: error= 1.84D-04 at cycle   6 NSaved=   6.
 NSaved= 6 IEnMin= 6 EnMin= -191.786243442622     IErMin= 6 ErrMin= 1.84D-04
 ErrMax= 1.84D-04  0.00D+00 EMaxC= 1.00D-01 BMatC= 1.70D-06 BMatP= 2.27D-05
 IDIUse=3 WtCom= 9.98D-01 WtEn= 1.84D-03
 Coeff-Com: -0.116D-03-0.122D-01-0.312D-01-0.406D-01 0.168D+00 0.916D+00
 Coeff-En:   0.000D+00 0.000D+00 0.000D+00 0.000D+00 0.000D+00 0.100D+01
 Coeff:     -0.116D-03-0.122D-01-0.311D-01-0.405D-01 0.167D+00 0.917D+00
 Gap=     0.355 Goal=   None    Shift=    0.000
 RMSDP=1.51D-04 MaxDP=2.01D-03 DE=-2.41D-05 OVMax= 1.14D-03

 Cycle   7  Pass 1  IDiag  1:
 E= -191.786246440495     Delta-E=       -0.000002997873 Rises=F Damp=F
 DIIS: error= 3.18D-05 at cycle   7 NSaved=   7.
 NSaved= 7 IEnMin= 7 EnMin= -191.786246440495     IErMin= 7 ErrMin= 3.18D-05
 ErrMax= 3.18D-05  0.00D+00 EMaxC= 1.00D-01 BMatC= 1.01D-07 BMatP= 1.70D-06
 IDIUse=1 WtCom= 1.00D+00 WtEn= 0.00D+00
 Coeff-Com:  0.306D-03-0.470D-02-0.158D-01-0.258D-01 0.284D-02 0.243D+00
 Coeff-Com:  0.800D+00
 Coeff:      0.306D-03-0.470D-02-0.158D-01-0.258D-01 0.284D-02 0.243D+00
 Coeff:      0.800D+00
 Gap=     0.356 Goal=   None    Shift=    0.000
 RMSDP=2.88D-05 MaxDP=3.74D-04 DE=-3.00D-06 OVMax= 2.22D-04

 Cycle   8  Pass 1  IDiag  1:
 E= -191.786246653742     Delta-E=       -0.000000213247 Rises=F Damp=F
 DIIS: error= 9.72D-06 at cycle   8 NSaved=   8.
 NSaved= 8 IEnMin= 8 EnMin= -191.786246653742     IErMin= 8 ErrMin= 9.72D-06
 ErrMax= 9.72D-06  0.00D+00 EMaxC= 1.00D-01 BMatC= 8.41D-09 BMatP= 1.01D-07
 IDIUse=1 WtCom= 1.00D+00 WtEn= 0.00D+00
 Coeff-Com:  0.559D-05 0.130D-02 0.260D-02 0.383D-02-0.213D-01-0.994D-01
 Coeff-Com:  0.308D-01 0.108D+01
 Coeff:      0.559D-05 0.130D-02 0.260D-02 0.383D-02-0.213D-01-0.994D-01
 Coeff:      0.308D-01 0.108D+01
 Gap=     0.356 Goal=   None    Shift=    0.000
 RMSDP=1.26D-05 MaxDP=1.40D-04 DE=-2.13D-07 OVMax= 1.44D-04

 Cycle   9  Pass 1  IDiag  1:
 E= -191.786246687847     Delta-E=       -0.000000034105 Rises=F Damp=F
 DIIS: error= 4.46D-06 at cycle   9 NSaved=   9.
 NSaved= 9 IEnMin= 9 EnMin= -191.786246687847     IErMin= 9 ErrMin= 4.46D-06
 ErrMax= 4.46D-06  0.00D+00 EMaxC= 1.00D-01 BMatC= 4.92D-10 BMatP= 8.41D-09
 IDIUse=1 WtCom= 1.00D+00 WtEn= 0.00D+00
 Coeff-Com: -0.216D-04 0.237D-03 0.879D-03 0.152D-02 0.357D-02-0.627D-02
 Coeff-Com: -0.698D-01-0.122D+00 0.119D+01
 Coeff:     -0.216D-04 0.237D-03 0.879D-03 0.152D-02 0.357D-02-0.627D-02
 Coeff:     -0.698D-01-0.122D+00 0.119D+01
 Gap=     0.356 Goal=   None    Shift=    0.000
 RMSDP=2.93D-06 MaxDP=3.37D-05 DE=-3.41D-08 OVMax= 5.39D-05

 Cycle  10  Pass 1  IDiag  1:
 E= -191.786246691229     Delta-E=       -0.000000003382 Rises=F Damp=F
 DIIS: error= 1.87D-06 at cycle  10 NSaved=  10.
 NSaved=10 IEnMin=10 EnMin= -191.786246691229     IErMin=10 ErrMin= 1.87D-06
 ErrMax= 1.87D-06  0.00D+00 EMaxC= 1.00D-01 BMatC= 5.15D-11 BMatP= 4.92D-10
 IDIUse=1 WtCom= 1.00D+00 WtEn= 0.00D+00
 Coeff-Com:  0.743D-05-0.163D-03-0.507D-03-0.785D-03 0.244D-03 0.887D-02
 Coeff-Com:  0.232D-01-0.234D-01-0.452D+00 0.144D+01
 Coeff:      0.743D-05-0.163D-03-0.507D-03-0.785D-03 0.244D-03 0.887D-02
 Coeff:      0.232D-01-0.234D-01-0.452D+00 0.144D+01
 Gap=     0.356 Goal=   None    Shift=    0.000
 RMSDP=1.18D-06 MaxDP=1.44D-05 DE=-3.38D-09 OVMax= 2.76D-05

 Cycle  11  Pass 1  IDiag  1:
 E= -191.786246691724     Delta-E=       -0.000000000495 Rises=F Damp=F
 DIIS: error= 6.31D-07 at cycle  11 NSaved=  11.
 NSaved=11 IEnMin=11 EnMin= -191.786246691724     IErMin=11 ErrMin= 6.31D-07
 ErrMax= 6.31D-07  0.00D+00 EMaxC= 1.00D-01 BMatC= 5.81D-12 BMatP= 5.15D-11
 IDIUse=1 WtCom= 1.00D+00 WtEn= 0.00D+00
 Coeff-Com: -0.150D-05 0.476D-04 0.146D-03 0.183D-03-0.443D-03-0.378D-02
 Coeff-Com: -0.346D-02 0.220D-01 0.837D-01-0.660D+00 0.156D+01
 Coeff:     -0.150D-05 0.476D-04 0.146D-03 0.183D-03-0.443D-03-0.378D-02
 Coeff:     -0.346D-02 0.220D-01 0.837D-01-0.660D+00 0.156D+01
 Gap=     0.356 Goal=   None    Shift=    0.000
 RMSDP=3.31D-07 MaxDP=2.79D-06 DE=-4.95D-10 OVMax= 1.18D-05

 Cycle  12  Pass 1  IDiag  1:
 E= -191.786246691782     Delta-E=       -0.000000000058 Rises=F Damp=F
 DIIS: error= 9.79D-08 at cycle  12 NSaved=  12.
 NSaved=12 IEnMin=12 EnMin= -191.786246691782     IErMin=12 ErrMin= 9.79D-08
 ErrMax= 9.79D-08  0.00D+00 EMaxC= 1.00D-01 BMatC= 2.94D-13 BMatP= 5.81D-12
 IDIUse=1 WtCom= 1.00D+00 WtEn= 0.00D+00
 Coeff-Com: -0.194D-06 0.144D-05 0.100D-04 0.239D-04 0.740D-04 0.287D-03
 Coeff-Com: -0.981D-03-0.346D-02 0.155D-01 0.517D-01-0.370D+00 0.131D+01
 Coeff:     -0.194D-06 0.144D-05 0.100D-04 0.239D-04 0.740D-04 0.287D-03
 Coeff:     -0.981D-03-0.346D-02 0.155D-01 0.517D-01-0.370D+00 0.131D+01
 Gap=     0.356 Goal=   None    Shift=    0.000
 RMSDP=7.14D-08 MaxDP=6.23D-07 DE=-5.78D-11 OVMax= 1.78D-06

 Cycle  13  Pass 1  IDiag  1:
 E= -191.786246691785     Delta-E=       -0.000000000003 Rises=F Damp=F
 DIIS: error= 1.48D-08 at cycle  13 NSaved=  13.
 NSaved=13 IEnMin=13 EnMin= -191.786246691785     IErMin=13 ErrMin= 1.48D-08
 ErrMax= 1.48D-08  0.00D+00 EMaxC= 1.00D-01 BMatC= 1.21D-14 BMatP= 2.94D-13
 IDIUse=1 WtCom= 1.00D+00 WtEn= 0.00D+00
 Coeff-Com:  0.831D-07-0.199D-05-0.708D-05-0.865D-05 0.710D-07 0.106D-03
 Coeff-Com:  0.298D-03-0.365D-03-0.570D-02 0.180D-01-0.138D-02-0.267D+00
 Coeff-Com:  0.126D+01
 Coeff:      0.831D-07-0.199D-05-0.708D-05-0.865D-05 0.710D-07 0.106D-03
 Coeff:      0.298D-03-0.365D-03-0.570D-02 0.180D-01-0.138D-02-0.267D+00
 Coeff:      0.126D+01
 Gap=     0.356 Goal=   None    Shift=    0.000
 RMSDP=1.34D-08 MaxDP=1.00D-07 DE=-3.01D-12 OVMax= 2.40D-07

 Cycle  14  Pass 1  IDiag  1:
 E= -191.786246691785     Delta-E=        0.000000000000 Rises=F Damp=F
 DIIS: error= 2.46D-09 at cycle  14 NSaved=  14.
 NSaved=14 IEnMin=13 EnMin= -191.786246691785     IErMin=14 ErrMin= 2.46D-09
 ErrMax= 2.46D-09  0.00D+00 EMaxC= 1.00D-01 BMatC= 3.32D-16 BMatP= 1.21D-14
 IDIUse=1 WtCom= 1.00D+00 WtEn= 0.00D+00
 Coeff-Com: -0.982D-08 0.279D-06 0.814D-06 0.706D-06-0.470D-05-0.298D-04
 Coeff-Com: -0.258D-04 0.195D-03 0.429D-03-0.531D-02 0.156D-01-0.854D-02
 Coeff-Com: -0.183D+00 0.118D+01
 Coeff:     -0.982D-08 0.279D-06 0.814D-06 0.706D-06-0.470D-05-0.298D-04
 Coeff:     -0.258D-04 0.195D-03 0.429D-03-0.531D-02 0.156D-01-0.854D-02
 Coeff:     -0.183D+00 0.118D+01
 Gap=     0.356 Goal=   None    Shift=    0.000
 RMSDP=1.97D-09 MaxDP=2.72D-08 DE= 3.98D-13 OVMax= 1.92D-08

 SCF Done:  E(RwB97XD) =  -191.786246692     A.U. after   14 cycles
            NFock= 14  Conv=0.20D-08     -V/T= 2.0061
 KE= 1.906299098295D+02 PE=-6.530164684577D+02 EE= 1.677926855607D+02
 Leave Link  502 at Wed May 12 11:58:26 2021, MaxMem=  2147483648 cpu:         9.3
 (Enter /opt/cluster/programs/g09_d.01/g09/l601.exe)
 Copying SCF densities to generalized density rwf, IOpCl= 0 IROHF=0.

 **********************************************************************

            Population analysis using the SCF density.

 **********************************************************************

 Orbital symmetries:
       Occupied  (A) (A) (A) (A) (A) (A) (A) (A) (A) (A) (A) (A)
                 (A) (A) (A)
       Virtual   (A) (A) (A) (A) (A) (A) (A) (A) (A) (A) (A) (A)
                 (A) (A) (A) (A) (A) (A) (A) (A) (A) (A) (A) (A)
                 (A) (A) (A) (A) (A) (A) (A) (A) (A) (A) (A) (A)
                 (A) (A) (A) (A) (A) (A) (A) (A) (A)
 The electronic state is 1-A.
 Alpha  occ. eigenvalues --  -19.29299 -10.41042 -10.33288 -10.32998  -1.17116
 Alpha  occ. eigenvalues --   -0.91075  -0.76954  -0.65734  -0.61022  -0.55076
 Alpha  occ. eigenvalues --   -0.53808  -0.48744  -0.47180  -0.37803  -0.35342
 Alpha virt. eigenvalues --    0.00213   0.05681   0.07675   0.08415   0.09730
 Alpha virt. eigenvalues --    0.11220   0.12487   0.13468   0.14703   0.16449
 Alpha virt. eigenvalues --    0.17299   0.17700   0.19751   0.22436   0.26702
 Alpha virt. eigenvalues --    0.28323   0.29693   0.31448   0.32673   0.34673
 Alpha virt. eigenvalues --    0.37212   0.38072   0.43978   0.45730   0.50759
 Alpha virt. eigenvalues --    0.70168   0.72299   0.76161   0.77713   0.80725
 Alpha virt. eigenvalues --    0.84301   0.89160   0.93168   1.01656   1.04696
 Alpha virt. eigenvalues --    1.10659   1.12933   1.13969   1.23569   1.27181
 Alpha virt. eigenvalues --    1.31591   1.33124   1.38352   1.45376   1.89133
          Condensed to atoms (all electrons):
               1          2          3          4          5          6
     1  C    5.298813   0.315419  -0.017316   0.025405   0.021087   0.372378
     2  C    0.315419   5.545601   0.231436  -0.159675  -0.104616  -0.028621
     3  C   -0.017316   0.231436   5.079836   0.310204   0.340787   0.006993
     4  O    0.025405  -0.159675   0.310204   8.287141  -0.065650   0.000009
     5  H    0.021087  -0.104616   0.340787  -0.065650   0.625193  -0.000122
     6  H    0.372378  -0.028621   0.006993   0.000009  -0.000122   0.472229
     7  H    0.398493  -0.059785   0.004498   0.001058   0.000133  -0.022688
     8  H    0.030593   0.314349  -0.032195   0.004923   0.001827  -0.004042
               7          8
     1  C    0.398493   0.030593
     2  C   -0.059785   0.314349
     3  C    0.004498  -0.032195
     4  O    0.001058   0.004923
     5  H    0.000133   0.001827
     6  H   -0.022688  -0.004042
     7  H    0.457141   0.002533
     8  H    0.002533   0.459219
 Mulliken charges:
               1
     1  C   -0.444873
     2  C   -0.054108
     3  C    0.075758
     4  O   -0.403414
     5  H    0.181363
     6  H    0.203863
     7  H    0.218617
     8  H    0.222794
 Sum of Mulliken charges =   0.00000
 Mulliken charges with hydrogens summed into heavy atoms:
               1
     1  C   -0.022393
     2  C    0.168687
     3  C    0.257121
     4  O   -0.403414
 Electronic spatial extent (au):  <R**2>=            283.7362
 Charge=              0.0000 electrons
 Dipole moment (field-independent basis, Debye):
    X=             -2.6266    Y=              1.9112    Z=              0.8666  Tot=              3.3619
 Quadrupole moment (field-independent basis, Debye-Ang):
   XX=            -25.8971   YY=            -22.6513   ZZ=            -24.9325
   XY=              3.3223   XZ=              1.4924   YZ=             -1.3136
 Traceless Quadrupole moment (field-independent basis, Debye-Ang):
   XX=             -1.4035   YY=              1.8424   ZZ=             -0.4389
   XY=              3.3223   XZ=              1.4924   YZ=             -1.3136
 Octapole moment (field-independent basis, Debye-Ang**2):
  XXX=            -10.5638  YYY=              0.2810  ZZZ=              0.1292  XYY=             -0.3812
  XXY=              2.9285  XXZ=              0.0145  XZZ=              3.6394  YZZ=              0.0635
  YYZ=              0.5931  XYZ=              1.4450
 Hexadecapole moment (field-independent basis, Debye-Ang**3):
 XXXX=           -257.4391 YYYY=            -71.2998 ZZZZ=            -36.6270 XXXY=              6.9141
 XXXZ=              4.1466 YYYX=             -0.2976 YYYZ=             -3.0942 ZZZX=              0.0362
 ZZZY=             -0.6219 XXYY=            -55.6590 XXZZ=            -51.2448 YYZZ=            -18.0165
 XXYZ=             -1.6319 YYXZ=              1.0835 ZZXY=              0.1203
 N-N= 1.028076263757D+02 E-N=-6.530164684717D+02  KE= 1.906299098295D+02
 No NMR shielding tensors so no spin-rotation constants.
 Leave Link  601 at Wed May 12 11:58:26 2021, MaxMem=  2147483648 cpu:         0.6
 (Enter /opt/cluster/programs/g09_d.01/g09/l701.exe)
 Compute integral first derivatives.
 ... and contract with generalized density number  0.
 R6Disp: Adding Grimme-D2 dispersion energy 1st derivatives to the gradient.
 Leave Link  701 at Wed May 12 11:58:26 2021, MaxMem=  2147483648 cpu:         0.6
 (Enter /opt/cluster/programs/g09_d.01/g09/l702.exe)
 L702 exits ... SP integral derivatives will be done elsewhere.
 Leave Link  702 at Wed May 12 11:58:26 2021, MaxMem=  2147483648 cpu:         0.2
 (Enter /opt/cluster/programs/g09_d.01/g09/l703.exe)
 Compute integral first derivatives, UseDBF=F ICtDFT=           0.
 Integral derivatives from FoFJK, PRISM(SPDF).
 Calling FoFJK, ICntrl=      2127 FMM=F ISym2X=0 I1Cent= 0 IOpClX= 0 NMat=1 NMatS=1 NMatT=0.
 FoFJK:  IHMeth= 1 ICntrl=    2127 DoSepK=T KAlg= 0 I1Cent=   0 FoldK=F
 IRaf=         1 NMat=   1 IRICut=       1 DoRegI=T DoRafI=F ISym2E= 0.
 FoFCou: FMM=F IPFlag=           0 FMFlag=      100000 FMFlg1=         800
         NFxFlg=           0 DoJE=F BraDBF=F KetDBF=F FulRan=T
         wScrn=  0.000000 ICntrl=    2527 IOpCl=  0 I1Cent=           0 NGrid=           0
         NMat0=    1 NMatS0=      1 NMatT0=    0 NMatD0=    1 NMtDS0=    0 NMtDT0=    0
 Symmetry not used in FoFCou.
 Leave Link  703 at Wed May 12 11:58:26 2021, MaxMem=  2147483648 cpu:         2.5
 (Enter /opt/cluster/programs/g09_d.01/g09/l716.exe)
 Dipole        =-1.03339621D+00 7.51905080D-01 3.40936504D-01
 ***** Axes restored to original set *****
 -------------------------------------------------------------------
 Center     Atomic                   Forces (Hartrees/Bohr)
 Number     Number              X              Y              Z
 -------------------------------------------------------------------
      1        6          -0.004774987   -0.000473713   -0.005736563
      2        6           0.005819903    0.000764479    0.010854881
      3        6          -0.008200742    0.001080360   -0.011314533
      4        8           0.007931438   -0.003226229    0.007403394
      5        1           0.000553191    0.001684750   -0.000840378
      6        1          -0.000736495   -0.000401745    0.000035662
      7        1          -0.000333156   -0.000461791   -0.000146009
      8        1          -0.000259152    0.001033889   -0.000256455
 -------------------------------------------------------------------
 Cartesian Forces:  Max     0.011314533 RMS     0.004738516
 Leave Link  716 at Wed May 12 11:58:26 2021, MaxMem=  2147483648 cpu:         0.2
 (Enter /opt/cluster/programs/g09_d.01/g09/l103.exe)

 GradGradGradGradGradGradGradGradGradGradGradGradGradGradGradGradGradGrad
 Berny optimization.
 FormGI is forming the generalized inverse of G from B-inverse, IUseBI=4.
 Internal  Forces:  Max     0.009526528 RMS     0.003085694
 Search for a local minimum.
 Step number   1 out of a maximum of   34
 All quantities printed in internal units (Hartrees-Bohrs-Radians)
 RMS Force = .24729D-02 SwitMx=.10000D-02 MixMth= 1
 Mixed Optimization -- RFO/linear search
 Second derivative matrix not updated -- first step.
 ITU=  0
     Eigenvalues ---    0.01016   0.01830   0.02849   0.02849   0.15872
     Eigenvalues ---    0.16000   0.16000   0.16000   0.22006   0.22032
     Eigenvalues ---    0.33112   0.34370   0.34739   0.35191   0.35315
     Eigenvalues ---    0.56637   0.863491000.000001000.000001000.00000
     Eigenvalues --- 1000.000001000.000001000.000001000.00000
 RFO step:  Lambda=-2.44093187D-04 EMin= 1.01584569D-02
 Linear search not attempted -- first point.
 Iteration  1 RMS(Cart)=  0.01345660 RMS(Int)=  0.00011108
 Iteration  2 RMS(Cart)=  0.00010496 RMS(Int)=  0.00002477
 Iteration  3 RMS(Cart)=  0.00000001 RMS(Int)=  0.00002477
 Iteration  1 RMS(Cart)=  0.00000040 RMS(Int)=  0.00000033
 ITry= 1 IFail=0 DXMaxC= 2.93D-02 DCOld= 1.00D+10 DXMaxT= 3.00D-01 DXLimC= 3.00D+00 Rises=F
 Variable       Old X    -DE/DX   Delta X   Delta X   Delta X     New X
                                 (Linear)    (Quad)   (Total)
    R1        2.53706  -0.00606   0.00000  -0.01069  -0.01069   2.52637
    R2        2.05166  -0.00066   0.00000  -0.00187  -0.00187   2.04979
    R3        2.05367  -0.00038   0.00000  -0.00108  -0.00108   2.05258
    R4        2.80011  -0.00155   0.00000  -0.00452  -0.00452   2.79559
    R5        2.06100  -0.00091   0.00000  -0.00263  -0.00263   2.05837
    R6        2.34662  -0.00953   0.00000  -0.01103  -0.01103   2.33559
    R7        2.08856  -0.00192   0.00000  -0.00579  -0.00579   2.08276
    A1        2.12344  -0.00039   0.00000  -0.00242  -0.00242   2.12102
    A2        2.11914  -0.00027   0.00000  -0.00165  -0.00165   2.11749
    A3        2.04057   0.00065   0.00000   0.00409   0.00409   2.04466
    A4        2.15391  -0.00121   0.00000  -0.00556  -0.00559   2.14832
    A5        2.10574   0.00098   0.00000   0.00318   0.00315   2.10889
    A6        2.01238   0.00065   0.00000   0.00428   0.00425   2.01664
    A7        2.18231  -0.00102   0.00000  -0.00487  -0.00494   2.17737
    A8        2.01453   0.00093   0.00000   0.00460   0.00454   2.01907
    A9        2.08459   0.00043   0.00000   0.00144   0.00138   2.08597
    D1        3.05224   0.00153   0.00000   0.00486   0.00486   3.05711
    D2        0.07817  -0.00167   0.00000  -0.00969  -0.00969   0.06848
    D3       -0.09880   0.00159   0.00000   0.00691   0.00691  -0.09189
    D4       -3.07288  -0.00161   0.00000  -0.00764  -0.00764  -3.08052
    D5        1.04721  -0.00738   0.00000   0.00000   0.00000   1.04721
    D6       -2.15874  -0.00126   0.00000   0.02156   0.02156  -2.13719
    D7       -2.25372  -0.00429   0.00000   0.01381   0.01381  -2.23991
    D8        0.82351   0.00183   0.00000   0.03537   0.03537   0.85888
         Item               Value     Threshold  Converged?
 Maximum Force            0.009527     0.000450     NO 
 RMS     Force            0.002473     0.000300     NO 
 Maximum Displacement     0.029261     0.001800     NO 
 RMS     Displacement     0.013484     0.001200     NO 
 Predicted change in Energy=-1.223093D-04
 Lowest energy point so far.  Saving SCF results.
 GradGradGradGradGradGradGradGradGradGradGradGradGradGradGradGradGradGrad

 Leave Link  103 at Wed May 12 11:58:26 2021, MaxMem=  2147483648 cpu:         0.0
 (Enter /opt/cluster/programs/g09_d.01/g09/l202.exe)
                          Input orientation:                          
 ---------------------------------------------------------------------
 Center     Atomic      Atomic             Coordinates (Angstroms)
 Number     Number       Type             X           Y           Z
 ---------------------------------------------------------------------
      1          6           0        1.563851    0.416433    0.080972
      2          6           0        0.649628   -0.525160   -0.173770
      3          6           0       -0.773000   -0.394556    0.210401
      4          8           0       -1.528613    0.502407   -0.179552
      5          1           0       -1.167255   -1.192055    0.861013
      6          1           0        2.614100    0.262367   -0.142222
      7          1           0        1.284325    1.372217    0.514711
      8          1           0        0.945231   -1.501377   -0.555961
 ---------------------------------------------------------------------
                    Distance matrix (angstroms):
                    1          2          3          4          5
     1  C    0.000000
     2  C    1.336898   0.000000
     3  C    2.476960   1.479363   0.000000
     4  O    3.104609   2.408456   1.235944   0.000000
     5  H    3.264144   2.194672   1.102151   2.021028   0.000000
     6  H    1.084700   2.116682   3.468189   4.149829   4.173783
     7  H    1.086180   2.115865   2.728861   3.025094   3.564500
     8  H    2.113378   1.089243   2.182815   3.205735   2.562439
                    6          7          8
     6  H    0.000000
     7  H    1.852465   0.000000
     8  H    2.463147   3.085266   0.000000
 Stoichiometry    C3H4O
 Framework group  C1[X(C3H4O)]
 Deg. of freedom    18
 Full point group                 C1      NOp   1
 RotChk:  IX=0 Diff= 2.44D-03
 Largest Abelian subgroup         C1      NOp   1
 Largest concise Abelian subgroup C1      NOp   1
                         Standard orientation:                         
 ---------------------------------------------------------------------
 Center     Atomic      Atomic             Coordinates (Angstroms)
 Number     Number       Type             X           Y           Z
 ---------------------------------------------------------------------
      1          6           0       -1.560590   -0.419786    0.080426
      2          6           0       -0.646836    0.522778   -0.172399
      3          6           0        0.775412    0.393061    0.213477
      4          8           0        1.532274   -0.502954   -0.176231
      5          1           0        1.168168    1.190370    0.865228
      6          1           0       -2.610683   -0.266424   -0.143981
      7          1           0       -1.280813   -1.375682    0.513756
      8          1           0       -0.942774    1.499052   -0.554186
 ---------------------------------------------------------------------
 Rotational constants (GHZ):     25.6863804      5.4660688      4.7431542
 Leave Link  202 at Wed May 12 11:58:26 2021, MaxMem=  2147483648 cpu:         0.0
 (Enter /opt/cluster/programs/g09_d.01/g09/l301.exe)
 Standard basis: 6-31+G (6D, 7F)
 Ernie: Thresh=  0.10000D-02 Tol=  0.10000D-05 Strict=F.
 There are    60 symmetry adapted cartesian basis functions of A   symmetry.
 There are    60 symmetry adapted basis functions of A   symmetry.
    60 basis functions,   120 primitive gaussians,    60 cartesian basis functions
    15 alpha electrons       15 beta electrons
       nuclear repulsion energy       103.1881649170 Hartrees.
 IExCor= 4639 DFT=T Ex+Corr=wB97XD ExCW=0 ScaHFX=  1.000000
 ScaDFX=  1.000000  1.000000  1.000000  1.000000 ScalE2=  1.000000  1.000000
 IRadAn=      0 IRanWt=     -1 IRanGd=            0 ICorTp=0 IEmpDi=121
  HFx wShort=  0.000000 wLong=  0.200000 cFull=  0.222036 cShort=  0.000000 cLong=  0.777964
  DFx wShort=  0.000000 wLong=  0.200000 cFull=  0.000000 cShort=  0.000000 cLong=  1.000000
 NAtoms=    8 NActive=    8 NUniq=    8 SFac= 1.00D+00 NAtFMM=   60 NAOKFM=F Big=F
 Integral buffers will be    131072 words long.
 Raffenetti 2 integral format.
 Two-electron integral symmetry is turned on.
 R6Disp:  Grimme-D2 Dispersion energy=       -0.0017964781 Hartrees.
 Nuclear repulsion after empirical dispersion term =      103.1863684389 Hartrees.
 Leave Link  301 at Wed May 12 11:58:26 2021, MaxMem=  2147483648 cpu:         0.3
 (Enter /opt/cluster/programs/g09_d.01/g09/l302.exe)
 NPDir=0 NMtPBC=     1 NCelOv=     1 NCel=       1 NClECP=     1 NCelD=      1
         NCelK=      1 NCelE2=     1 NClLst=     1 CellRange=     0.0.
 One-electron integrals computed using PRISM.
 NBasis=    60 RedAO= T EigKep=  1.34D-04  NBF=    60
 NBsUse=    60 1.00D-06 EigRej= -1.00D+00 NBFU=    60
 Precomputing XC quadrature grid using
 IXCGrd= 4 IRadAn=           0 IRanWt=          -1 IRanGd=           0 AccXCQ= 0.00D+00.
 Generated NRdTot=       0 NPtTot=           0 NUsed=           0 NTot=          32
 NSgBfM=    60    60    60    60    60 MxSgAt=     8 MxSgA2=     8.
 Leave Link  302 at Wed May 12 11:58:26 2021, MaxMem=  2147483648 cpu:         0.8
 (Enter /opt/cluster/programs/g09_d.01/g09/l303.exe)
 DipDrv:  MaxL=1.
 Leave Link  303 at Wed May 12 11:58:26 2021, MaxMem=  2147483648 cpu:         0.2
 (Enter /opt/cluster/programs/g09_d.01/g09/l401.exe)
 Initial guess from the checkpoint file:  "/home/unibas/boittier/RDKit_G2/L.pdb/SCAN_1_2_3_4_S_17_20.0/12_SCAN_1_2_3_4_F/L.pdb.chk"
 B after Tr=     0.000000    0.000000    0.000000
         Rot=    0.999999   -0.000990   -0.000355   -0.000253 Ang=  -0.12 deg.
 Guess basis will be translated and rotated to current coordinates.
 JPrj=2 DoOrth=T DoCkMO=T.
 Generating alternative initial guess.
 ExpMin= 4.38D-02 ExpMax= 5.48D+03 ExpMxC= 8.25D+02 IAcc=2 IRadAn=         4 AccDes= 0.00D+00
 Harris functional with IExCor= 4639 and IRadAn=       4 diagonalized for initial guess.
 HarFok:  IExCor= 4639 AccDes= 0.00D+00 IRadAn=         4 IDoV= 1 UseB2=F ITyADJ=14
 ICtDFT=  3500011 ScaDFX=  1.000000  1.000000  1.000000  1.000000
 FoFCou: FMM=F IPFlag=           0 FMFlag=      100000 FMFlg1=           0
         NFxFlg=           0 DoJE=T BraDBF=F KetDBF=T FulRan=T
         wScrn=  0.000000 ICntrl=     500 IOpCl=  0 I1Cent=   200000004 NGrid=           0
         NMat0=    1 NMatS0=      1 NMatT0=    0 NMatD0=    1 NMtDS0=    0 NMtDT0=    0
 Petite list used in FoFCou.
 Harris En= -183.740347449237    
 Leave Link  401 at Wed May 12 11:58:27 2021, MaxMem=  2147483648 cpu:         1.4
 (Enter /opt/cluster/programs/g09_d.01/g09/l502.exe)
 Closed shell SCF:
 Using DIIS extrapolation, IDIIS=  1040.
 Integral symmetry usage will be decided dynamically.
 Keep R1 ints in memory in canonical form, NReq=4262490.
 IVT=       30290 IEndB=       30290 NGot=  2147483648 MDV=  2144102629
 LenX=  2144102629 LenY=  2144098588
 Requested convergence on RMS density matrix=1.00D-08 within 128 cycles.
 Requested convergence on MAX density matrix=1.00D-06.
 Requested convergence on             energy=1.00D-06.
 No special actions if energy rises.
 FoFCou: FMM=F IPFlag=           0 FMFlag=           0 FMFlg1=           0
         NFxFlg=           0 DoJE=F BraDBF=F KetDBF=F FulRan=T
         wScrn=  0.000000 ICntrl=     600 IOpCl=  0 I1Cent=           0 NGrid=           0
         NMat0=    1 NMatS0=   1830 NMatT0=    0 NMatD0=    1 NMtDS0=    0 NMtDT0=    0
 Symmetry not used in FoFCou.

 Cycle   1  Pass 1  IDiag  1:
 E= -191.786248251011    
 DIIS: error= 7.60D-04 at cycle   1 NSaved=   1.
 NSaved= 1 IEnMin= 1 EnMin= -191.786248251011     IErMin= 1 ErrMin= 7.60D-04
 ErrMax= 7.60D-04  0.00D+00 EMaxC= 1.00D-01 BMatC= 5.45D-05 BMatP= 5.45D-05
 IDIUse=3 WtCom= 9.92D-01 WtEn= 7.60D-03
 Coeff-Com:  0.100D+01
 Coeff-En:   0.100D+01
 Coeff:      0.100D+01
 Gap=     0.606 Goal=   None    Shift=    0.000
 RMSDP=3.36D-04 MaxDP=2.89D-03              OVMax= 3.22D-03

 Cycle   2  Pass 1  IDiag  1:
 E= -191.786348170074     Delta-E=       -0.000099919062 Rises=F Damp=F
 DIIS: error= 2.31D-04 at cycle   2 NSaved=   2.
 NSaved= 2 IEnMin= 2 EnMin= -191.786348170074     IErMin= 2 ErrMin= 2.31D-04
 ErrMax= 2.31D-04  0.00D+00 EMaxC= 1.00D-01 BMatC= 4.46D-06 BMatP= 5.45D-05
 IDIUse=3 WtCom= 9.98D-01 WtEn= 2.31D-03
 Coeff-Com: -0.146D-02 0.100D+01
 Coeff-En:   0.000D+00 0.100D+01
 Coeff:     -0.146D-02 0.100D+01
 Gap=     0.358 Goal=   None    Shift=    0.000
 RMSDP=9.26D-05 MaxDP=7.19D-04 DE=-9.99D-05 OVMax= 1.71D-03

 Cycle   3  Pass 1  IDiag  1:
 E= -191.786358345168     Delta-E=       -0.000010175095 Rises=F Damp=F
 DIIS: error= 1.03D-04 at cycle   3 NSaved=   3.
 NSaved= 3 IEnMin= 3 EnMin= -191.786358345168     IErMin= 3 ErrMin= 1.03D-04
 ErrMax= 1.03D-04  0.00D+00 EMaxC= 1.00D-01 BMatC= 1.50D-06 BMatP= 4.46D-06
 IDIUse=3 WtCom= 9.99D-01 WtEn= 1.03D-03
 Coeff-Com: -0.801D-01 0.324D+00 0.756D+00
 Coeff-En:   0.000D+00 0.000D+00 0.100D+01
 Coeff:     -0.800D-01 0.323D+00 0.757D+00
 Gap=     0.357 Goal=   None    Shift=    0.000
 RMSDP=3.93D-05 MaxDP=4.07D-04 DE=-1.02D-05 OVMax= 8.04D-04

 Cycle   4  Pass 1  IDiag  1:
 E= -191.786360880256     Delta-E=       -0.000002535088 Rises=F Damp=F
 DIIS: error= 6.78D-05 at cycle   4 NSaved=   4.
 NSaved= 4 IEnMin= 4 EnMin= -191.786360880256     IErMin= 4 ErrMin= 6.78D-05
 ErrMax= 6.78D-05  0.00D+00 EMaxC= 1.00D-01 BMatC= 4.51D-07 BMatP= 1.50D-06
 IDIUse=1 WtCom= 1.00D+00 WtEn= 0.00D+00
 Coeff-Com: -0.426D-01 0.847D-01 0.384D+00 0.574D+00
 Coeff:     -0.426D-01 0.847D-01 0.384D+00 0.574D+00
 Gap=     0.357 Goal=   None    Shift=    0.000
 RMSDP=1.59D-05 MaxDP=2.52D-04 DE=-2.54D-06 OVMax= 4.04D-04

 Cycle   5  Pass 1  IDiag  1:
 E= -191.786361524751     Delta-E=       -0.000000644495 Rises=F Damp=F
 DIIS: error= 4.47D-05 at cycle   5 NSaved=   5.
 NSaved= 5 IEnMin= 5 EnMin= -191.786361524751     IErMin= 5 ErrMin= 4.47D-05
 ErrMax= 4.47D-05  0.00D+00 EMaxC= 1.00D-01 BMatC= 7.49D-08 BMatP= 4.51D-07
 IDIUse=1 WtCom= 1.00D+00 WtEn= 0.00D+00
 Coeff-Com:  0.182D-01-0.107D+00-0.169D+00 0.205D+00 0.105D+01
 Coeff:      0.182D-01-0.107D+00-0.169D+00 0.205D+00 0.105D+01
 Gap=     0.357 Goal=   None    Shift=    0.000
 RMSDP=1.80D-05 MaxDP=1.29D-04 DE=-6.44D-07 OVMax= 5.78D-04

 Cycle   6  Pass 1  IDiag  1:
 E= -191.786361846918     Delta-E=       -0.000000322167 Rises=F Damp=F
 DIIS: error= 1.98D-05 at cycle   6 NSaved=   6.
 NSaved= 6 IEnMin= 6 EnMin= -191.786361846918     IErMin= 6 ErrMin= 1.98D-05
 ErrMax= 1.98D-05  0.00D+00 EMaxC= 1.00D-01 BMatC= 7.64D-09 BMatP= 7.49D-08
 IDIUse=1 WtCom= 1.00D+00 WtEn= 0.00D+00
 Coeff-Com:  0.695D-02-0.262D-01-0.671D-01-0.236D-01 0.197D+00 0.913D+00
 Coeff:      0.695D-02-0.262D-01-0.671D-01-0.236D-01 0.197D+00 0.913D+00
 Gap=     0.357 Goal=   None    Shift=    0.000
 RMSDP=6.12D-06 MaxDP=6.05D-05 DE=-3.22D-07 OVMax= 2.04D-04

 Cycle   7  Pass 1  IDiag  1:
 E= -191.786361886172     Delta-E=       -0.000000039254 Rises=F Damp=F
 DIIS: error= 7.79D-06 at cycle   7 NSaved=   7.
 NSaved= 7 IEnMin= 7 EnMin= -191.786361886172     IErMin= 7 ErrMin= 7.79D-06
 ErrMax= 7.79D-06  0.00D+00 EMaxC= 1.00D-01 BMatC= 2.84D-09 BMatP= 7.64D-09
 IDIUse=1 WtCom= 1.00D+00 WtEn= 0.00D+00
 Coeff-Com: -0.297D-02 0.243D-01 0.266D-01-0.806D-01-0.268D+00 0.417D+00
 Coeff-Com:  0.884D+00
 Coeff:     -0.297D-02 0.243D-01 0.266D-01-0.806D-01-0.268D+00 0.417D+00
 Coeff:      0.884D+00
 Gap=     0.357 Goal=   None    Shift=    0.000
 RMSDP=3.90D-06 MaxDP=3.26D-05 DE=-3.93D-08 OVMax= 1.37D-04

 Cycle   8  Pass 1  IDiag  1:
 E= -191.786361898911     Delta-E=       -0.000000012739 Rises=F Damp=F
 DIIS: error= 2.89D-06 at cycle   8 NSaved=   8.
 NSaved= 8 IEnMin= 8 EnMin= -191.786361898911     IErMin= 8 ErrMin= 2.89D-06
 ErrMax= 2.89D-06  0.00D+00 EMaxC= 1.00D-01 BMatC= 1.68D-10 BMatP= 2.84D-09
 IDIUse=1 WtCom= 1.00D+00 WtEn= 0.00D+00
 Coeff-Com: -0.109D-02 0.481D-02 0.101D-01 0.528D-03-0.457D-01-0.786D-01
 Coeff-Com:  0.123D-01 0.110D+01
 Coeff:     -0.109D-02 0.481D-02 0.101D-01 0.528D-03-0.457D-01-0.786D-01
 Coeff:      0.123D-01 0.110D+01
 Gap=     0.357 Goal=   None    Shift=    0.000
 RMSDP=1.20D-06 MaxDP=1.10D-05 DE=-1.27D-08 OVMax= 4.47D-05

 Cycle   9  Pass 1  IDiag  1:
 E= -191.786361900092     Delta-E=       -0.000000001181 Rises=F Damp=F
 DIIS: error= 7.25D-07 at cycle   9 NSaved=   9.
 NSaved= 9 IEnMin= 9 EnMin= -191.786361900092     IErMin= 9 ErrMin= 7.25D-07
 ErrMax= 7.25D-07  0.00D+00 EMaxC= 1.00D-01 BMatC= 3.99D-11 BMatP= 1.68D-10
 IDIUse=1 WtCom= 1.00D+00 WtEn= 0.00D+00
 Coeff-Com:  0.211D-03-0.274D-02-0.149D-02 0.142D-01 0.327D-01-0.920D-01
 Coeff-Com: -0.158D+00 0.374D+00 0.833D+00
 Coeff:      0.211D-03-0.274D-02-0.149D-02 0.142D-01 0.327D-01-0.920D-01
 Coeff:     -0.158D+00 0.374D+00 0.833D+00
 Gap=     0.357 Goal=   None    Shift=    0.000
 RMSDP=3.24D-07 MaxDP=2.12D-06 DE=-1.18D-09 OVMax= 1.14D-05

 Cycle  10  Pass 1  IDiag  1:
 E= -191.786361900211     Delta-E=       -0.000000000119 Rises=F Damp=F
 DIIS: error= 1.88D-07 at cycle  10 NSaved=  10.
 NSaved=10 IEnMin=10 EnMin= -191.786361900211     IErMin=10 ErrMin= 1.88D-07
 ErrMax= 1.88D-07  0.00D+00 EMaxC= 1.00D-01 BMatC= 1.03D-12 BMatP= 3.99D-11
 IDIUse=1 WtCom= 1.00D+00 WtEn= 0.00D+00
 Coeff-Com:  0.439D-04 0.312D-04-0.498D-03-0.251D-02-0.428D-03 0.185D-01
 Coeff-Com:  0.184D-01-0.125D+00-0.131D+00 0.122D+01
 Coeff:      0.439D-04 0.312D-04-0.498D-03-0.251D-02-0.428D-03 0.185D-01
 Coeff:      0.184D-01-0.125D+00-0.131D+00 0.122D+01
 Gap=     0.357 Goal=   None    Shift=    0.000
 RMSDP=1.22D-07 MaxDP=1.18D-06 DE=-1.19D-10 OVMax= 2.57D-06

 Cycle  11  Pass 1  IDiag  1:
 E= -191.786361900216     Delta-E=       -0.000000000005 Rises=F Damp=F
 DIIS: error= 2.55D-08 at cycle  11 NSaved=  11.
 NSaved=11 IEnMin=11 EnMin= -191.786361900216     IErMin=11 ErrMin= 2.55D-08
 ErrMax= 2.55D-08  0.00D+00 EMaxC= 1.00D-01 BMatC= 4.40D-14 BMatP= 1.03D-12
 IDIUse=1 WtCom= 1.00D+00 WtEn= 0.00D+00
 Coeff-Com: -0.144D-04 0.107D-03 0.126D-03-0.203D-03-0.142D-02 0.189D-02
 Coeff-Com:  0.310D-02 0.247D-02-0.262D-01-0.146D+00 0.117D+01
 Coeff:     -0.144D-04 0.107D-03 0.126D-03-0.203D-03-0.142D-02 0.189D-02
 Coeff:      0.310D-02 0.247D-02-0.262D-01-0.146D+00 0.117D+01
 Gap=     0.357 Goal=   None    Shift=    0.000
 RMSDP=3.61D-08 MaxDP=4.05D-07 DE=-5.40D-12 OVMax= 3.85D-07

 Cycle  12  Pass 1  IDiag  1:
 E= -191.786361900217     Delta-E=        0.000000000000 Rises=F Damp=F
 DIIS: error= 4.21D-09 at cycle  12 NSaved=  12.
 NSaved=12 IEnMin=12 EnMin= -191.786361900217     IErMin=12 ErrMin= 4.21D-09
 ErrMax= 4.21D-09  0.00D+00 EMaxC= 1.00D-01 BMatC= 1.35D-15 BMatP= 4.40D-14
 IDIUse=1 WtCom= 1.00D+00 WtEn= 0.00D+00
 Coeff-Com:  0.465D-06-0.160D-04-0.619D-06 0.111D-03 0.238D-03-0.929D-03
 Coeff-Com: -0.130D-02 0.449D-02 0.836D-02-0.158D-01-0.239D+00 0.124D+01
 Coeff:      0.465D-06-0.160D-04-0.619D-06 0.111D-03 0.238D-03-0.929D-03
 Coeff:     -0.130D-02 0.449D-02 0.836D-02-0.158D-01-0.239D+00 0.124D+01
 Gap=     0.357 Goal=   None    Shift=    0.000
 RMSDP=7.44D-09 MaxDP=8.89D-08 DE=-2.84D-13 OVMax= 6.83D-08

 SCF Done:  E(RwB97XD) =  -191.786361900     A.U. after   12 cycles
            NFock= 12  Conv=0.74D-08     -V/T= 2.0058
 KE= 1.906819158845D+02 PE=-6.538133746936D+02 EE= 1.681587284699D+02
 Leave Link  502 at Wed May 12 11:58:28 2021, MaxMem=  2147483648 cpu:         8.1
 (Enter /opt/cluster/programs/g09_d.01/g09/l701.exe)
 Compute integral first derivatives.
 ... and contract with generalized density number  0.
 R6Disp: Adding Grimme-D2 dispersion energy 1st derivatives to the gradient.
 Leave Link  701 at Wed May 12 11:58:28 2021, MaxMem=  2147483648 cpu:         0.6
 (Enter /opt/cluster/programs/g09_d.01/g09/l702.exe)
 L702 exits ... SP integral derivatives will be done elsewhere.
 Leave Link  702 at Wed May 12 11:58:28 2021, MaxMem=  2147483648 cpu:         0.2
 (Enter /opt/cluster/programs/g09_d.01/g09/l703.exe)
 Compute integral first derivatives, UseDBF=F ICtDFT=           0.
 Integral derivatives from FoFJK, PRISM(SPDF).
 Calling FoFJK, ICntrl=      2127 FMM=F ISym2X=0 I1Cent= 0 IOpClX= 0 NMat=1 NMatS=1 NMatT=0.
 FoFJK:  IHMeth= 1 ICntrl=    2127 DoSepK=T KAlg= 0 I1Cent=   0 FoldK=F
 IRaf=         1 NMat=   1 IRICut=       1 DoRegI=T DoRafI=F ISym2E= 0.
 FoFCou: FMM=F IPFlag=           0 FMFlag=      100000 FMFlg1=         800
         NFxFlg=           0 DoJE=F BraDBF=F KetDBF=F FulRan=T
         wScrn=  0.000000 ICntrl=    2527 IOpCl=  0 I1Cent=           0 NGrid=           0
         NMat0=    1 NMatS0=      1 NMatT0=    0 NMatD0=    1 NMtDS0=    0 NMtDT0=    0
 Symmetry not used in FoFCou.
 Leave Link  703 at Wed May 12 11:58:28 2021, MaxMem=  2147483648 cpu:         2.5
 (Enter /opt/cluster/programs/g09_d.01/g09/l716.exe)
 Dipole        =-1.01543191D+00 7.48061347D-01 3.42498933D-01
 ***** Axes restored to original set *****
 -------------------------------------------------------------------
 Center     Atomic                   Forces (Hartrees/Bohr)
 Number     Number              X              Y              Z
 -------------------------------------------------------------------
      1        6          -0.000679211    0.003003194   -0.004519966
      2        6           0.002573146   -0.003287627    0.008596546
      3        6          -0.003895352   -0.001985334   -0.008017690
      4        8           0.002000443    0.002495030    0.004369965
      5        1          -0.000129880   -0.000403698   -0.000248893
      6        1           0.000063862    0.000057840    0.000025365
      7        1           0.000028817    0.000034397   -0.000002910
      8        1           0.000038176    0.000086198   -0.000202417
 -------------------------------------------------------------------
 Cartesian Forces:  Max     0.008596546 RMS     0.003124265
 Leave Link  716 at Wed May 12 11:58:28 2021, MaxMem=  2147483648 cpu:         0.2
 (Enter /opt/cluster/programs/g09_d.01/g09/l103.exe)

 GradGradGradGradGradGradGradGradGradGradGradGradGradGradGradGradGradGrad
 Berny optimization.
 Using GEDIIS/GDIIS optimizer.
 FormGI is forming the generalized inverse of G from B-inverse, IUseBI=4.
 Internal  Forces:  Max     0.006536772 RMS     0.001737075
 Search for a local minimum.
 Step number   2 out of a maximum of   34
 All quantities printed in internal units (Hartrees-Bohrs-Radians)
 RMS Force = .38513D-03 SwitMx=.10000D-02 MixMth= 2
 Mixed Optimization -- En-DIIS/RFO-DIIS
 Update second derivatives using D2CorX and points    1    2
 DE= -1.15D-04 DEPred=-1.22D-04 R= 9.42D-01
 TightC=F SS=  1.41D+00  RLast= 5.06D-02 DXNew= 5.0454D-01 1.5188D-01
 Trust test= 9.42D-01 RLast= 5.06D-02 DXMaxT set to 3.00D-01
 ITU=  1  0
 Use linear search instead of GDIIS.
     Eigenvalues ---    0.01217   0.01667   0.02848   0.02849   0.15862
     Eigenvalues ---    0.15993   0.16000   0.16080   0.20855   0.22035
     Eigenvalues ---    0.33080   0.34625   0.35142   0.35248   0.35816
     Eigenvalues ---    0.60898   0.789541000.000001000.000001000.00000
     Eigenvalues --- 1000.000001000.000001000.000001000.00000
 RFO step:  Lambda=-4.73732167D-05 EMin= 1.21657802D-02
 Quartic linear search produced a step of -0.05689.
 Iteration  1 RMS(Cart)=  0.01048227 RMS(Int)=  0.00019608
 Iteration  2 RMS(Cart)=  0.00017266 RMS(Int)=  0.00009062
 Iteration  3 RMS(Cart)=  0.00000001 RMS(Int)=  0.00009062
 Iteration  1 RMS(Cart)=  0.00000186 RMS(Int)=  0.00000155
 Iteration  2 RMS(Cart)=  0.00000071 RMS(Int)=  0.00000172
 ITry= 1 IFail=0 DXMaxC= 2.61D-02 DCOld= 1.00D+10 DXMaxT= 3.00D-01 DXLimC= 3.00D+00 Rises=F
 Variable       Old X    -DE/DX   Delta X   Delta X   Delta X     New X
                                 (Linear)    (Quad)   (Total)
    R1        2.52637   0.00092   0.00061  -0.00116  -0.00056   2.52581
    R2        2.04979   0.00005   0.00011  -0.00035  -0.00024   2.04954
    R3        2.05258   0.00002   0.00006  -0.00021  -0.00015   2.05243
    R4        2.79559   0.00094   0.00026   0.00145   0.00170   2.79729
    R5        2.05837   0.00000   0.00015  -0.00065  -0.00050   2.05787
    R6        2.33559  -0.00079   0.00063  -0.00365  -0.00303   2.33257
    R7        2.08276   0.00019   0.00033  -0.00092  -0.00059   2.08218
    A1        2.12102   0.00008   0.00014  -0.00013   0.00000   2.12102
    A2        2.11749   0.00000   0.00009  -0.00044  -0.00035   2.11714
    A3        2.04466  -0.00008  -0.00023   0.00058   0.00035   2.04500
    A4        2.14832  -0.00038   0.00032  -0.00300  -0.00273   2.14560
    A5        2.10889   0.00052  -0.00018   0.00227   0.00204   2.11094
    A6        2.01664   0.00021  -0.00024   0.00312   0.00284   2.01948
    A7        2.17737  -0.00012   0.00028  -0.00241  -0.00239   2.17498
    A8        2.01907   0.00007  -0.00026   0.00044  -0.00007   2.01900
    A9        2.08597   0.00021  -0.00008   0.00047   0.00014   2.08611
    D1        3.05711   0.00145  -0.00028   0.00902   0.00874   3.06585
    D2        0.06848  -0.00147   0.00055  -0.01074  -0.01019   0.05830
    D3       -0.09189   0.00145  -0.00039   0.00940   0.00901  -0.08289
    D4       -3.08052  -0.00147   0.00043  -0.01036  -0.00992  -3.09044
    D5        1.04721  -0.00654   0.00000   0.00000   0.00000   1.04721
    D6       -2.13719  -0.00183  -0.00123  -0.04115  -0.04237  -2.17955
    D7       -2.23991  -0.00373  -0.00079   0.01877   0.01798  -2.22193
    D8        0.85888   0.00098  -0.00201  -0.02238  -0.02439   0.83449
         Item               Value     Threshold  Converged?
 Maximum Force            0.000943     0.000450     NO 
 RMS     Force            0.000385     0.000300     NO 
 Maximum Displacement     0.026062     0.001800     NO 
 RMS     Displacement     0.010484     0.001200     NO 
 Predicted change in Energy=-2.411127D-05
 Lowest energy point so far.  Saving SCF results.
 GradGradGradGradGradGradGradGradGradGradGradGradGradGradGradGradGradGrad

 Leave Link  103 at Wed May 12 11:58:28 2021, MaxMem=  2147483648 cpu:         0.0
 (Enter /opt/cluster/programs/g09_d.01/g09/l202.exe)
                          Input orientation:                          
 ---------------------------------------------------------------------
 Center     Atomic      Atomic             Coordinates (Angstroms)
 Number     Number       Type             X           Y           Z
 ---------------------------------------------------------------------
      1          6           0        1.564728    0.417631    0.080075
      2          6           0        0.651476   -0.527327   -0.163922
      3          6           0       -0.771203   -0.390149    0.221240
      4          8           0       -1.522957    0.503398   -0.178813
      5          1           0       -1.176740   -1.201160    0.847222
      6          1           0        2.613749    0.265168   -0.149284
      7          1           0        1.285301    1.374555    0.511158
      8          1           0        0.943915   -1.501842   -0.552084
 ---------------------------------------------------------------------
                    Distance matrix (angstroms):
                    1          2          3          4          5
     1  C    0.000000
     2  C    1.336604   0.000000
     3  C    2.475683   1.480264   0.000000
     4  O    3.099706   2.406402   1.234342   0.000000
     5  H    3.274850   2.195185   1.101841   2.019438   0.000000
     6  H    1.084572   2.116313   3.467655   4.143666   4.184609
     7  H    1.086101   2.115330   2.725333   3.020147   3.578952
     8  H    2.114097   1.088976   2.185296   3.200902   2.558446
                    6          7          8
     6  H    0.000000
     7  H    1.852484   0.000000
     8  H    2.464329   3.085561   0.000000
 Stoichiometry    C3H4O
 Framework group  C1[X(C3H4O)]
 Deg. of freedom    18
 Full point group                 C1      NOp   1
 RotChk:  IX=0 Diff= 8.02D-03
 Largest Abelian subgroup         C1      NOp   1
 Largest concise Abelian subgroup C1      NOp   1
                         Standard orientation:                         
 ---------------------------------------------------------------------
 Center     Atomic      Atomic             Coordinates (Angstroms)
 Number     Number       Type             X           Y           Z
 ---------------------------------------------------------------------
      1          6           0       -1.559530   -0.418929    0.079911
      2          6           0       -0.646510    0.525150   -0.168316
      3          6           0        0.776098    0.390269    0.217919
      4          8           0        1.528259   -0.504931   -0.177647
      5          1           0        1.181187    1.204386    0.840149
      6          1           0       -2.608532   -0.267900   -0.150485
      7          1           0       -1.279925   -1.373697    0.515633
      8          1           0       -0.939147    1.497709   -0.561205
 ---------------------------------------------------------------------
 Rotational constants (GHZ):     25.6455180      5.4797988      4.7504000
 Leave Link  202 at Wed May 12 11:58:28 2021, MaxMem=  2147483648 cpu:         0.0
 (Enter /opt/cluster/programs/g09_d.01/g09/l301.exe)
 Standard basis: 6-31+G (6D, 7F)
 Ernie: Thresh=  0.10000D-02 Tol=  0.10000D-05 Strict=F.
 There are    60 symmetry adapted cartesian basis functions of A   symmetry.
 There are    60 symmetry adapted basis functions of A   symmetry.
    60 basis functions,   120 primitive gaussians,    60 cartesian basis functions
    15 alpha electrons       15 beta electrons
       nuclear repulsion energy       103.2414464351 Hartrees.
 IExCor= 4639 DFT=T Ex+Corr=wB97XD ExCW=0 ScaHFX=  1.000000
 ScaDFX=  1.000000  1.000000  1.000000  1.000000 ScalE2=  1.000000  1.000000
 IRadAn=      0 IRanWt=     -1 IRanGd=            0 ICorTp=0 IEmpDi=121
  HFx wShort=  0.000000 wLong=  0.200000 cFull=  0.222036 cShort=  0.000000 cLong=  0.777964
  DFx wShort=  0.000000 wLong=  0.200000 cFull=  0.000000 cShort=  0.000000 cLong=  1.000000
 NAtoms=    8 NActive=    8 NUniq=    8 SFac= 1.00D+00 NAtFMM=   60 NAOKFM=F Big=F
 Integral buffers will be    131072 words long.
 Raffenetti 2 integral format.
 Two-electron integral symmetry is turned on.
 R6Disp:  Grimme-D2 Dispersion energy=       -0.0017951304 Hartrees.
 Nuclear repulsion after empirical dispersion term =      103.2396513047 Hartrees.
 Leave Link  301 at Wed May 12 11:58:28 2021, MaxMem=  2147483648 cpu:         0.3
 (Enter /opt/cluster/programs/g09_d.01/g09/l302.exe)
 NPDir=0 NMtPBC=     1 NCelOv=     1 NCel=       1 NClECP=     1 NCelD=      1
         NCelK=      1 NCelE2=     1 NClLst=     1 CellRange=     0.0.
 One-electron integrals computed using PRISM.
 NBasis=    60 RedAO= T EigKep=  1.34D-04  NBF=    60
 NBsUse=    60 1.00D-06 EigRej= -1.00D+00 NBFU=    60
 Precomputing XC quadrature grid using
 IXCGrd= 4 IRadAn=           0 IRanWt=          -1 IRanGd=           0 AccXCQ= 0.00D+00.
 Generated NRdTot=       0 NPtTot=           0 NUsed=           0 NTot=          32
 NSgBfM=    60    60    60    60    60 MxSgAt=     8 MxSgA2=     8.
 Leave Link  302 at Wed May 12 11:58:28 2021, MaxMem=  2147483648 cpu:         0.8
 (Enter /opt/cluster/programs/g09_d.01/g09/l303.exe)
 DipDrv:  MaxL=1.
 Leave Link  303 at Wed May 12 11:58:29 2021, MaxMem=  2147483648 cpu:         0.2
 (Enter /opt/cluster/programs/g09_d.01/g09/l401.exe)
 Initial guess from the checkpoint file:  "/home/unibas/boittier/RDKit_G2/L.pdb/SCAN_1_2_3_4_S_17_20.0/12_SCAN_1_2_3_4_F/L.pdb.chk"
 B after Tr=     0.000000    0.000000    0.000000
         Rot=    0.999999    0.000832   -0.000306    0.000576 Ang=   0.12 deg.
 Guess basis will be translated and rotated to current coordinates.
 JPrj=2 DoOrth=T DoCkMO=T.
 Generating alternative initial guess.
 ExpMin= 4.38D-02 ExpMax= 5.48D+03 ExpMxC= 8.25D+02 IAcc=2 IRadAn=         4 AccDes= 0.00D+00
 Harris functional with IExCor= 4639 and IRadAn=       4 diagonalized for initial guess.
 HarFok:  IExCor= 4639 AccDes= 0.00D+00 IRadAn=         4 IDoV= 1 UseB2=F ITyADJ=14
 ICtDFT=  3500011 ScaDFX=  1.000000  1.000000  1.000000  1.000000
 FoFCou: FMM=F IPFlag=           0 FMFlag=      100000 FMFlg1=           0
         NFxFlg=           0 DoJE=T BraDBF=F KetDBF=T FulRan=T
         wScrn=  0.000000 ICntrl=     500 IOpCl=  0 I1Cent=   200000004 NGrid=           0
         NMat0=    1 NMatS0=      1 NMatT0=    0 NMatD0=    1 NMtDS0=    0 NMtDT0=    0
 Petite list used in FoFCou.
 Harris En= -183.739939235488    
 Leave Link  401 at Wed May 12 11:58:29 2021, MaxMem=  2147483648 cpu:         1.4
 (Enter /opt/cluster/programs/g09_d.01/g09/l502.exe)
 Closed shell SCF:
 Using DIIS extrapolation, IDIIS=  1040.
 Integral symmetry usage will be decided dynamically.
 Keep R1 ints in memory in canonical form, NReq=4262490.
 IVT=       30290 IEndB=       30290 NGot=  2147483648 MDV=  2144102629
 LenX=  2144102629 LenY=  2144098588
 Requested convergence on RMS density matrix=1.00D-08 within 128 cycles.
 Requested convergence on MAX density matrix=1.00D-06.
 Requested convergence on             energy=1.00D-06.
 No special actions if energy rises.
 FoFCou: FMM=F IPFlag=           0 FMFlag=           0 FMFlg1=           0
         NFxFlg=           0 DoJE=F BraDBF=F KetDBF=F FulRan=T
         wScrn=  0.000000 ICntrl=     600 IOpCl=  0 I1Cent=           0 NGrid=           0
         NMat0=    1 NMatS0=   1830 NMatT0=    0 NMatD0=    1 NMtDS0=    0 NMtDT0=    0
 Symmetry not used in FoFCou.

 Cycle   1  Pass 1  IDiag  1:
 E= -191.786206939285    
 DIIS: error= 5.77D-04 at cycle   1 NSaved=   1.
 NSaved= 1 IEnMin= 1 EnMin= -191.786206939285     IErMin= 1 ErrMin= 5.77D-04
 ErrMax= 5.77D-04  0.00D+00 EMaxC= 1.00D-01 BMatC= 4.61D-05 BMatP= 4.61D-05
 IDIUse=3 WtCom= 9.94D-01 WtEn= 5.77D-03
 Coeff-Com:  0.100D+01
 Coeff-En:   0.100D+01
 Coeff:      0.100D+01
 Gap=     0.608 Goal=   None    Shift=    0.000
 RMSDP=3.66D-04 MaxDP=3.58D-03              OVMax= 3.97D-03

 Cycle   2  Pass 1  IDiag  1:
 E= -191.786314133759     Delta-E=       -0.000107194474 Rises=F Damp=F
 DIIS: error= 3.26D-04 at cycle   2 NSaved=   2.
 NSaved= 2 IEnMin= 2 EnMin= -191.786314133759     IErMin= 2 ErrMin= 3.26D-04
 ErrMax= 3.26D-04  0.00D+00 EMaxC= 1.00D-01 BMatC= 2.87D-06 BMatP= 4.61D-05
 IDIUse=3 WtCom= 9.97D-01 WtEn= 3.26D-03
 Coeff-Com: -0.211D+00 0.121D+01
 Coeff-En:   0.000D+00 0.100D+01
 Coeff:     -0.210D+00 0.121D+01
 Gap=     0.357 Goal=   None    Shift=    0.000
 RMSDP=9.79D-05 MaxDP=7.68D-04 DE=-1.07D-04 OVMax= 2.64D-03

 Cycle   3  Pass 1  IDiag  1:
 E= -191.786326624570     Delta-E=       -0.000012490811 Rises=F Damp=F
 DIIS: error= 1.32D-04 at cycle   3 NSaved=   3.
 NSaved= 3 IEnMin= 3 EnMin= -191.786326624570     IErMin= 3 ErrMin= 1.32D-04
 ErrMax= 1.32D-04  0.00D+00 EMaxC= 1.00D-01 BMatC= 5.96D-07 BMatP= 2.87D-06
 IDIUse=3 WtCom= 9.99D-01 WtEn= 1.32D-03
 Coeff-Com: -0.796D-01 0.315D+00 0.765D+00
 Coeff-En:   0.000D+00 0.000D+00 0.100D+01
 Coeff:     -0.794D-01 0.314D+00 0.765D+00
 Gap=     0.357 Goal=   None    Shift=    0.000
 RMSDP=3.02D-05 MaxDP=3.21D-04 DE=-1.25D-05 OVMax= 8.87D-04

 Cycle   4  Pass 1  IDiag  1:
 E= -191.786328063697     Delta-E=       -0.000001439126 Rises=F Damp=F
 DIIS: error= 1.01D-04 at cycle   4 NSaved=   4.
 NSaved= 4 IEnMin= 4 EnMin= -191.786328063697     IErMin= 4 ErrMin= 1.01D-04
 ErrMax= 1.01D-04  0.00D+00 EMaxC= 1.00D-01 BMatC= 3.72D-07 BMatP= 5.96D-07
 IDIUse=3 WtCom= 9.99D-01 WtEn= 1.01D-03
 Coeff-Com:  0.226D-01-0.212D+00 0.465D+00 0.724D+00
 Coeff-En:   0.000D+00 0.000D+00 0.000D+00 0.100D+01
 Coeff:      0.226D-01-0.212D+00 0.465D+00 0.724D+00
 Gap=     0.357 Goal=   None    Shift=    0.000
 RMSDP=2.49D-05 MaxDP=3.01D-04 DE=-1.44D-06 OVMax= 8.12D-04

 Cycle   5  Pass 1  IDiag  1:
 E= -191.786328970626     Delta-E=       -0.000000906929 Rises=F Damp=F
 DIIS: error= 4.65D-05 at cycle   5 NSaved=   5.
 NSaved= 5 IEnMin= 5 EnMin= -191.786328970626     IErMin= 5 ErrMin= 4.65D-05
 ErrMax= 4.65D-05  0.00D+00 EMaxC= 1.00D-01 BMatC= 3.82D-08 BMatP= 3.72D-07
 IDIUse=1 WtCom= 1.00D+00 WtEn= 0.00D+00
 Coeff-Com:  0.202D-01-0.103D+00-0.941D-01 0.144D+00 0.103D+01
 Coeff:      0.202D-01-0.103D+00-0.941D-01 0.144D+00 0.103D+01
 Gap=     0.357 Goal=   None    Shift=    0.000
 RMSDP=1.63D-05 MaxDP=1.12D-04 DE=-9.07D-07 OVMax= 5.72D-04

 Cycle   6  Pass 1  IDiag  1:
 E= -191.786329213154     Delta-E=       -0.000000242528 Rises=F Damp=F
 DIIS: error= 1.67D-05 at cycle   6 NSaved=   6.
 NSaved= 6 IEnMin= 6 EnMin= -191.786329213154     IErMin= 6 ErrMin= 1.67D-05
 ErrMax= 1.67D-05  0.00D+00 EMaxC= 1.00D-01 BMatC= 6.64D-09 BMatP= 3.82D-08
 IDIUse=1 WtCom= 1.00D+00 WtEn= 0.00D+00
 Coeff-Com: -0.607D-03 0.241D-01-0.122D+00-0.138D+00 0.239D+00 0.997D+00
 Coeff:     -0.607D-03 0.241D-01-0.122D+00-0.138D+00 0.239D+00 0.997D+00
 Gap=     0.357 Goal=   None    Shift=    0.000
 RMSDP=7.51D-06 MaxDP=6.58D-05 DE=-2.43D-07 OVMax= 2.76D-04

 Cycle   7  Pass 1  IDiag  1:
 E= -191.786329255602     Delta-E=       -0.000000042448 Rises=F Damp=F
 DIIS: error= 4.63D-06 at cycle   7 NSaved=   7.
 NSaved= 7 IEnMin= 7 EnMin= -191.786329255602     IErMin= 7 ErrMin= 4.63D-06
 ErrMax= 4.63D-06  0.00D+00 EMaxC= 1.00D-01 BMatC= 9.28D-10 BMatP= 6.64D-09
 IDIUse=1 WtCom= 1.00D+00 WtEn= 0.00D+00
 Coeff-Com: -0.255D-02 0.197D-01-0.251D-01-0.596D-01-0.503D-01 0.283D+00
 Coeff-Com:  0.835D+00
 Coeff:     -0.255D-02 0.197D-01-0.251D-01-0.596D-01-0.503D-01 0.283D+00
 Coeff:      0.835D+00
 Gap=     0.357 Goal=   None    Shift=    0.000
 RMSDP=2.14D-06 MaxDP=1.70D-05 DE=-4.24D-08 OVMax= 6.64D-05

 Cycle   8  Pass 1  IDiag  1:
 E= -191.786329258927     Delta-E=       -0.000000003325 Rises=F Damp=F
 DIIS: error= 2.51D-06 at cycle   8 NSaved=   8.
 NSaved= 8 IEnMin= 8 EnMin= -191.786329258927     IErMin= 8 ErrMin= 2.51D-06
 ErrMax= 2.51D-06  0.00D+00 EMaxC= 1.00D-01 BMatC= 2.08D-10 BMatP= 9.28D-10
 IDIUse=1 WtCom= 1.00D+00 WtEn= 0.00D+00
 Coeff-Com: -0.643D-03 0.886D-03 0.198D-01 0.110D-01-0.726D-01-0.131D+00
 Coeff-Com:  0.319D+00 0.853D+00
 Coeff:     -0.643D-03 0.886D-03 0.198D-01 0.110D-01-0.726D-01-0.131D+00
 Coeff:      0.319D+00 0.853D+00
 Gap=     0.357 Goal=   None    Shift=    0.000
 RMSDP=9.35D-07 MaxDP=9.33D-06 DE=-3.32D-09 OVMax= 2.29D-05

 Cycle   9  Pass 1  IDiag  1:
 E= -191.786329259440     Delta-E=       -0.000000000513 Rises=F Damp=F
 DIIS: error= 4.20D-07 at cycle   9 NSaved=   9.
 NSaved= 9 IEnMin= 9 EnMin= -191.786329259440     IErMin= 9 ErrMin= 4.20D-07
 ErrMax= 4.20D-07  0.00D+00 EMaxC= 1.00D-01 BMatC= 4.64D-12 BMatP= 2.08D-10
 IDIUse=1 WtCom= 1.00D+00 WtEn= 0.00D+00
 Coeff-Com:  0.989D-04-0.108D-02 0.309D-02 0.436D-02-0.272D-02-0.273D-01
 Coeff-Com: -0.214D-01 0.644D-01 0.981D+00
 Coeff:      0.989D-04-0.108D-02 0.309D-02 0.436D-02-0.272D-02-0.273D-01
 Coeff:     -0.214D-01 0.644D-01 0.981D+00
 Gap=     0.357 Goal=   None    Shift=    0.000
 RMSDP=2.02D-07 MaxDP=2.61D-06 DE=-5.13D-10 OVMax= 2.63D-06

 Cycle  10  Pass 1  IDiag  1:
 E= -191.786329259455     Delta-E=       -0.000000000015 Rises=F Damp=F
 DIIS: error= 9.03D-08 at cycle  10 NSaved=  10.
 NSaved=10 IEnMin=10 EnMin= -191.786329259455     IErMin=10 ErrMin= 9.03D-08
 ErrMax= 9.03D-08  0.00D+00 EMaxC= 1.00D-01 BMatC= 9.97D-13 BMatP= 4.64D-12
 IDIUse=1 WtCom= 1.00D+00 WtEn= 0.00D+00
 Coeff-Com:  0.978D-04-0.440D-03-0.114D-02 0.215D-03 0.710D-02 0.524D-02
 Coeff-Com: -0.391D-01-0.790D-01 0.300D+00 0.807D+00
 Coeff:      0.978D-04-0.440D-03-0.114D-02 0.215D-03 0.710D-02 0.524D-02
 Coeff:     -0.391D-01-0.790D-01 0.300D+00 0.807D+00
 Gap=     0.357 Goal=   None    Shift=    0.000
 RMSDP=5.45D-08 MaxDP=5.75D-07 DE=-1.49D-11 OVMax= 6.45D-07

 Cycle  11  Pass 1  IDiag  1:
 E= -191.786329259457     Delta-E=       -0.000000000002 Rises=F Damp=F
 DIIS: error= 2.94D-08 at cycle  11 NSaved=  11.
 NSaved=11 IEnMin=11 EnMin= -191.786329259457     IErMin=11 ErrMin= 2.94D-08
 ErrMax= 2.94D-08  0.00D+00 EMaxC= 1.00D-01 BMatC= 3.13D-14 BMatP= 9.97D-13
 IDIUse=1 WtCom= 1.00D+00 WtEn= 0.00D+00
 Coeff-Com: -0.753D-05 0.825D-04-0.234D-03-0.292D-03 0.737D-04 0.181D-02
 Coeff-Com:  0.383D-02-0.739D-02-0.712D-01-0.241D-01 0.110D+01
 Coeff:     -0.753D-05 0.825D-04-0.234D-03-0.292D-03 0.737D-04 0.181D-02
 Coeff:      0.383D-02-0.739D-02-0.712D-01-0.241D-01 0.110D+01
 Gap=     0.357 Goal=   None    Shift=    0.000
 RMSDP=2.70D-08 MaxDP=4.30D-07 DE=-1.59D-12 OVMax= 2.55D-07

 Cycle  12  Pass 1  IDiag  1:
 E= -191.786329259458     Delta-E=       -0.000000000001 Rises=F Damp=F
 DIIS: error= 6.93D-09 at cycle  12 NSaved=  12.
 NSaved=12 IEnMin=12 EnMin= -191.786329259458     IErMin=12 ErrMin= 6.93D-09
 ErrMax= 6.93D-09  0.00D+00 EMaxC= 1.00D-01 BMatC= 1.31D-15 BMatP= 3.13D-14
 IDIUse=1 WtCom= 1.00D+00 WtEn= 0.00D+00
 Coeff-Com: -0.201D-05-0.546D-06 0.888D-04 0.725D-04-0.321D-03-0.574D-03
 Coeff-Com:  0.879D-03 0.433D-02 0.452D-02-0.333D-01-0.231D+00 0.125D+01
 Coeff:     -0.201D-05-0.546D-06 0.888D-04 0.725D-04-0.321D-03-0.574D-03
 Coeff:      0.879D-03 0.433D-02 0.452D-02-0.333D-01-0.231D+00 0.125D+01
 Gap=     0.357 Goal=   None    Shift=    0.000
 RMSDP=8.06D-09 MaxDP=1.28D-07 DE=-8.53D-13 OVMax= 7.50D-08

 SCF Done:  E(RwB97XD) =  -191.786329259     A.U. after   12 cycles
            NFock= 12  Conv=0.81D-08     -V/T= 2.0058
 KE= 1.906890662757D+02 PE=-6.539268154096D+02 EE= 1.682117685698D+02
 Leave Link  502 at Wed May 12 11:58:31 2021, MaxMem=  2147483648 cpu:        15.6
 (Enter /opt/cluster/programs/g09_d.01/g09/l701.exe)
 Compute integral first derivatives.
 ... and contract with generalized density number  0.
 R6Disp: Adding Grimme-D2 dispersion energy 1st derivatives to the gradient.
 Leave Link  701 at Wed May 12 11:58:32 2021, MaxMem=  2147483648 cpu:         0.6
 (Enter /opt/cluster/programs/g09_d.01/g09/l702.exe)
 L702 exits ... SP integral derivatives will be done elsewhere.
 Leave Link  702 at Wed May 12 11:58:32 2021, MaxMem=  2147483648 cpu:         0.2
 (Enter /opt/cluster/programs/g09_d.01/g09/l703.exe)
 Compute integral first derivatives, UseDBF=F ICtDFT=           0.
 Integral derivatives from FoFJK, PRISM(SPDF).
 Calling FoFJK, ICntrl=      2127 FMM=F ISym2X=0 I1Cent= 0 IOpClX= 0 NMat=1 NMatS=1 NMatT=0.
 FoFJK:  IHMeth= 1 ICntrl=    2127 DoSepK=T KAlg= 0 I1Cent=   0 FoldK=F
 IRaf=         1 NMat=   1 IRICut=       1 DoRegI=T DoRafI=F ISym2E= 0.
 FoFCou: FMM=F IPFlag=           0 FMFlag=      100000 FMFlg1=         800
         NFxFlg=           0 DoJE=F BraDBF=F KetDBF=F FulRan=T
         wScrn=  0.000000 ICntrl=    2527 IOpCl=  0 I1Cent=           0 NGrid=           0
         NMat0=    1 NMatS0=      1 NMatT0=    0 NMatD0=    1 NMtDS0=    0 NMtDT0=    0
 Symmetry not used in FoFCou.
 Leave Link  703 at Wed May 12 11:58:32 2021, MaxMem=  2147483648 cpu:         2.5
 (Enter /opt/cluster/programs/g09_d.01/g09/l716.exe)
 Dipole        =-1.00739269D+00 7.48866866D-01 3.34048672D-01
 ***** Axes restored to original set *****
 -------------------------------------------------------------------
 Center     Atomic                   Forces (Hartrees/Bohr)
 Number     Number              X              Y              Z
 -------------------------------------------------------------------
      1        6          -0.000143191    0.002792053   -0.004359330
      2        6           0.002179983   -0.001661467    0.009052390
      3        6          -0.003027750   -0.006634513   -0.011259190
      4        8           0.000695225    0.005195775    0.004935917
      5        1           0.000145683    0.000312214    0.001269777
      6        1           0.000188278    0.000165125   -0.000052563
      7        1           0.000065501    0.000028614    0.000131300
      8        1          -0.000103730   -0.000197802    0.000281699
 -------------------------------------------------------------------
 Cartesian Forces:  Max     0.011259190 RMS     0.003818936
 Leave Link  716 at Wed May 12 11:58:32 2021, MaxMem=  2147483648 cpu:         0.2
 (Enter /opt/cluster/programs/g09_d.01/g09/l103.exe)

 GradGradGradGradGradGradGradGradGradGradGradGradGradGradGradGradGradGrad
 Berny optimization.
 Using GEDIIS/GDIIS optimizer.
 FormGI is forming the generalized inverse of G from B-inverse, IUseBI=4.
 Internal  Forces:  Max     0.007929833 RMS     0.002154097
 Search for a local minimum.
 Step number   3 out of a maximum of   34
 All quantities printed in internal units (Hartrees-Bohrs-Radians)
 RMS Force = .65078D-03 SwitMx=.10000D-02 MixMth= 2
 Mixed Optimization -- En-DIIS/RFO-DIIS
 Swapping is turned off.
 Update second derivatives using D2CorX and points    1    2    3
 DE=  3.26D-05 DEPred=-2.41D-05 R=-1.35D+00
 Trust test=-1.35D+00 RLast= 5.58D-02 DXMaxT set to 1.50D-01
 ITU= -1  1  0
     Eigenvalues ---    0.01315   0.02834   0.02848   0.04608   0.15830
     Eigenvalues ---    0.15964   0.16024   0.16080   0.18967   0.22044
     Eigenvalues ---    0.32637   0.34423   0.35113   0.35240   0.35990
     Eigenvalues ---    0.60453   0.693871000.000001000.000001000.00000
     Eigenvalues --- 1000.000001000.000001000.000001000.00000
 En-DIIS/RFO-DIIS IScMMF=        0 using points:     3    2
 RFO step:  Lambda=-2.76652852D-05.
 NNeg= 0 NP= 2 Switch=  2.50D-03 Rises=F DC= -3.26D-05 SmlDif=  1.00D-05
 RMS Error=  0.1886044892D-02 NUsed= 2 EDIIS=F
 DidBck=T Rises=F RFO-DIIS coefs:    0.29633    0.70367
 Iteration  1 RMS(Cart)=  0.00800029 RMS(Int)=  0.00010427
 Iteration  2 RMS(Cart)=  0.00009590 RMS(Int)=  0.00001591
 Iteration  3 RMS(Cart)=  0.00000000 RMS(Int)=  0.00001591
 Iteration  1 RMS(Cart)=  0.00000037 RMS(Int)=  0.00000031
 ITry= 1 IFail=0 DXMaxC= 2.23D-02 DCOld= 1.00D+10 DXMaxT= 1.50D-01 DXLimC= 3.00D+00 Rises=F
 Variable       Old X    -DE/DX   Delta X   Delta X   Delta X     New X
                                 (Linear)    (Quad)   (Total)
    R1        2.52581   0.00141   0.00039   0.00144   0.00183   2.52764
    R2        2.04954   0.00017   0.00017   0.00016   0.00033   2.04987
    R3        2.05243   0.00006   0.00011   0.00006   0.00016   2.05259
    R4        2.79729   0.00068  -0.00120   0.00230   0.00110   2.79839
    R5        2.05787   0.00005   0.00035  -0.00005   0.00031   2.05818
    R6        2.33257   0.00174   0.00213  -0.00049   0.00164   2.33421
    R7        2.08218   0.00044   0.00041   0.00056   0.00098   2.08315
    A1        2.12102   0.00019   0.00000   0.00060   0.00059   2.12161
    A2        2.11714  -0.00003   0.00024  -0.00012   0.00012   2.11726
    A3        2.04500  -0.00016  -0.00024  -0.00047  -0.00072   2.04429
    A4        2.14560   0.00042   0.00192  -0.00124   0.00070   2.14629
    A5        2.11094   0.00030  -0.00144   0.00085  -0.00056   2.11037
    A6        2.01948  -0.00044  -0.00200   0.00071  -0.00126   2.01821
    A7        2.17498   0.00038   0.00168  -0.00047   0.00125   2.17623
    A8        2.01900   0.00013   0.00005   0.00009   0.00018   2.01918
    A9        2.08611   0.00006  -0.00010   0.00049   0.00043   2.08654
[...]

 Cycle  11  Pass 1  IDiag  1:
 E= -191.786371965042     Delta-E=        0.000000000000 Rises=F Damp=F
 DIIS: error= 2.28D-08 at cycle  11 NSaved=  11.
 NSaved=11 IEnMin=11 EnMin= -191.786371965042     IErMin=11 ErrMin= 2.28D-08
 ErrMax= 2.28D-08  0.00D+00 EMaxC= 1.00D-01 BMatC= 1.89D-14 BMatP= 5.48D-13
 IDIUse=1 WtCom= 1.00D+00 WtEn= 0.00D+00
 Coeff-Com: -0.762D-05 0.874D-04-0.127D-03-0.349D-03-0.256D-03 0.148D-02
 Coeff-Com:  0.391D-02-0.362D-02-0.412D-01-0.118D+00 0.116D+01
 Coeff:     -0.762D-05 0.874D-04-0.127D-03-0.349D-03-0.256D-03 0.148D-02
 Coeff:      0.391D-02-0.362D-02-0.412D-01-0.118D+00 0.116D+01
 Gap=     0.358 Goal=   None    Shift=    0.000
 RMSDP=2.09D-08 MaxDP=3.19D-07 DE=-3.98D-13 OVMax= 2.40D-07

 Cycle  12  Pass 1  IDiag  1:
 E= -191.786371965042     Delta-E=        0.000000000000 Rises=F Damp=F
 DIIS: error= 3.35D-09 at cycle  12 NSaved=  12.
 NSaved=12 IEnMin=12 EnMin= -191.786371965042     IErMin=12 ErrMin= 3.35D-09
 ErrMax= 3.35D-09  0.00D+00 EMaxC= 1.00D-01 BMatC= 8.14D-16 BMatP= 1.89D-14
 IDIUse=1 WtCom= 1.00D+00 WtEn= 0.00D+00
 Coeff-Com: -0.234D-05-0.879D-06 0.614D-04 0.871D-04-0.101D-03-0.720D-03
 Coeff-Com: -0.190D-03 0.452D-02 0.796D-02-0.173D-01-0.270D+00 0.128D+01
 Coeff:     -0.234D-05-0.879D-06 0.614D-04 0.871D-04-0.101D-03-0.720D-03
 Coeff:     -0.190D-03 0.452D-02 0.796D-02-0.173D-01-0.270D+00 0.128D+01
 Gap=     0.358 Goal=   None    Shift=    0.000
 RMSDP=5.77D-09 MaxDP=9.30D-08 DE=-1.14D-13 OVMax= 6.08D-08

 SCF Done:  E(RwB97XD) =  -191.786371965     A.U. after   12 cycles
            NFock= 12  Conv=0.58D-08     -V/T= 2.0058
 KE= 1.906797875857D+02 PE=-6.537906861399D+02 EE= 1.681488204509D+02
 Leave Link  502 at Wed May 12 11:58:34 2021, MaxMem=  2147483648 cpu:         8.1
 (Enter /opt/cluster/programs/g09_d.01/g09/l701.exe)
 Compute integral first derivatives.
 ... and contract with generalized density number  0.
 R6Disp: Adding Grimme-D2 dispersion energy 1st derivatives to the gradient.
 Leave Link  701 at Wed May 12 11:58:34 2021, MaxMem=  2147483648 cpu:         0.6
 (Enter /opt/cluster/programs/g09_d.01/g09/l702.exe)
 L702 exits ... SP integral derivatives will be done elsewhere.
 Leave Link  702 at Wed May 12 11:58:34 2021, MaxMem=  2147483648 cpu:         0.2
 (Enter /opt/cluster/programs/g09_d.01/g09/l703.exe)
 Compute integral first derivatives, UseDBF=F ICtDFT=           0.
 Integral derivatives from FoFJK, PRISM(SPDF).
 Calling FoFJK, ICntrl=      2127 FMM=F ISym2X=0 I1Cent= 0 IOpClX= 0 NMat=1 NMatS=1 NMatT=0.
 FoFJK:  IHMeth= 1 ICntrl=    2127 DoSepK=T KAlg= 0 I1Cent=   0 FoldK=F
 IRaf=         1 NMat=   1 IRICut=       1 DoRegI=T DoRafI=F ISym2E= 0.
 FoFCou: FMM=F IPFlag=           0 FMFlag=      100000 FMFlg1=         800
         NFxFlg=           0 DoJE=F BraDBF=F KetDBF=F FulRan=T
         wScrn=  0.000000 ICntrl=    2527 IOpCl=  0 I1Cent=           0 NGrid=           0
         NMat0=    1 NMatS0=      1 NMatT0=    0 NMatD0=    1 NMtDS0=    0 NMtDT0=    0
 Symmetry not used in FoFCou.
 Leave Link  703 at Wed May 12 11:58:34 2021, MaxMem=  2147483648 cpu:         2.5
 (Enter /opt/cluster/programs/g09_d.01/g09/l716.exe)
 Dipole        =-1.01062768D+00 7.47917677D-01 3.40252484D-01
 ***** Axes restored to original set *****
 -------------------------------------------------------------------
 Center     Atomic                   Forces (Hartrees/Bohr)
 Number     Number              X              Y              Z
 -------------------------------------------------------------------
      1        6          -0.001051926    0.002282136   -0.004582104
      2        6           0.002418345   -0.001947807    0.008880531
      3        6          -0.002870158   -0.003713226   -0.008793794
      4        8           0.001446198    0.003416481    0.004433641
      5        1           0.000009791   -0.000070423    0.000039039
      6        1           0.000031252    0.000010878    0.000008595
      7        1           0.000005141    0.000011604    0.000007959
      8        1           0.000011358    0.000010357    0.000006133
 -------------------------------------------------------------------
 Cartesian Forces:  Max     0.008880531 RMS     0.003218452
 Leave Link  716 at Wed May 12 11:58:34 2021, MaxMem=  2147483648 cpu:         0.2
 (Enter /opt/cluster/programs/g09_d.01/g09/l103.exe)

 GradGradGradGradGradGradGradGradGradGradGradGradGradGradGradGradGradGrad
 Berny optimization.
 Using GEDIIS/GDIIS optimizer.
 FormGI is forming the generalized inverse of G from B-inverse, IUseBI=4.
 Internal  Forces:  Max     0.006854853 RMS     0.001779710
 Search for a local minimum.
 Step number   4 out of a maximum of   34
 All quantities printed in internal units (Hartrees-Bohrs-Radians)
 RMS Force = .70607D-04 SwitMx=.10000D-02 MixMth= 2
 Mixed Optimization -- En-DIIS/RFO-DIIS
 Swapping is turned off.
 Update second derivatives using D2CorX and points    1    2    3    4
 DE= -4.27D-05 DEPred=-4.26D-05 R= 1.00D+00
 TightC=F SS=  1.41D+00  RLast= 4.08D-02 DXNew= 2.5227D-01 1.2230D-01
 Trust test= 1.00D+00 RLast= 4.08D-02 DXMaxT set to 1.50D-01
 ITU=  1 -1  1  0
     Eigenvalues ---    0.01522   0.02834   0.02849   0.04709   0.15903
     Eigenvalues ---    0.15926   0.16042   0.16079   0.19792   0.22024
     Eigenvalues ---    0.32975   0.33584   0.34864   0.35200   0.35354
     Eigenvalues ---    0.61487   0.821371000.000001000.000001000.00000
     Eigenvalues --- 1000.000001000.000001000.000001000.00000
 En-DIIS/RFO-DIIS IScMMF=        0 using points:     4    3    2
 RFO step:  Lambda=-2.58979898D-06.
 NNeg= 0 NP= 3 Switch=  2.50D-03 Rises=F DC= -3.26D-05 SmlDif=  1.00D-05
 RMS Error=  0.1328417199D-03 NUsed= 3 EDIIS=F
 DidBck=F Rises=F RFO-DIIS coefs:    1.15058   -0.04439   -0.10619
 Iteration  1 RMS(Cart)=  0.00047719 RMS(Int)=  0.00000306
 Iteration  2 RMS(Cart)=  0.00000019 RMS(Int)=  0.00000306
 Iteration  1 RMS(Cart)=  0.00000057 RMS(Int)=  0.00000047
 ITry= 1 IFail=0 DXMaxC= 1.02D-03 DCOld= 1.00D+10 DXMaxT= 1.50D-01 DXLimC= 3.00D+00 Rises=F
 Variable       Old X    -DE/DX   Delta X   Delta X   Delta X     New X
                                 (Linear)    (Quad)   (Total)
    R1        2.52764   0.00008   0.00022  -0.00013   0.00009   2.52773
    R2        2.04987   0.00003   0.00002   0.00005   0.00007   2.04994
    R3        2.05259   0.00001   0.00001   0.00003   0.00004   2.05263
    R4        2.79839   0.00020   0.00035   0.00032   0.00066   2.79906
    R5        2.05818  -0.00001  -0.00001  -0.00004  -0.00005   2.05813
    R6        2.33421   0.00018  -0.00007   0.00023   0.00016   2.33437
    R7        2.08315   0.00007   0.00008   0.00013   0.00021   2.08337
    A1        2.12161   0.00003   0.00009   0.00008   0.00017   2.12179
    A2        2.11726  -0.00001  -0.00002  -0.00004  -0.00006   2.11720
    A3        2.04429  -0.00002  -0.00007  -0.00004  -0.00011   2.04417
    A4        2.14629  -0.00003  -0.00018  -0.00051  -0.00069   2.14560
    A5        2.11037   0.00037   0.00013   0.00009   0.00022   2.11059
    A6        2.01821  -0.00003   0.00011   0.00031   0.00042   2.01864
    A7        2.17623   0.00005  -0.00007  -0.00013  -0.00021   2.17602
    A8        2.01918   0.00006   0.00002  -0.00022  -0.00021   2.01898
    A9        2.08654   0.00015   0.00008   0.00034   0.00042   2.08695
    D1        3.06169   0.00136   0.00030  -0.00072  -0.00042   3.06128
    D2        0.06437  -0.00137  -0.00017   0.00013  -0.00003   0.06434
    D3       -0.08707   0.00137   0.00033  -0.00050  -0.00018  -0.08725
    D4       -3.08439  -0.00137  -0.00014   0.00035   0.00021  -3.08419
    D5        1.04721  -0.00685   0.00000   0.00000   0.00000   1.04721
    D6       -2.14826  -0.00132   0.00021  -0.00009   0.00013  -2.14813
    D7       -2.23162  -0.00422   0.00045  -0.00083  -0.00038  -2.23200
    D8        0.85610   0.00131   0.00066  -0.00091  -0.00025   0.85585
         Item               Value     Threshold  Converged?
 Maximum Force            0.000203     0.000450     YES
 RMS     Force            0.000071     0.000300     YES
 Maximum Displacement     0.001018     0.001800     YES
 RMS     Displacement     0.000477     0.001200     YES
 Predicted change in Energy=-1.783305D-07
 Optimization completed.
    -- Stationary point found.
                           ----------------------------
                           !   Optimized Parameters   !
                           ! (Angstroms and Degrees)  !
 --------------------------                            --------------------------
 ! Name  Definition              Value          Derivative Info.                !
 --------------------------------------------------------------------------------
 ! R1    R(1,2)                  1.3376         -DE/DX =    0.0001              !
 ! R2    R(1,6)                  1.0847         -DE/DX =    0.0                 !
 ! R3    R(1,7)                  1.0862         -DE/DX =    0.0                 !
 ! R4    R(2,3)                  1.4808         -DE/DX =    0.0002              !
 ! R5    R(2,8)                  1.0891         -DE/DX =    0.0                 !
 ! R6    R(3,4)                  1.2352         -DE/DX =    0.0002              !
 ! R7    R(3,5)                  1.1024         -DE/DX =    0.0001              !
 ! A1    A(2,1,6)              121.5595         -DE/DX =    0.0                 !
 ! A2    A(2,1,7)              121.3102         -DE/DX =    0.0                 !
 ! A3    A(6,1,7)              117.129          -DE/DX =    0.0                 !
 ! A4    A(1,2,3)              122.9734         -DE/DX =    0.0                 !
 ! A5    A(1,2,8)              120.9154         -DE/DX =    0.0004              !
 ! A6    A(3,2,8)              115.635          -DE/DX =    0.0                 !
 ! A7    A(2,3,4)              124.6888         -DE/DX =    0.0001              !
 ! A8    A(2,3,5)              115.6906         -DE/DX =    0.0001              !
 ! A9    A(4,3,5)              119.5497         -DE/DX =    0.0001              !
 ! D1    D(6,1,2,3)            175.4221         -DE/DX =    0.0014              !
 ! D2    D(6,1,2,8)              3.6881         -DE/DX =   -0.0014              !
 ! D3    D(7,1,2,3)             -4.9887         -DE/DX =    0.0014              !
 ! D4    D(7,1,2,8)           -176.7228         -DE/DX =   -0.0014              !
 ! D5    D(1,2,3,4)             60.0008         -DE/DX =   -0.0069              !
 ! D6    D(1,2,3,5)           -123.086          -DE/DX =   -0.0013              !
 ! D7    D(8,2,3,4)           -127.8624         -DE/DX =   -0.0042              !
 ! D8    D(8,2,3,5)             49.0508         -DE/DX =    0.0013              !
 --------------------------------------------------------------------------------
 Lowest energy point so far.  Saving SCF results.
 GradGradGradGradGradGradGradGradGradGradGradGradGradGradGradGradGradGrad

 Largest change from initial coordinates is atom    5       0.015 Angstoms.
 Leave Link  103 at Wed May 12 11:58:34 2021, MaxMem=  2147483648 cpu:         0.0
 (Enter /opt/cluster/programs/g09_d.01/g09/l202.exe)
                          Input orientation:                          
 ---------------------------------------------------------------------
 Center     Atomic      Atomic             Coordinates (Angstroms)
 Number     Number       Type             X           Y           Z
 ---------------------------------------------------------------------
      1          6           0        1.564438    0.416738    0.080886
      2          6           0        0.650708   -0.527110   -0.170800
      3          6           0       -0.773114   -0.393372    0.213583
      4          8           0       -1.526501    0.502615   -0.180577
      5          1           0       -1.171055   -1.193536    0.859008
      6          1           0        2.614534    0.264885   -0.144746
      7          1           0        1.284206    1.372243    0.514798
      8          1           0        0.945052   -1.502189   -0.556558
 ---------------------------------------------------------------------
                    Distance matrix (angstroms):
                    1          2          3          4          5
     1  C    0.000000
     2  C    1.337571   0.000000
     3  C    2.477506   1.480846   0.000000
     4  O    3.103166   2.408457   1.235211   0.000000
     5  H    3.268237   2.196235   1.102358   2.020893   0.000000
     6  H    1.084745   2.117676   3.469563   4.148008   4.179138
     7  H    1.086186   2.116343   2.727764   3.023222   3.567913
     8  H    2.114770   1.089140   2.185106   3.204555   2.564567
                    6          7          8
     6  H    0.000000
     7  H    1.852300   0.000000
     8  H    2.465625   3.086290   0.000000
 Stoichiometry    C3H4O
 Framework group  C1[X(C3H4O)]
 Deg. of freedom    18
 Full point group                 C1      NOp   1
 RotChk:  IX=0 Diff= 3.77D-16
 Largest Abelian subgroup         C1      NOp   1
 Largest concise Abelian subgroup C1      NOp   1
                         Standard orientation:                         
 ---------------------------------------------------------------------
 Center     Atomic      Atomic             Coordinates (Angstroms)
 Number     Number       Type             X           Y           Z
 ---------------------------------------------------------------------
      1          6           0       -1.560487   -0.419722    0.080423
      2          6           0       -0.647095    0.524502   -0.171080
      3          6           0        0.776355    0.392101    0.215139
      4          8           0        1.530821   -0.503754   -0.177251
      5          1           0        1.172979    1.193158    0.860267
      6          1           0       -2.610415   -0.268800   -0.146614
      7          1           0       -1.280129   -1.374618    0.515594
      8          1           0       -0.941637    1.499007   -0.558133
 ---------------------------------------------------------------------
 Rotational constants (GHZ):     25.6394008      5.4683494      4.7438711
 Leave Link  202 at Wed May 12 11:58:34 2021, MaxMem=  2147483648 cpu:         0.0
 (Enter /opt/cluster/programs/g09_d.01/g09/l601.exe)
 Copying SCF densities to generalized density rwf, IOpCl= 0 IROHF=0.

 **********************************************************************

            Population analysis using the SCF density.

 **********************************************************************

 Orbital symmetries:
       Occupied  (A) (A) (A) (A) (A) (A) (A) (A) (A) (A) (A) (A)
                 (A) (A) (A)
       Virtual   (A) (A) (A) (A) (A) (A) (A) (A) (A) (A) (A) (A)
                 (A) (A) (A) (A) (A) (A) (A) (A) (A) (A) (A) (A)
                 (A) (A) (A) (A) (A) (A) (A) (A) (A) (A) (A) (A)
                 (A) (A) (A) (A) (A) (A) (A) (A) (A)
 The electronic state is 1-A.
 Alpha  occ. eigenvalues --  -19.29271 -10.40934 -10.33116 -10.32825  -1.17513
 Alpha  occ. eigenvalues --   -0.91138  -0.76858  -0.65767  -0.61129  -0.55129
 Alpha  occ. eigenvalues --   -0.53892  -0.48759  -0.47302  -0.37853  -0.35305
 Alpha virt. eigenvalues --    0.00446   0.05737   0.07676   0.08445   0.09716
 Alpha virt. eigenvalues --    0.11231   0.12488   0.13486   0.14709   0.16446
 Alpha virt. eigenvalues --    0.17347   0.17704   0.19741   0.22455   0.26906
 Alpha virt. eigenvalues --    0.28353   0.29766   0.31450   0.32797   0.34681
 Alpha virt. eigenvalues --    0.37306   0.38178   0.44173   0.45905   0.51017
 Alpha virt. eigenvalues --    0.70208   0.72334   0.76248   0.77966   0.80801
 Alpha virt. eigenvalues --    0.84592   0.89523   0.92870   1.01794   1.04855
 Alpha virt. eigenvalues --    1.10928   1.13056   1.13995   1.23393   1.27352
 Alpha virt. eigenvalues --    1.31734   1.33169   1.38376   1.45632   1.89245
          Condensed to atoms (all electrons):
               1          2          3          4          5          6
     1  C    5.292118   0.316879  -0.012726   0.025694   0.020574   0.373956
     2  C    0.316879   5.548148   0.232527  -0.162251  -0.106713  -0.029793
     3  C   -0.012726   0.232527   5.074548   0.308117   0.343527   0.006817
     4  O    0.025694  -0.162251   0.308117   8.291256  -0.067117   0.000026
     5  H    0.020574  -0.106713   0.343527  -0.067117   0.627148  -0.000125
     6  H    0.373956  -0.029793   0.006817   0.000026  -0.000125   0.472109
     7  H    0.398720  -0.060293   0.004776   0.000949   0.000145  -0.022425
     8  H    0.030779   0.313952  -0.031090   0.004892   0.001772  -0.004085
               7          8
     1  C    0.398720   0.030779
     2  C   -0.060293   0.313952
     3  C    0.004776  -0.031090
     4  O    0.000949   0.004892
     5  H    0.000145   0.001772
     6  H   -0.022425  -0.004085
     7  H    0.457306   0.002550
     8  H    0.002550   0.457299
 Mulliken charges:
               1
     1  C   -0.445993
     2  C   -0.052455
     3  C    0.073503
     4  O   -0.401566
     5  H    0.180788
     6  H    0.203520
     7  H    0.218272
     8  H    0.223932
 Sum of Mulliken charges =   0.00000
 Mulliken charges with hydrogens summed into heavy atoms:
               1
     1  C   -0.024201
     2  C    0.171477
     3  C    0.254291
     4  O   -0.401566
 Electronic spatial extent (au):  <R**2>=            281.6202
 Charge=              0.0000 electrons
 Dipole moment (field-independent basis, Debye):
    X=             -2.5688    Y=              1.9010    Z=              0.8648  Tot=              3.3106
 Quadrupole moment (field-independent basis, Debye-Ang):
   XX=            -25.8682   YY=            -22.6731   ZZ=            -24.8724
   XY=              3.2890   XZ=              1.5391   YZ=             -1.3510
 Traceless Quadrupole moment (field-independent basis, Debye-Ang):
   XX=             -1.3970   YY=              1.7981   ZZ=             -0.4012
   XY=              3.2890   XZ=              1.5391   YZ=             -1.3510
 Octapole moment (field-independent basis, Debye-Ang**2):
  XXX=            -10.1540  YYY=              0.2350  ZZZ=              0.1008  XYY=             -0.3353
  XXY=              2.9191  XXZ=             -0.0243  XZZ=              3.6137  YZZ=              0.0934
  YYZ=              0.5416  XYZ=              1.4348
 Hexadecapole moment (field-independent basis, Debye-Ang**3):
 XXXX=           -254.8048 YYYY=            -71.1568 ZZZZ=            -36.7524 XXXY=              6.8311
 XXXZ=              4.3032 YYYX=             -0.3766 YYYZ=             -3.1723 ZZZX=              0.1065
 ZZZY=             -0.6614 XXYY=            -55.2495 XXZZ=            -50.7325 YYZZ=            -17.9489
 XXYZ=             -1.6443 YYXZ=              1.1086 ZZXY=              0.1111
 N-N= 1.031757061382D+02 E-N=-6.537906861102D+02  KE= 1.906797875857D+02
 No NMR shielding tensors so no spin-rotation constants.
 Leave Link  601 at Wed May 12 11:58:34 2021, MaxMem=  2147483648 cpu:         0.6
 (Enter /opt/cluster/programs/g09_d.01/g09/l9999.exe)
 1\1\GINC-NODE20\FOpt\RwB97XD\6-31+G\C3H4O1\BOITTIER\12-May-2021\0\\#p 
 wB97XD/6-31+G Opt=ModRedun\\L.pdb\\0,1\C,1.5644375691,0.4167375191,0.0
 808857869\C,0.6507078961,-0.5271101378,-0.1708004751\C,-0.7731144427,-
 0.3933721012,0.2135826115\O,-1.5265008018,0.5026150075,-0.1805774071\H
 ,-1.1710547442,-1.1935357718,0.8590078237\H,2.6145344358,0.2648849018,
 -0.1447458838\H,1.2842058745,1.3722431556,0.5147978936\H,0.9450522131,
 -1.5021885733,-0.5565583497\\Version=ES64L-G09RevD.01\State=1-A\HF=-19
 1.786372\RMSD=5.770e-09\RMSF=3.218e-03\Dipole=1.0097112,-0.7482729,0.3
 421868\Quadrupole=-1.0325474,1.335487,-0.3029396,2.4445784,-1.146846,1
 .006533\PG=C01 [X(C3H4O1)]\\@



 IN THIS SHORT LIFE

 THAT ONLY LASTS AN HOUR

 HOW MUCH, HOW LITTLE, IS WITHIN OUR POWER....


 EMILY DICKINSON BOLTS OF MELODY NO. 521
 Job cpu time:       0 days  0 hours  1 minutes 12.2 seconds.
 File lengths (MBytes):  RWF=      5 Int=      0 D2E=      0 Chk=      2 Scr=      1
 Normal termination of Gaussian 09 at Wed May 12 11:58:34 2021.
