L.pdb                                                                   
FOpt      RwB97XD                                                     6-31+G              
Number of atoms                            I                8
Info1-9                                    I   N=           9
          19          19           0           0           0         110
           2          18        -802
Charge                                     I                0
Multiplicity                               I                1
Number of electrons                        I               30
Number of alpha electrons                  I               15
Number of beta electrons                   I               15
Number of basis functions                  I               60
Number of independent functions            I               60
Number of point charges in /Mol/           I                0
Number of translation vectors              I                0
Atomic numbers                             I   N=           8
           6           6           6           8           1           1
           1           1
Nuclear charges                            R   N=           8
  6.00000000E+00  6.00000000E+00  6.00000000E+00  8.00000000E+00  1.00000000E+00
  1.00000000E+00  1.00000000E+00  1.00000000E+00
Current cartesian coordinates              R   N=          24
 -2.94889257E+00 -7.93159702E-01  1.51977112E-01 -1.22283308E+00  9.91165067E-01
 -3.23294002E-01  1.46709845E+00  7.40964315E-01  4.06554267E-01  2.89283159E+00
 -9.51957954E-01 -3.34955828E-01  2.21660837E+00  2.25474162E+00  1.62566990E+00
 -4.93296906E+00 -5.07958414E-01 -2.77061111E-01 -2.41909239E+00 -2.59765120E+00
  9.74331330E-01 -1.77943644E+00  2.83271355E+00 -1.05471774E+00
Force Field                                I                0
Int Atom Types                             I   N=           8
           0           0           0           0           0           0
           0           0
MM charges                                 R   N=           8
  0.00000000E+00  0.00000000E+00  0.00000000E+00  0.00000000E+00  0.00000000E+00
  0.00000000E+00  0.00000000E+00  0.00000000E+00
Integer atomic weights                     I   N=           8
          12          12          12          16           1           1
           1           1
Real atomic weights                        R   N=           8
  1.20000000E+01  1.20000000E+01  1.20000000E+01  1.59949146E+01  1.00782504E+00
  1.00782504E+00  1.00782504E+00  1.00782504E+00
Atom fragment info                         I   N=           8
           0           0           0           0           0           0
           0           0
Atom residue num                           I   N=           8
           0           0           0           0           0           0
           0           0
Nuclear spins                              I   N=           8
           0           0           0           0           1           1
           1           1
Nuclear ZEff                               R   N=           8
 -3.60000000E+00 -3.60000000E+00 -3.60000000E+00 -5.60000000E+00 -1.00000000E+00
 -1.00000000E+00 -1.00000000E+00 -1.00000000E+00
Nuclear ZNuc                               R   N=           8
  6.00000000E+00  6.00000000E+00  6.00000000E+00  8.00000000E+00  1.00000000E+00
  1.00000000E+00  1.00000000E+00  1.00000000E+00
Nuclear QMom                               R   N=           8
  0.00000000E+00  0.00000000E+00  0.00000000E+00  0.00000000E+00  0.00000000E+00
  0.00000000E+00  0.00000000E+00  0.00000000E+00
Nuclear GFac                               R   N=           8
  0.00000000E+00  0.00000000E+00  0.00000000E+00  0.00000000E+00  2.79284600E+00
  2.79284600E+00  2.79284600E+00  2.79284600E+00
MicOpt                                     I   N=           8
          -1          -1          -1          -1          -1          -1
          -1          -1
Number of contracted shells                I               24
Number of primitive shells                 I               60
Pure/Cartesian d shells                    I                1
Pure/Cartesian f shells                    I                0
Highest angular momentum                   I                1
Largest degree of contraction              I                6
Shell types                                I   N=          24
           0          -1          -1          -1           0          -1
          -1          -1           0          -1          -1          -1
           0          -1          -1          -1           0           0
           0           0           0           0           0           0
Number of primitives per shell             I   N=          24
           6           3           1           1           6           3
           1           1           6           3           1           1
           6           3           1           1           3           1
           3           1           3           1           3           1
Shell to atom map                          I   N=          24
           1           1           1           1           2           2
           2           2           3           3           3           3
           4           4           4           4           5           5
           6           6           7           7           8           8
Primitive exponents                        R   N=          60
  3.04752488E+03  4.57369518E+02  1.03948685E+02  2.92101553E+01  9.28666296E+00
  3.16392696E+00  7.86827235E+00  1.88128854E+00  5.44249258E-01  1.68714478E-01
  4.38000000E-02  3.04752488E+03  4.57369518E+02  1.03948685E+02  2.92101553E+01
  9.28666296E+00  3.16392696E+00  7.86827235E+00  1.88128854E+00  5.44249258E-01
  1.68714478E-01  4.38000000E-02  3.04752488E+03  4.57369518E+02  1.03948685E+02
  2.92101553E+01  9.28666296E+00  3.16392696E+00  7.86827235E+00  1.88128854E+00
  5.44249258E-01  1.68714478E-01  4.38000000E-02  5.48467166E+03  8.25234946E+02
  1.88046958E+02  5.29645000E+01  1.68975704E+01  5.79963534E+00  1.55396162E+01
  3.59993359E+00  1.01376175E+00  2.70005823E-01  8.45000000E-02  1.87311370E+01
  2.82539436E+00  6.40121692E-01  1.61277759E-01  1.87311370E+01  2.82539436E+00
  6.40121692E-01  1.61277759E-01  1.87311370E+01  2.82539436E+00  6.40121692E-01
  1.61277759E-01  1.87311370E+01  2.82539436E+00  6.40121692E-01  1.61277759E-01
Contraction coefficients                   R   N=          60
  1.83473713E-03  1.40373228E-02  6.88426223E-02  2.32184443E-01  4.67941348E-01
  3.62311985E-01 -1.19332420E-01 -1.60854152E-01  1.14345644E+00  1.00000000E+00
  1.00000000E+00  1.83473713E-03  1.40373228E-02  6.88426223E-02  2.32184443E-01
  4.67941348E-01  3.62311985E-01 -1.19332420E-01 -1.60854152E-01  1.14345644E+00
  1.00000000E+00  1.00000000E+00  1.83473713E-03  1.40373228E-02  6.88426223E-02
  2.32184443E-01  4.67941348E-01  3.62311985E-01 -1.19332420E-01 -1.60854152E-01
  1.14345644E+00  1.00000000E+00  1.00000000E+00  1.83107443E-03  1.39501722E-02
  6.84450781E-02  2.32714336E-01  4.70192898E-01  3.58520853E-01 -1.10777550E-01
 -1.48026263E-01  1.13076702E+00  1.00000000E+00  1.00000000E+00  3.34946043E-02
  2.34726953E-01  8.13757326E-01  1.00000000E+00  3.34946043E-02  2.34726953E-01
  8.13757326E-01  1.00000000E+00  3.34946043E-02  2.34726953E-01  8.13757326E-01
  1.00000000E+00  3.34946043E-02  2.34726953E-01  8.13757326E-01  1.00000000E+00
P(S=P) Contraction coefficients            R   N=          60
  0.00000000E+00  0.00000000E+00  0.00000000E+00  0.00000000E+00  0.00000000E+00
  0.00000000E+00  6.89990666E-02  3.16423961E-01  7.44308291E-01  1.00000000E+00
  1.00000000E+00  0.00000000E+00  0.00000000E+00  0.00000000E+00  0.00000000E+00
  0.00000000E+00  0.00000000E+00  6.89990666E-02  3.16423961E-01  7.44308291E-01
  1.00000000E+00  1.00000000E+00  0.00000000E+00  0.00000000E+00  0.00000000E+00
  0.00000000E+00  0.00000000E+00  0.00000000E+00  6.89990666E-02  3.16423961E-01
  7.44308291E-01  1.00000000E+00  1.00000000E+00  0.00000000E+00  0.00000000E+00
  0.00000000E+00  0.00000000E+00  0.00000000E+00  0.00000000E+00  7.08742682E-02
  3.39752839E-01  7.27158577E-01  1.00000000E+00  1.00000000E+00  0.00000000E+00
  0.00000000E+00  0.00000000E+00  0.00000000E+00  0.00000000E+00  0.00000000E+00
  0.00000000E+00  0.00000000E+00  0.00000000E+00  0.00000000E+00  0.00000000E+00
  0.00000000E+00  0.00000000E+00  0.00000000E+00  0.00000000E+00  0.00000000E+00
Coordinates of each shell                  R   N=          72
 -2.94889257E+00 -7.93159702E-01  1.51977112E-01 -2.94889257E+00 -7.93159702E-01
  1.51977112E-01 -2.94889257E+00 -7.93159702E-01  1.51977112E-01 -2.94889257E+00
 -7.93159702E-01  1.51977112E-01 -1.22283308E+00  9.91165067E-01 -3.23294002E-01
 -1.22283308E+00  9.91165067E-01 -3.23294002E-01 -1.22283308E+00  9.91165067E-01
 -3.23294002E-01 -1.22283308E+00  9.91165067E-01 -3.23294002E-01  1.46709845E+00
  7.40964315E-01  4.06554267E-01  1.46709845E+00  7.40964315E-01  4.06554267E-01
  1.46709845E+00  7.40964315E-01  4.06554267E-01  1.46709845E+00  7.40964315E-01
  4.06554267E-01  2.89283159E+00 -9.51957954E-01 -3.34955828E-01  2.89283159E+00
 -9.51957954E-01 -3.34955828E-01  2.89283159E+00 -9.51957954E-01 -3.34955828E-01
  2.89283159E+00 -9.51957954E-01 -3.34955828E-01  2.21660837E+00  2.25474162E+00
  1.62566990E+00  2.21660837E+00  2.25474162E+00  1.62566990E+00 -4.93296906E+00
 -5.07958414E-01 -2.77061111E-01 -4.93296906E+00 -5.07958414E-01 -2.77061111E-01
 -2.41909239E+00 -2.59765120E+00  9.74331330E-01 -2.41909239E+00 -2.59765120E+00
  9.74331330E-01 -1.77943644E+00  2.83271355E+00 -1.05471774E+00 -1.77943644E+00
  2.83271355E+00 -1.05471774E+00
Constraint Structure                       R   N=          24
 -2.96758815E+00 -7.93326211E-01  1.50364941E-01 -1.22397789E+00  9.86612854E-01
 -3.27442863E-01  1.46821293E+00  7.43057934E-01  4.02889045E-01  2.91394447E+00
 -9.54902279E-01 -3.27478767E-01  2.21489255E+00  2.28191877E+00  1.60141005E+00
 -4.95367526E+00 -4.95519000E-01 -2.69250636E-01 -2.45068344E+00 -2.60783169E+00
  9.61488310E-01 -1.78197093E+00  2.84258270E+00 -1.02868433E+00
Num ILSW                                   I              100
ILSW                                       I   N=         100
           0           1           0           0           2           0
           0           0           0           0        4639          -1
           0           0           0           0           2           0
           0           0           0           0           1           0
           1           0           0           0           0           0
           0           0      100000           0          -1           0
           0           0           0           0           0           0
           0           0           0           1           0           0
           0           0           1           0           0           0
           0           0         121          41           0           0
           0           0          58           0           0           0
           0           0           0           8           0           0
           0           0           0           0           0           0
           0           0           0           0           0           0
           0           0           0           0           0           0
           0           0           0           0           0           0
           0           0           0           0
Num RLSW                                   I               41
RLSW                                       R   N=          41
  1.00000000E+00  1.00000000E+00  1.00000000E+00  1.00000000E+00  1.00000000E+00
  0.00000000E+00  2.00000000E-01  2.22036000E-01  0.00000000E+00  7.77964000E-01
  0.00000000E+00  2.00000000E-01  0.00000000E+00  0.00000000E+00  1.00000000E+00
  0.00000000E+00  0.00000000E+00  1.00000000E+00  0.00000000E+00  0.00000000E+00
  0.00000000E+00  0.00000000E+00  1.00000000E+00  0.00000000E+00  0.00000000E+00
  0.00000000E+00  0.00000000E+00  1.00000000E+00  0.00000000E+00  0.00000000E+00
  0.00000000E+00  0.00000000E+00  1.00000000E+00  0.00000000E+00  0.00000000E+00
  0.00000000E+00  0.00000000E+00  0.00000000E+00  1.00000000E+00  1.00000000E+00
  0.00000000E+00
MxBond                                     I                3
NBond                                      I   N=           8
           3           3           3           1           1           1
           1           1
IBond                                      I   N=          24
           2           6           7           1           3           8
           2           4           5           3           0           0
           3           0           0           1           0           0
           1           0           0           2           0           0
RBond                                      R   N=          24
  2.00000000E+00  1.00000000E+00  1.00000000E+00  2.00000000E+00  1.00000000E+00
  1.00000000E+00  1.00000000E+00  2.00000000E+00  1.00000000E+00  2.00000000E+00
  0.00000000E+00  0.00000000E+00  1.00000000E+00  0.00000000E+00  0.00000000E+00
  1.00000000E+00  0.00000000E+00  0.00000000E+00  1.00000000E+00  0.00000000E+00
  0.00000000E+00  1.00000000E+00  0.00000000E+00  0.00000000E+00
Virial Ratio                               R      2.005803364862918E+00
SCF Energy                                 R     -1.917863719650418E+02
Total Energy                               R     -1.917863719650418E+02
RMS Force                                  R      3.218452462923535E-03
RMS Density                                R      5.770176658387108E-09
External E-field                           R   N=          35
  0.00000000E+00  0.00000000E+00  0.00000000E+00  0.00000000E+00  0.00000000E+00
  0.00000000E+00  0.00000000E+00  0.00000000E+00  0.00000000E+00  0.00000000E+00
  0.00000000E+00  0.00000000E+00  0.00000000E+00  0.00000000E+00  0.00000000E+00
  0.00000000E+00  0.00000000E+00  0.00000000E+00  0.00000000E+00  0.00000000E+00
  0.00000000E+00  0.00000000E+00  0.00000000E+00  0.00000000E+00  0.00000000E+00
  0.00000000E+00  0.00000000E+00  0.00000000E+00  0.00000000E+00  0.00000000E+00
  0.00000000E+00  0.00000000E+00  0.00000000E+00  0.00000000E+00  0.00000000E+00
IOpCl                                      I                0
IROHF                                      I                0
Alpha Orbital Energies                     R   N=          60
 -1.92927071E+01 -1.04093356E+01 -1.03311571E+01 -1.03282506E+01 -1.17512666E+00
 -9.11381074E-01 -7.68575570E-01 -6.57672996E-01 -6.11287099E-01 -5.51289960E-01
 -5.38916867E-01 -4.87590877E-01 -4.73015435E-01 -3.78533307E-01 -3.53046653E-01
  4.46127588E-03  5.73689899E-02  7.67632537E-02  8.44453861E-02  9.71568092E-02
  1.12305603E-01  1.24881483E-01  1.34861790E-01  1.47086362E-01  1.64463425E-01
  1.73465770E-01  1.77041674E-01  1.97407216E-01  2.24547087E-01  2.69061925E-01
  2.83527152E-01  2.97657457E-01  3.14495471E-01  3.27974912E-01  3.46811245E-01
  3.73064007E-01  3.81776920E-01  4.41733463E-01  4.59052786E-01  5.10169242E-01
  7.02080163E-01  7.23341426E-01  7.62477724E-01  7.79662035E-01  8.08013288E-01
  8.45915251E-01  8.95228932E-01  9.28699443E-01  1.01794086E+00  1.04854832E+00
  1.10928334E+00  1.13055552E+00  1.13994687E+00  1.23392592E+00  1.27352057E+00
  1.31733844E+00  1.33168985E+00  1.38376341E+00  1.45631638E+00  1.89244871E+00
Alpha MO coefficients                      R   N=        3600
  2.98816510E-05  3.30277320E-04  1.46452477E-04  4.65602613E-06  3.07815683E-05
  1.46978416E-04 -5.77362570E-04  3.88774582E-05 -4.78054003E-04  9.78662213E-03
  1.72982653E-03  1.51008933E-03  3.30424398E-05  1.15201316E-05 -1.75286119E-04
 -2.40091516E-04 -1.67403722E-05 -8.91069899E-05  7.79648011E-05 -5.74984085E-05
  1.55359927E-03  8.39469736E-04  6.95778344E-05  4.46907404E-03  1.27076034E-03
 -1.07853545E-03  2.13737672E-04  1.42534956E-04  1.65607238E-04  7.58234188E-05
  3.81766860E-05  5.94008466E-03  2.42469578E-03 -4.80870415E-03 -2.27385591E-03
 -1.44432631E-02  1.17929942E-03  2.12993937E-03  2.49816695E-03  9.95217094E-01
  2.93549552E-02 -1.36342378E-03  1.51384289E-03  6.65693884E-04 -2.08304634E-02
  3.05352862E-03 -3.06368766E-03 -1.25359298E-03  9.59926512E-03 -7.01048554E-04
  3.95554076E-04 -1.17693647E-04 -1.35246391E-04  1.02079591E-03 -3.64629079E-05
 -5.81797839E-04  1.75250435E-04 -2.57820387E-04 -5.97485201E-05 -5.41563830E-04
 -1.34385832E-04 -5.37078515E-04 -1.48970975E-04 -4.64013810E-05 -5.19578515E-05
  1.59872039E-03  8.55214498E-04  4.17305057E-04  1.55794714E-04 -7.50858068E-03
 -1.59747915E-03 -1.47201657E-03 -2.31290267E-05  1.66372448E-03 -4.44774699E-04
 -5.29635640E-04 -7.37841302E-06 -1.66544656E-04  3.87579727E-03  3.38927687E-03
  2.23806938E-04  5.42723129E-04 -4.57043332E-03 -4.04054826E-03 -3.12931889E-04
  5.71846126E-04  9.95429121E-01  3.60733601E-02  7.72402701E-04 -1.05429645E-03
 -5.12829343E-04 -3.13123082E-02  1.52850322E-04  1.79152759E-03  1.50938934E-03
  9.87119955E-03 -4.81639851E-03 -6.05345057E-04 -1.96397913E-03 -1.28760979E-04
 -9.23013043E-05  4.16993524E-04 -4.00635088E-04 -1.40084608E-04  1.30891541E-03
 -4.80302078E-04 -1.27156260E-04 -2.99980146E-04  1.03098711E-02 -2.94381066E-03
  4.53170218E-03  2.24861677E-03 -5.34725168E-04  3.13189490E-03 -1.54920544E-05
  7.38592227E-04 -1.73297307E-04 -2.81734048E-04 -1.79379912E-04  2.06752632E-04
  1.46799473E-01  3.86020821E-03 -6.23299484E-04 -6.45925108E-04  1.75158019E-04
  4.96299575E-03  3.94558607E-03  2.10803956E-03 -1.23490862E-04 -3.71580976E-02
 -6.77633148E-03 -5.28036015E-03  1.09795946E-03  9.84465811E-01  3.57092415E-02
  1.49350953E-04 -1.66807300E-04  3.10165956E-04 -3.31596912E-02 -1.94852716E-03
  2.84027414E-03 -2.08645802E-03  6.79104795E-02  2.13529449E-03 -1.21191448E-02
  6.18296439E-03 -1.58507215E-03 -7.42600430E-04  5.89305368E-04 -1.00325575E-04
  2.47039593E-04  6.13282823E-03 -5.17858416E-03  3.24550395E-04 -1.22095382E-03
 -2.93390664E-02  7.20692288E-03  1.42224955E-03  7.02646155E-04 -3.43698276E-06
 -2.09532966E-04  1.26996390E-04 -1.00170639E-04  3.59083780E-05  1.74575336E-04
 -8.42009406E-05  4.89271271E-04  4.90723306E-06  1.97829329E-03 -7.35477081E-06
  5.28280024E-04  1.07629057E-03 -1.50499521E-04  5.27161993E-04 -2.33057029E-04
  1.56218690E-03 -3.98623795E-04 -1.67482455E-04 -6.90416227E-04  3.26772287E-03
  9.84440003E-01  3.50874925E-02  4.43628248E-04  4.77087750E-04 -7.42264274E-05
 -3.17181196E-02 -3.30235526E-03 -3.26466525E-03  7.68008139E-04  3.29444435E-02
  6.24530189E-03  7.53831380E-03 -2.03897564E-03 -1.47057050E-01 -6.59917159E-03
  7.69035151E-04  9.27406758E-04 -3.07523145E-04  1.34264959E-02 -4.35097616E-03
 -4.53229917E-03  1.44242338E-03 -4.75367758E-03  1.41746599E-02  3.19914678E-03
  1.04158186E-03  2.72210133E-04 -3.98924121E-04  1.19038368E-04 -9.10774993E-06
 -2.90035886E-05  1.15388206E-03  6.94933351E-05 -1.79370720E-04 -5.80013357E-04
 -2.79023722E-02  6.66644454E-03  4.67171282E-04  1.93894995E-03  1.55414920E-05
  2.71956395E-04 -4.94899995E-05  3.76066551E-05 -1.03189127E-05 -1.06471766E-03
  5.12446778E-04 -3.04150681E-04 -3.49365797E-06  1.25533119E-03  1.22401179E-04
  9.22453564E-05  2.57056373E-04 -2.30427789E-05  4.10018495E-04 -6.88137198E-04
  3.99510483E-03 -5.87425219E-04  3.76927134E-03 -2.77375095E-05 -1.37552822E-04
 -5.68337900E-03  8.81870064E-03  6.28422947E-03  2.93797514E-03 -6.77440564E-04
 -1.69100989E-04  1.78197114E-03 -1.21365399E-03  3.03469054E-03  8.27982427E-03
  4.03729198E-03  2.72246715E-04 -1.66403911E-04 -1.90600012E-02  3.70956427E-02
  2.59008007E-02 -9.14186095E-03  4.67127425E-03  8.25702819E-03 -5.56347701E-03
 -1.41437892E-02 -7.69461855E-03 -4.11859416E-02 -1.53073384E-02  7.86855770E-03
 -1.74675219E-03 -1.16148626E-01  2.37323683E-01  1.09387978E-01 -1.37115724E-01
 -6.17941006E-02  5.13435798E-02 -3.36469237E-02  4.90699961E-02  2.17669791E-02
  4.25976540E-02  6.79479997E-03 -8.93533622E-03 -5.69773515E-03 -1.92503546E-01
  4.25748261E-01 -1.11922770E-01  1.30748495E-01  5.72992643E-02  4.16783944E-01
 -4.50792749E-02  5.10741510E-02  2.30260519E-02 -2.41408652E-03 -7.11034716E-03
  5.13409577E-03  1.51298992E-03  2.85386681E-02 -1.77221838E-02  1.33916590E-03
  1.75514486E-03  1.86504177E-03  1.84933207E-03  5.30353264E-03  2.93714337E-03
 -1.38409015E-01  2.68441248E-01  7.60605780E-02  7.44969717E-02 -1.58625013E-02
  2.06634075E-01  9.71064427E-03  2.41490221E-03  7.42089481E-04  2.03074651E-02
  1.00418258E-02 -1.11199689E-03  3.16968150E-03 -1.64801292E-01  3.21062834E-01
 -3.29787785E-02 -6.18092135E-02  3.46072406E-02  2.25358465E-01 -3.10194364E-04
  1.72786881E-02  2.77507436E-03 -1.03979712E-01 -3.40330152E-02  1.18995998E-02
 -1.43798624E-02 -5.24668434E-02  1.02535532E-01 -1.28936335E-01  4.64937093E-02
 -8.26849795E-04  1.09953114E-01 -1.65651608E-02 -1.44511310E-02 -6.98239200E-03
  8.88682391E-02 -1.93911555E-02  3.99539552E-03 -3.66013493E-03  4.25331995E-02
 -9.61113325E-02 -8.46255295E-03 -1.51432475E-02 -1.04145436E-02 -1.18657845E-01
  4.98186908E-03 -8.88064151E-03 -5.01519039E-03 -1.78996079E-02  3.12774025E-03
 -7.44200941E-03 -3.99975459E-03  2.95921430E-02  1.13831440E-02  6.79002594E-02
  1.05463215E-02  6.89528738E-02  6.18362308E-03  8.45166186E-02  6.20258928E-03
 -1.29005048E-01  2.55472224E-01 -3.45733774E-02 -9.74084438E-03 -7.10729630E-03
  2.31637625E-01 -1.71601838E-02 -1.05051404E-02  1.58991644E-03 -1.24886071E-01
 -2.01282262E-02 -2.44162021E-02  5.59755904E-03  4.61016988E-02 -9.25662568E-02
 -2.04071556E-01 -1.08995188E-01 -1.39305236E-02 -9.21622326E-02 -4.46959605E-02
 -2.71821002E-02 -2.62460080E-03  4.94884395E-02 -5.58383022E-02 -2.32342595E-02
  5.66501286E-03  1.20400708E-01 -2.53068297E-01  1.15893374E-01 -1.32796610E-01
 -2.74667562E-02 -2.52048150E-01  1.47301031E-02 -3.84498506E-02 -1.20230258E-02
  7.84042321E-02 -1.65662627E-02 -5.02458521E-03 -1.44067530E-02 -6.15137497E-02
  1.43286498E-01  2.42415338E-02 -3.60879632E-02 -5.34928836E-03  1.75533993E-01
  8.36002520E-03 -1.10609956E-02 -4.69590250E-04  2.05969549E-02 -6.62781480E-03
  9.75342220E-03  6.07463341E-03 -1.23018629E-01 -3.73535662E-02  1.14129377E-01
  3.70186702E-02  9.94343126E-02  2.83102837E-02 -5.18663615E-02 -1.66361776E-02
 -6.75934670E-02  1.36769436E-01 -9.04912248E-02 -1.62253789E-01  6.54153976E-02
  1.47538518E-01 -3.38856193E-02 -4.75681910E-02  2.26731597E-02 -7.49445618E-02
 -2.08491364E-02 -1.69797532E-02  5.73505319E-03  9.46966295E-02 -1.93943153E-01
  6.56290526E-02 -8.32479841E-02  7.33638524E-02 -1.95021464E-01  1.65592297E-02
 -5.37580617E-02  2.95569818E-02  9.34003550E-02 -3.69273834E-03 -2.21900958E-02
  4.83959459E-03 -8.63868240E-02  1.87474326E-01  1.18778116E-01  1.10130637E-01
  1.47056687E-01  2.18336664E-01  4.26782616E-02  5.21259018E-02  5.89755895E-02
 -9.59813472E-03  6.94038662E-03  7.61639871E-03  8.63045172E-03  5.20682773E-02
 -1.21184082E-01  2.75866299E-03  1.02149391E-01  9.30594075E-02 -1.69546265E-01
  5.06058747E-03  3.62366107E-02  3.85438969E-02 -2.92399862E-02  1.15666547E-03
 -4.62225877E-03 -2.58857917E-03  1.80206407E-01  7.46160142E-02  9.11511992E-02
  4.05668695E-02  1.34230758E-01  6.71006133E-02 -1.48516044E-01 -5.99398943E-02
 -3.73574013E-03  8.51276230E-03 -1.87500720E-01  1.32947849E-01 -7.21737285E-02
  1.59392119E-02 -7.95198956E-02  6.11791887E-02 -3.30690766E-02  1.87282188E-02
 -1.96828418E-03  6.40413970E-03 -2.49705342E-03 -7.69034919E-03  9.00653700E-03
 -1.96341101E-01  2.17780197E-01 -9.01816515E-02  5.09934828E-02 -4.43335467E-02
  7.87462887E-02 -2.73339315E-02  1.01123321E-02  2.33674890E-04  9.58954690E-03
 -7.81092644E-04  1.09034030E-02 -2.76058465E-02  2.25793555E-01  1.71290959E-01
  1.11487669E-01 -3.81806664E-02  8.96137715E-02  8.37165601E-02  5.13601134E-02
 -2.33755871E-02  1.93942090E-02  5.47119119E-03  7.83584052E-03 -1.55101960E-02
  3.46959563E-02  1.67702149E-01  6.58249642E-02  4.25623528E-02  6.49546803E-02
  7.60892153E-02  4.10330305E-02  2.28649474E-02  2.30222232E-02 -6.32774053E-03
 -9.70011423E-04 -2.43366150E-03  1.23288901E-01  5.62938118E-02  1.16356956E-01
  5.51236126E-02 -9.71699211E-02 -4.33216699E-02  1.58355882E-01  9.01309212E-02
  3.56923088E-03 -2.56257161E-03  2.94593876E-01  2.36185645E-01 -3.11906084E-02
 -5.94881424E-02  9.62534552E-02  7.57922857E-02 -6.65766240E-03  2.72837418E-02
  2.45249530E-02  1.83641080E-02 -3.51581181E-03 -2.17113448E-02  4.53494596E-02
 -2.40284688E-01 -2.37425105E-01  1.02514075E-01  4.58163862E-02 -6.17683766E-02
 -7.87509887E-02  4.67931435E-02  4.90175141E-03  1.44951463E-03 -5.18337553E-03
  4.09265398E-03  6.22609917E-03 -1.32484117E-02  1.42408428E-01 -3.09703883E-02
  2.03770266E-01 -8.92027348E-03  6.90297754E-02 -2.29312037E-02  9.41675397E-02
 -3.94778481E-02  2.24033639E-02  5.77862592E-04  1.18329267E-02  6.90905463E-03
 -1.41355467E-02  6.04371104E-02  1.39972741E-02  1.83172659E-01 -3.77965074E-02
  3.73749441E-02 -2.70574797E-03  9.59399517E-02 -1.53906900E-02  9.49071162E-04
  8.65293313E-05  2.02077708E-04  7.48174891E-02  4.44143782E-02 -1.55587024E-01
 -1.01335287E-01 -9.24212804E-02 -5.77636638E-02 -8.74438655E-02 -5.99190223E-02
  7.29476605E-05 -1.37568159E-03  8.16636997E-02 -1.15032545E-01  9.66642177E-02
  1.16027853E-02  4.17263284E-02 -4.64993212E-02  4.31763016E-02  2.95834368E-02
  5.41350126E-03 -1.85474583E-03 -2.36296049E-04 -6.33494109E-03  9.64046391E-03
  6.34251058E-02  4.27278827E-02  7.29958907E-02  3.18729567E-02  3.10605070E-02
  2.03856644E-02  3.37916740E-02  1.30033059E-02  2.10752718E-02  1.37357895E-02
  7.78080470E-03  3.87607780E-02 -1.15423587E-01 -1.57933671E-01  2.47542009E-01
  1.64186336E-01 -1.10859073E-01 -3.22308212E-02  8.16662185E-02  6.93183295E-02
 -4.30405035E-02  7.28343769E-03 -7.12836339E-04  6.85577281E-03 -8.51771190E-02
  1.86426183E-01  3.19285953E-01 -3.35660808E-01 -9.01775172E-02  3.50131051E-01
  1.28507863E-01 -1.33116593E-01 -2.62382374E-02  1.01895614E-01  7.27145333E-03
 -1.09030167E-02 -5.04524021E-03  7.84095845E-02  4.87526907E-02 -7.14858575E-02
 -4.32851369E-02  9.85133414E-02  5.94394136E-02  5.90413126E-03  2.08381294E-03
 -5.11540416E-03  1.32957601E-02  2.49137042E-01 -1.95071687E-01  8.16065749E-02
  1.96750134E-02  1.12784282E-01 -9.89108433E-02  3.88740118E-02 -9.21211034E-02
  3.24532087E-03 -2.80171100E-02  1.56152902E-02 -1.32654525E-02  2.25355162E-02
 -9.11704969E-02  7.00871574E-02 -1.13224023E-01  7.32339417E-02 -2.11037213E-02
  4.05659812E-02 -5.02911216E-02  4.48842430E-02 -5.07915486E-02 -2.05887463E-02
 -8.49642156E-03  2.09921419E-02 -4.13663882E-02  2.30372414E-01  6.51483550E-02
 -1.40504948E-01 -6.34127706E-02  1.19463350E-01  4.29358029E-02 -6.85062021E-02
  5.98843580E-02 -8.27893781E-04  1.96442988E-02 -1.67685768E-02  1.48818954E-02
 -3.08287752E-02  8.98336643E-02  2.83271082E-01 -8.98201364E-02 -7.28369872E-02
  6.48269378E-02  1.50233295E-01 -6.70818281E-02 -3.63965957E-02  4.50551207E-03
  6.23824961E-03  7.21008605E-04 -2.24236413E-03 -1.13998441E-02 -1.93954275E-01
 -1.41568344E-01  1.89025043E-01  1.26276332E-01  1.12637114E-01  7.91245060E-02
  1.62599702E-02 -4.40285196E-02 -1.57761528E-02 -1.60747543E-01  1.13715211E-01
  1.37735981E-02  4.40100535E-02 -6.16363041E-02  5.88463516E-02  2.89086501E-01
  5.10926271E-02  2.89565852E-02 -5.09344357E-03 -4.57569155E-03  6.43025542E-03
 -2.13157764E-02  2.33515060E-01 -2.11221711E-02  1.56648355E-02 -1.48682393E-02
  1.47481693E-01 -2.16894791E-02 -2.43966557E-01  6.11591101E-02  1.05837356E-01
 -2.77348696E-02  9.91673268E-03 -1.44579360E-02  1.71936025E-02 -2.22888626E-01
  1.83826700E-01 -3.72027801E-02 -2.09511319E-02 -1.13985752E-01  1.15842558E-01
 -4.79963707E-02  5.78825037E-03 -3.41233424E-02  3.29980780E-02  1.26556258E-02
 -2.57381348E-02 -1.47765695E-01 -1.04262553E-01  3.76300449E-01 -5.57002584E-02
 -7.88057475E-02 -7.91035834E-02  2.28615969E-01  6.69819481E-04 -1.29650885E-02
  6.63071426E-03  7.42412377E-03 -4.93561758E-02 -3.26044720E-02 -4.69405928E-02
 -1.75602421E-02  1.15128827E-01  8.29661770E-02  1.73204141E-01  1.17205616E-01
  7.32463369E-05  8.97652424E-04 -5.85881197E-02  1.44491708E-01  3.54234331E-01
 -3.70289368E-02 -5.85138249E-02  7.91415195E-02  2.29509329E-01 -2.21514819E-01
 -4.40084883E-02 -1.63624246E-02  4.01156337E-02  8.43404654E-04 -7.47103314E-03
 -4.18192912E-02  1.35620514E-01  3.61605155E-01  3.24893945E-02 -4.25786177E-02
  5.70835800E-02  2.52400880E-01  1.91534791E-01 -5.69140169E-02 -4.65300670E-02
  6.39545331E-02  4.16239151E-03 -7.39580777E-04 -1.32445605E-02 -4.23072230E-02
 -6.20970431E-02 -5.00341158E-02 -1.26022097E-02  1.32421992E-02 -2.59682032E-02
  4.15675685E-02 -1.20765462E-02 -3.01621103E-03 -3.55939904E-02 -3.06294611E-03
  9.95523698E-03  8.17529560E-03  1.64260918E-01 -9.81669378E-02  2.98116468E-02
  1.46693516E-02  1.10058476E-01 -6.64280969E-02 -2.29314416E-02  6.29039192E-03
  1.75675641E-02 -3.35661396E-03 -7.82870639E-02 -9.17275138E-02  2.70865127E-03
 -3.21129703E-03 -3.19829648E-03 -7.04850545E-03 -1.92338145E-03  1.20642720E-04
  5.48435877E-03 -1.34418750E-02 -5.55962437E-02 -2.94316034E-02 -4.18837974E-02
  3.84486429E-03 -5.28425111E-02  8.72829522E-03 -3.89400901E-02 -2.60788607E-02
 -2.47060208E-02  3.80000110E-03  1.08023828E-03 -3.55852318E-02  7.22198394E-02
  2.24634745E-01 -5.76473820E-02  9.06106990E-03  2.53593134E-01  2.06573144E-01
 -4.54412002E-02  2.66421069E-02  1.22701307E-02  5.47962471E-03 -1.40385140E-02
 -1.55165884E-02 -8.48088997E-04  1.77729418E-02 -1.21068555E-01 -5.67791161E-02
 -7.45430146E-02 -6.34353331E-02  8.43015813E-02 -1.48179750E-02  2.15908406E-02
  1.78735583E-03  1.12327011E-02 -8.79190662E-03  7.64673793E-03 -5.13682363E-04
  1.95534788E-03  4.41210730E-01  2.24361847E-01  3.17222632E-01 -6.95285558E-03
  2.98421821E-01  1.47830597E-01  2.10666621E-01 -2.54276235E-02  5.15597163E-02