 Entering Gaussian System, Link 0=/opt/cluster/programs/g09_d.01/g09//g09
 Input=/home/unibas/boittier/RDKit_G2/N.pdb/OPT_wB97XD_6-31+G/OPT_N.pdb.com
 Output=/scratch/boittier/OPT_N.pdb/OPT_N.pdb.out
 Initial command:
 /opt/cluster/programs/g09_d.01/g09/l1.exe "/scratch/boittier/OPT_N.pdb/Gau-148942.inp" -scrdir="/scratch/boittier/OPT_N.pdb/"
 Entering Link 1 = /opt/cluster/programs/g09_d.01/g09/l1.exe PID=    148943.
  
 Copyright (c) 1988,1990,1992,1993,1995,1998,2003,2009,2013,
            Gaussian, Inc.  All Rights Reserved.
  
 This is part of the Gaussian(R) 09 program.  It is based on
 the Gaussian(R) 03 system (copyright 2003, Gaussian, Inc.),
 the Gaussian(R) 98 system (copyright 1998, Gaussian, Inc.),
 the Gaussian(R) 94 system (copyright 1995, Gaussian, Inc.),
 the Gaussian 92(TM) system (copyright 1992, Gaussian, Inc.),
 the Gaussian 90(TM) system (copyright 1990, Gaussian, Inc.),
 the Gaussian 88(TM) system (copyright 1988, Gaussian, Inc.),
 the Gaussian 86(TM) system (copyright 1986, Carnegie Mellon
 University), and the Gaussian 82(TM) system (copyright 1983,
 Carnegie Mellon University). Gaussian is a federally registered
 trademark of Gaussian, Inc.
  
 This software contains proprietary and confidential information,
 including trade secrets, belonging to Gaussian, Inc.
  
 This software is provided under written license and may be
 used, copied, transmitted, or stored only in accord with that
 written license.
  
 The following legend is applicable only to US Government
 contracts under FAR:
  
                    RESTRICTED RIGHTS LEGEND
  
 Use, reproduction and disclosure by the US Government is
 subject to restrictions as set forth in subparagraphs (a)
 and (c) of the Commercial Computer Software - Restricted
 Rights clause in FAR 52.227-19.
  
 Gaussian, Inc.
 340 Quinnipiac St., Bldg. 40, Wallingford CT 06492
  
  
 ---------------------------------------------------------------
 Warning -- This program may not be used in any manner that
 competes with the business of Gaussian, Inc. or will provide
 assistance to any competitor of Gaussian, Inc.  The licensee
 of this program is prohibited from giving any competitor of
 Gaussian, Inc. access to this program.  By using this program,
 the user acknowledges that Gaussian, Inc. is engaged in the
 business of creating and licensing software in the field of
 computational chemistry and represents and warrants to the
 licensee that it is not a competitor of Gaussian, Inc. and that
 it will not use this program in any manner prohibited above.
 ---------------------------------------------------------------
  

 Cite this work as:
 Gaussian 09, Revision D.01,
 M. J. Frisch, G. W. Trucks, H. B. Schlegel, G. E. Scuseria, 
 M. A. Robb, J. R. Cheeseman, G. Scalmani, V. Barone, B. Mennucci, 
 G. A. Petersson, H. Nakatsuji, M. Caricato, X. Li, H. P. Hratchian, 
 A. F. Izmaylov, J. Bloino, G. Zheng, J. L. Sonnenberg, M. Hada, 
 M. Ehara, K. Toyota, R. Fukuda, J. Hasegawa, M. Ishida, T. Nakajima, 
 Y. Honda, O. Kitao, H. Nakai, T. Vreven, J. A. Montgomery, Jr., 
 J. E. Peralta, F. Ogliaro, M. Bearpark, J. J. Heyd, E. Brothers, 
 K. N. Kudin, V. N. Staroverov, T. Keith, R. Kobayashi, J. Normand, 
 K. Raghavachari, A. Rendell, J. C. Burant, S. S. Iyengar, J. Tomasi, 
 M. Cossi, N. Rega, J. M. Millam, M. Klene, J. E. Knox, J. B. Cross, 
 V. Bakken, C. Adamo, J. Jaramillo, R. Gomperts, R. E. Stratmann, 
 O. Yazyev, A. J. Austin, R. Cammi, C. Pomelli, J. W. Ochterski, 
 R. L. Martin, K. Morokuma, V. G. Zakrzewski, G. A. Voth, 
 P. Salvador, J. J. Dannenberg, S. Dapprich, A. D. Daniels, 
 O. Farkas, J. B. Foresman, J. V. Ortiz, J. Cioslowski, 
 and D. J. Fox, Gaussian, Inc., Wallingford CT, 2013.
 
 ******************************************
 Gaussian 09:  ES64L-G09RevD.01 24-Apr-2013
                26-May-2021 
 ******************************************
 %chk=/home/unibas/boittier/RDKit_G2/N.pdb/OPT_wB97XD_6-31+G/N.pdb.chk
 %nproc=8
 Will use up to    8 processors via shared memory.
 %mem=16GB
 ---------------------------------
 #p wB97XD/6-31+G Opt Freq=NoRaman
 ---------------------------------
 1/14=-1,18=20,19=15,26=3,38=1/1,3;
 2/9=110,12=2,17=6,18=5,40=1/2;
 3/5=1,6=6,7=10,11=2,16=1,25=1,30=1,71=1,74=-58/1,2,3;
 4//1;
 5/5=2,38=5/2;
 6/7=2,8=2,9=2,10=2,28=1/1;
 7//1,2,3,16;
 1/14=-1,18=20,19=15,26=3/3(2);
 2/9=110/2;
 99//99;
 2/9=110/2;
 3/5=1,6=6,7=10,11=2,16=1,25=1,30=1,71=1,74=-58/1,2,3;
 4/5=5,16=3,69=1/1;
 5/5=2,38=5/2;
 7//1,2,3,16;
 1/14=-1,18=20,19=15,26=3/3(-5);
 2/9=110/2;
 6/7=2,8=2,9=2,10=2,19=2,28=1/1;
 99/9=1/99;
 Leave Link    1 at Wed May 26 08:16:25 2021, MaxMem=  2147483648 cpu:         0.2
 (Enter /opt/cluster/programs/g09_d.01/g09/l101.exe)
 -----
 N.pdb
 -----
 Symbolic Z-matrix:
 Charge =  0 Multiplicity = 1
 C                    -3.074     1.461     1.367 
 C                    -2.496     1.283    -0.014 
 H                    -3.678     0.59      1.628 
 H                    -3.692     2.363     1.383 
 H                    -2.275     1.587     2.102 
 C                    -1.092     0.771    -0.133 
 O                    -3.169     1.527    -1.015 
 C                    -1.095    -0.716     0.046 
 H                    -0.463     1.261     0.617 
 H                    -0.696     1.044    -1.116 
 F                    -1.582    -1.068     1.256 
 F                     0.17     -1.193    -0.027 
 F                    -1.819    -1.348    -0.898 
 
 NAtoms=     13 NQM=       13 NQMF=       0 NMMI=      0 NMMIF=      0
                NMic=       0 NMicF=      0.
                    Isotopes and Nuclear Properties:
 (Nuclear quadrupole moments (NQMom) in fm**2, nuclear magnetic moments (NMagM)
  in nuclear magnetons)

  Atom         1           2           3           4           5           6           7           8           9          10
 IAtWgt=          12          12           1           1           1          12          16          12           1           1
 AtmWgt=  12.0000000  12.0000000   1.0078250   1.0078250   1.0078250  12.0000000  15.9949146  12.0000000   1.0078250   1.0078250
 NucSpn=           0           0           1           1           1           0           0           0           1           1
 AtZEff=   0.0000000   0.0000000   0.0000000   0.0000000   0.0000000   0.0000000   0.0000000   0.0000000   0.0000000   0.0000000
 NQMom=    0.0000000   0.0000000   0.0000000   0.0000000   0.0000000   0.0000000   0.0000000   0.0000000   0.0000000   0.0000000
 NMagM=    0.0000000   0.0000000   2.7928460   2.7928460   2.7928460   0.0000000   0.0000000   0.0000000   2.7928460   2.7928460
 AtZNuc=   6.0000000   6.0000000   1.0000000   1.0000000   1.0000000   6.0000000   8.0000000   6.0000000   1.0000000   1.0000000

  Atom        11          12          13
 IAtWgt=          19          19          19
 AtmWgt=  18.9984033  18.9984033  18.9984033
 NucSpn=           1           1           1
 AtZEff=   0.0000000   0.0000000   0.0000000
 NQMom=    0.0000000   0.0000000   0.0000000
 NMagM=    2.6288670   2.6288670   2.6288670
 AtZNuc=   9.0000000   9.0000000   9.0000000
 Leave Link  101 at Wed May 26 08:16:26 2021, MaxMem=  2147483648 cpu:         4.2
 (Enter /opt/cluster/programs/g09_d.01/g09/l103.exe)

 GradGradGradGradGradGradGradGradGradGradGradGradGradGradGradGradGradGrad
 Berny optimization.
 Initialization pass.
                           ----------------------------
                           !    Initial Parameters    !
                           ! (Angstroms and Degrees)  !
 --------------------------                            --------------------------
 ! Name  Definition              Value          Derivative Info.                !
 --------------------------------------------------------------------------------
 ! R1    R(1,2)                  1.5076         estimate D2E/DX2                !
 ! R2    R(1,3)                  1.0916         estimate D2E/DX2                !
 ! R3    R(1,4)                  1.0935         estimate D2E/DX2                !
 ! R4    R(1,5)                  1.0929         estimate D2E/DX2                !
 ! R5    R(2,6)                  1.4992         estimate D2E/DX2                !
 ! R6    R(2,7)                  1.2306         estimate D2E/DX2                !
 ! R7    R(6,8)                  1.4977         estimate D2E/DX2                !
 ! R8    R(6,9)                  1.0946         estimate D2E/DX2                !
 ! R9    R(6,10)                 1.0944         estimate D2E/DX2                !
 ! R10   R(8,11)                 1.351          estimate D2E/DX2                !
 ! R11   R(8,12)                 1.3539         estimate D2E/DX2                !
 ! R12   R(8,13)                 1.3471         estimate D2E/DX2                !
 ! A1    A(2,1,3)              109.6909         estimate D2E/DX2                !
 ! A2    A(2,1,4)              109.1147         estimate D2E/DX2                !
 ! A3    A(2,1,5)              110.4478         estimate D2E/DX2                !
 ! A4    A(3,1,4)              109.9965         estimate D2E/DX2                !
 ! A5    A(3,1,5)              109.6153         estimate D2E/DX2                !
 ! A6    A(4,1,5)              107.9521         estimate D2E/DX2                !
 ! A7    A(1,2,6)              118.1693         estimate D2E/DX2                !
 ! A8    A(1,2,7)              120.798          estimate D2E/DX2                !
 ! A9    A(6,2,7)              121.0177         estimate D2E/DX2                !
 ! A10   A(2,6,8)              109.1299         estimate D2E/DX2                !
 ! A11   A(2,6,9)              109.3219         estimate D2E/DX2                !
 ! A12   A(2,6,10)             108.9647         estimate D2E/DX2                !
 ! A13   A(8,6,9)              111.3271         estimate D2E/DX2                !
 ! A14   A(8,6,10)             110.8393         estimate D2E/DX2                !
 ! A15   A(9,6,10)             107.2078         estimate D2E/DX2                !
 ! A16   A(6,8,11)             111.4965         estimate D2E/DX2                !
 ! A17   A(6,8,12)             109.9665         estimate D2E/DX2                !
 ! A18   A(6,8,13)             112.5266         estimate D2E/DX2                !
 ! A19   A(11,8,12)            107.0556         estimate D2E/DX2                !
 ! A20   A(11,8,13)            108.1587         estimate D2E/DX2                !
 ! A21   A(12,8,13)            107.4022         estimate D2E/DX2                !
 ! D1    D(3,1,2,6)            -97.3095         estimate D2E/DX2                !
 ! D2    D(3,1,2,7)             81.2932         estimate D2E/DX2                !
 ! D3    D(4,1,2,6)            142.1317         estimate D2E/DX2                !
 ! D4    D(4,1,2,7)            -39.2656         estimate D2E/DX2                !
 ! D5    D(5,1,2,6)             23.6185         estimate D2E/DX2                !
 ! D6    D(5,1,2,7)           -157.7788         estimate D2E/DX2                !
 ! D7    D(1,2,6,8)             79.7833         estimate D2E/DX2                !
 ! D8    D(1,2,6,9)            -42.1914         estimate D2E/DX2                !
 ! D9    D(1,2,6,10)          -159.0621         estimate D2E/DX2                !
 ! D10   D(7,2,6,8)            -98.8162         estimate D2E/DX2                !
 ! D11   D(7,2,6,9)            139.209          estimate D2E/DX2                !
 ! D12   D(7,2,6,10)            22.3384         estimate D2E/DX2                !
 ! D13   D(2,6,8,11)           -59.9804         estimate D2E/DX2                !
 ! D14   D(2,6,8,12)          -178.566          estimate D2E/DX2                !
 ! D15   D(2,6,8,13)            61.7528         estimate D2E/DX2                !
 ! D16   D(9,6,8,11)            60.7758         estimate D2E/DX2                !
 ! D17   D(9,6,8,12)           -57.8098         estimate D2E/DX2                !
 ! D18   D(9,6,8,13)          -177.4909         estimate D2E/DX2                !
 ! D19   D(10,6,8,11)         -179.9865         estimate D2E/DX2                !
 ! D20   D(10,6,8,12)           61.4279         estimate D2E/DX2                !
 ! D21   D(10,6,8,13)          -58.2533         estimate D2E/DX2                !
 --------------------------------------------------------------------------------
 Trust Radius=3.00D-01 FncErr=1.00D-07 GrdErr=1.00D-06
 Number of steps in this run=     64 maximum allowed number of steps=    100.
 GradGradGradGradGradGradGradGradGradGradGradGradGradGradGradGradGradGrad

 Leave Link  103 at Wed May 26 08:16:26 2021, MaxMem=  2147483648 cpu:         0.0
 (Enter /opt/cluster/programs/g09_d.01/g09/l202.exe)
                          Input orientation:                          
 ---------------------------------------------------------------------
 Center     Atomic      Atomic             Coordinates (Angstroms)
 Number     Number       Type             X           Y           Z
 ---------------------------------------------------------------------
      1          6           0       -3.074000    1.461000    1.367000
      2          6           0       -2.496000    1.283000   -0.014000
      3          1           0       -3.678000    0.590000    1.628000
      4          1           0       -3.692000    2.363000    1.383000
      5          1           0       -2.275000    1.587000    2.102000
      6          6           0       -1.092000    0.771000   -0.133000
      7          8           0       -3.169000    1.527000   -1.015000
      8          6           0       -1.095000   -0.716000    0.046000
      9          1           0       -0.463000    1.261000    0.617000
     10          1           0       -0.696000    1.044000   -1.116000
     11          9           0       -1.582000   -1.068000    1.256000
     12          9           0        0.170000   -1.193000   -0.027000
     13          9           0       -1.819000   -1.348000   -0.898000
 ---------------------------------------------------------------------
                    Distance matrix (angstroms):
                    1          2          3          4          5
     1  C    0.000000
     2  C    1.507624   0.000000
     3  H    1.091594   2.138583   0.000000
     4  H    1.093519   2.132704   1.789902   0.000000
     5  H    1.092933   2.149119   1.785243   1.768340   0.000000
     6  C    2.579617   1.499173   3.133892   3.404808   2.657173
     7  O    2.384807   1.230636   2.850000   2.592842   3.243228
     8  C    3.225029   2.441803   3.298522   4.244080   3.305048
     9  H    2.723935   2.128787   3.436362   3.496799   2.365342
    10  H    3.463244   2.124035   4.077742   4.118347   3.625412
    11  F    2.938405   2.824092   2.698252   4.029887   2.871409
    12  F    4.417068   3.638448   4.552496   5.435833   4.270722
    13  F    3.820436   2.856912   3.686787   4.741583   4.221630
                    6          7          8          9         10
     6  C    0.000000
     7  O    2.379788   0.000000
     8  C    1.497738   3.233921   0.000000
     9  H    1.094642   3.171217   2.152671   0.000000
    10  H    1.094365   2.521749   2.146403   1.762007   0.000000
    11  F    2.356129   3.796055   1.350990   2.661714   3.297260
    12  F    2.336916   4.418537   1.353914   2.614869   2.634397
    13  F    2.367259   3.178335   1.347121   3.307694   2.651474
                   11         12         13
    11  F    0.000000
    12  F    2.175136   0.000000
    13  F    2.185014   2.176876   0.000000
 Stoichiometry    C4H5F3O
 Framework group  C1[X(C4H5F3O)]
 Deg. of freedom    33
 Full point group                 C1      NOp   1
 Largest Abelian subgroup         C1      NOp   1
 Largest concise Abelian subgroup C1      NOp   1
                         Standard orientation:                         
 ---------------------------------------------------------------------
 Center     Atomic      Atomic             Coordinates (Angstroms)
 Number     Number       Type             X           Y           Z
 ---------------------------------------------------------------------
      1          6           0        2.013562    1.125557   -0.055426
      2          6           0        1.410759   -0.228635    0.219752
      3          1           0        1.760975    1.441443   -1.069326
      4          1           0        3.099489    1.063748    0.057385
      5          1           0        1.641759    1.861847    0.661611
      6          6           0        0.105132   -0.286102    0.954296
      7          8           0        1.963887   -1.255895   -0.171724
      8          6           0       -1.009718    0.004028   -0.002863
      9          1           0        0.120737    0.435048    1.777667
     10          1           0       -0.010514   -1.280296    1.396832
     11          9           0       -0.879771    1.229013   -0.557568
     12          9           0       -2.195680   -0.012453    0.650059
     13          9           0       -1.084766   -0.901418   -0.997484
 ---------------------------------------------------------------------
 Rotational constants (GHZ):      3.4679980      1.4787780      1.3140942
 Leave Link  202 at Wed May 26 08:16:26 2021, MaxMem=  2147483648 cpu:         0.0
 (Enter /opt/cluster/programs/g09_d.01/g09/l301.exe)
 Standard basis: 6-31+G (6D, 7F)
 Ernie: Thresh=  0.10000D-02 Tol=  0.10000D-05 Strict=F.
 There are   114 symmetry adapted cartesian basis functions of A   symmetry.
 There are   114 symmetry adapted basis functions of A   symmetry.
   114 basis functions,   228 primitive gaussians,   114 cartesian basis functions
    32 alpha electrons       32 beta electrons
       nuclear repulsion energy       413.7148613005 Hartrees.
 IExCor= 4639 DFT=T Ex+Corr=wB97XD ExCW=0 ScaHFX=  1.000000
 ScaDFX=  1.000000  1.000000  1.000000  1.000000 ScalE2=  1.000000  1.000000
 IRadAn=      0 IRanWt=     -1 IRanGd=            0 ICorTp=0 IEmpDi=121
  HFx wShort=  0.000000 wLong=  0.200000 cFull=  0.222036 cShort=  0.000000 cLong=  0.777964
  DFx wShort=  0.000000 wLong=  0.200000 cFull=  0.000000 cShort=  0.000000 cLong=  1.000000
 NAtoms=   13 NActive=   13 NUniq=   13 SFac= 1.00D+00 NAtFMM=   60 NAOKFM=F Big=F
 Integral buffers will be    131072 words long.
 Raffenetti 2 integral format.
 Two-electron integral symmetry is turned on.
 R6Disp:  Grimme-D2 Dispersion energy=       -0.0061307210 Hartrees.
 Nuclear repulsion after empirical dispersion term =      413.7087305795 Hartrees.
 Leave Link  301 at Wed May 26 08:16:26 2021, MaxMem=  2147483648 cpu:         0.3
 (Enter /opt/cluster/programs/g09_d.01/g09/l302.exe)
 NPDir=0 NMtPBC=     1 NCelOv=     1 NCel=       1 NClECP=     1 NCelD=      1
         NCelK=      1 NCelE2=     1 NClLst=     1 CellRange=     0.0.
 One-electron integrals computed using PRISM.
 NBasis=   114 RedAO= T EigKep=  9.35D-05  NBF=   114
 NBsUse=   114 1.00D-06 EigRej= -1.00D+00 NBFU=   114
 Precomputing XC quadrature grid using
 IXCGrd= 4 IRadAn=           0 IRanWt=          -1 IRanGd=           0 AccXCQ= 0.00D+00.
 Generated NRdTot=       0 NPtTot=           0 NUsed=           0 NTot=          32
 NSgBfM=   114   114   114   114   114 MxSgAt=    13 MxSgA2=    13.
 Leave Link  302 at Wed May 26 08:16:26 2021, MaxMem=  2147483648 cpu:         0.9
 (Enter /opt/cluster/programs/g09_d.01/g09/l303.exe)
 DipDrv:  MaxL=1.
 Leave Link  303 at Wed May 26 08:16:26 2021, MaxMem=  2147483648 cpu:         0.2
 (Enter /opt/cluster/programs/g09_d.01/g09/l401.exe)
 ExpMin= 4.38D-02 ExpMax= 7.00D+03 ExpMxC= 1.05D+03 IAcc=2 IRadAn=         4 AccDes= 0.00D+00
 Harris functional with IExCor= 4639 and IRadAn=       4 diagonalized for initial guess.
 HarFok:  IExCor= 4639 AccDes= 0.00D+00 IRadAn=         4 IDoV= 1 UseB2=F ITyADJ=14
 ICtDFT=  3500011 ScaDFX=  1.000000  1.000000  1.000000  1.000000
 FoFCou: FMM=F IPFlag=           0 FMFlag=      100000 FMFlg1=           0
         NFxFlg=           0 DoJE=T BraDBF=F KetDBF=T FulRan=T
         wScrn=  0.000000 ICntrl=     500 IOpCl=  0 I1Cent=   200000004 NGrid=           0
         NMat0=    1 NMatS0=      1 NMatT0=    0 NMatD0=    1 NMtDS0=    0 NMtDT0=    0
 Petite list used in FoFCou.
 Harris En= -511.156224226941    
 JPrj=0 DoOrth=F DoCkMO=F.
 Leave Link  401 at Wed May 26 08:16:26 2021, MaxMem=  2147483648 cpu:         2.1
 (Enter /opt/cluster/programs/g09_d.01/g09/l502.exe)
 Closed shell SCF:
 Using DIIS extrapolation, IDIIS=  1040.
 Integral symmetry usage will be decided dynamically.
 Keep R1 ints in memory in canonical form, NReq=43969700.
 IVT=       59316 IEndB=       59316 NGot=  2147483648 MDV=  2104449753
 LenX=  2104449753 LenY=  2104436316
 Requested convergence on RMS density matrix=1.00D-08 within 128 cycles.
 Requested convergence on MAX density matrix=1.00D-06.
 Requested convergence on             energy=1.00D-06.
 No special actions if energy rises.
 FoFCou: FMM=F IPFlag=           0 FMFlag=           0 FMFlg1=           0
         NFxFlg=           0 DoJE=F BraDBF=F KetDBF=F FulRan=T
         wScrn=  0.000000 ICntrl=     600 IOpCl=  0 I1Cent=           0 NGrid=           0
         NMat0=    1 NMatS0=   6555 NMatT0=    0 NMatD0=    1 NMtDS0=    0 NMtDT0=    0
 Symmetry not used in FoFCou.

 Cycle   1  Pass 1  IDiag  1:
 E= -529.584493528620    
 DIIS: error= 6.50D-02 at cycle   1 NSaved=   1.
 NSaved= 1 IEnMin= 1 EnMin= -529.584493528620     IErMin= 1 ErrMin= 6.50D-02
 ErrMax= 6.50D-02  0.00D+00 EMaxC= 1.00D-01 BMatC= 5.16D-01 BMatP= 5.16D-01
 IDIUse=3 WtCom= 3.50D-01 WtEn= 6.50D-01
 Coeff-Com:  0.100D+01
 Coeff-En:   0.100D+01
 Coeff:      0.100D+01
 Gap=     0.398 Goal=   None    Shift=    0.000
 GapD=    0.398 DampG=1.000 DampE=0.500 DampFc=0.5000 IDamp=-1.
 Damping current iteration by 5.00D-01
 RMSDP=1.92D-02 MaxDP=8.14D-01              OVMax= 1.31D-01

 Cycle   2  Pass 1  IDiag  1:
 E= -529.761748453932     Delta-E=       -0.177254925312 Rises=F Damp=T
 DIIS: error= 1.50D-02 at cycle   2 NSaved=   2.
 NSaved= 2 IEnMin= 2 EnMin= -529.761748453932     IErMin= 2 ErrMin= 1.50D-02
 ErrMax= 1.50D-02  0.00D+00 EMaxC= 1.00D-01 BMatC= 3.28D-02 BMatP= 5.16D-01
 IDIUse=3 WtCom= 8.50D-01 WtEn= 1.50D-01
 Coeff-Com: -0.134D+00 0.113D+01
 Coeff-En:   0.000D+00 0.100D+01
 Coeff:     -0.114D+00 0.111D+01
 Gap=     0.399 Goal=   None    Shift=    0.000
 RMSDP=9.57D-03 MaxDP=4.16D-01 DE=-1.77D-01 OVMax= 5.78D-02

 Cycle   3  Pass 1  IDiag  1:
 E= -529.912755036041     Delta-E=       -0.151006582109 Rises=F Damp=F
 DIIS: error= 6.14D-03 at cycle   3 NSaved=   3.
 NSaved= 3 IEnMin= 3 EnMin= -529.912755036041     IErMin= 3 ErrMin= 6.14D-03
 ErrMax= 6.14D-03  0.00D+00 EMaxC= 1.00D-01 BMatC= 6.52D-03 BMatP= 3.28D-02
 IDIUse=3 WtCom= 9.39D-01 WtEn= 6.14D-02
 Coeff-Com: -0.668D-01 0.336D+00 0.731D+00
 Coeff-En:   0.000D+00 0.000D+00 0.100D+01
 Coeff:     -0.627D-01 0.315D+00 0.748D+00
 Gap=     0.381 Goal=   None    Shift=    0.000
 RMSDP=3.25D-03 MaxDP=1.22D-01 DE=-1.51D-01 OVMax= 2.24D-02

 Cycle   4  Pass 1  IDiag  1:
 E= -529.917023766384     Delta-E=       -0.004268730342 Rises=F Damp=F
 DIIS: error= 2.71D-03 at cycle   4 NSaved=   4.
 NSaved= 4 IEnMin= 4 EnMin= -529.917023766384     IErMin= 4 ErrMin= 2.71D-03
 ErrMax= 2.71D-03  0.00D+00 EMaxC= 1.00D-01 BMatC= 1.84D-03 BMatP= 6.52D-03
 IDIUse=3 WtCom= 9.73D-01 WtEn= 2.71D-02
 Coeff-Com:  0.464D-03-0.300D-02 0.337D+00 0.665D+00
 Coeff-En:   0.000D+00 0.000D+00 0.150D+00 0.850D+00
 Coeff:      0.451D-03-0.292D-02 0.332D+00 0.670D+00
 Gap=     0.372 Goal=   None    Shift=    0.000
 RMSDP=5.81D-04 MaxDP=9.52D-03 DE=-4.27D-03 OVMax= 1.54D-02

 Cycle   5  Pass 1  IDiag  1:
 E= -529.918331393961     Delta-E=       -0.001307627577 Rises=F Damp=F
 DIIS: error= 1.11D-03 at cycle   5 NSaved=   5.
 NSaved= 5 IEnMin= 5 EnMin= -529.918331393961     IErMin= 5 ErrMin= 1.11D-03
 ErrMax= 1.11D-03  0.00D+00 EMaxC= 1.00D-01 BMatC= 2.49D-04 BMatP= 1.84D-03
 IDIUse=3 WtCom= 9.89D-01 WtEn= 1.11D-02
 Coeff-Com:  0.653D-02-0.298D-01 0.145D+00 0.384D+00 0.494D+00
 Coeff-En:   0.000D+00 0.000D+00 0.000D+00 0.000D+00 0.100D+01
 Coeff:      0.646D-02-0.294D-01 0.143D+00 0.380D+00 0.499D+00
 Gap=     0.375 Goal=   None    Shift=    0.000
 RMSDP=5.70D-04 MaxDP=2.31D-02 DE=-1.31D-03 OVMax= 4.09D-03

 Cycle   6  Pass 1  IDiag  1:
 E= -529.918512519018     Delta-E=       -0.000181125058 Rises=F Damp=F
 DIIS: error= 1.80D-04 at cycle   6 NSaved=   6.
 NSaved= 6 IEnMin= 6 EnMin= -529.918512519018     IErMin= 6 ErrMin= 1.80D-04
 ErrMax= 1.80D-04  0.00D+00 EMaxC= 1.00D-01 BMatC= 4.90D-06 BMatP= 2.49D-04
 IDIUse=3 WtCom= 9.98D-01 WtEn= 1.80D-03
 Coeff-Com:  0.154D-02-0.408D-02-0.223D-01-0.373D-01 0.744D-01 0.988D+00
 Coeff-En:   0.000D+00 0.000D+00 0.000D+00 0.000D+00 0.000D+00 0.100D+01
 Coeff:      0.154D-02-0.407D-02-0.223D-01-0.372D-01 0.743D-01 0.988D+00
 Gap=     0.375 Goal=   None    Shift=    0.000
 RMSDP=1.77D-04 MaxDP=6.93D-03 DE=-1.81D-04 OVMax= 1.38D-03

 Cycle   7  Pass 1  IDiag  1:
 E= -529.918519215977     Delta-E=       -0.000006696958 Rises=F Damp=F
 DIIS: error= 4.43D-05 at cycle   7 NSaved=   7.
 NSaved= 7 IEnMin= 7 EnMin= -529.918519215977     IErMin= 7 ErrMin= 4.43D-05
 ErrMax= 4.43D-05  0.00D+00 EMaxC= 1.00D-01 BMatC= 4.71D-07 BMatP= 4.90D-06
 IDIUse=1 WtCom= 1.00D+00 WtEn= 0.00D+00
 Coeff-Com:  0.126D-03 0.525D-03-0.172D-01-0.359D-01-0.129D-01 0.335D+00
 Coeff-Com:  0.730D+00
 Coeff:      0.126D-03 0.525D-03-0.172D-01-0.359D-01-0.129D-01 0.335D+00
 Coeff:      0.730D+00
 Gap=     0.375 Goal=   None    Shift=    0.000
 RMSDP=4.17D-05 MaxDP=1.61D-03 DE=-6.70D-06 OVMax= 3.02D-04

 Cycle   8  Pass 1  IDiag  1:
 E= -529.918519845641     Delta-E=       -0.000000629664 Rises=F Damp=F
 DIIS: error= 1.85D-05 at cycle   8 NSaved=   8.
 NSaved= 8 IEnMin= 8 EnMin= -529.918519845641     IErMin= 8 ErrMin= 1.85D-05
 ErrMax= 1.85D-05  0.00D+00 EMaxC= 1.00D-01 BMatC= 2.26D-08 BMatP= 4.71D-07
 IDIUse=1 WtCom= 1.00D+00 WtEn= 0.00D+00
 Coeff-Com: -0.120D-03 0.330D-03 0.114D-02 0.284D-02-0.914D-02-0.595D-01
 Coeff-Com:  0.307D-01 0.103D+01
 Coeff:     -0.120D-03 0.330D-03 0.114D-02 0.284D-02-0.914D-02-0.595D-01
 Coeff:      0.307D-01 0.103D+01
 Gap=     0.375 Goal=   None    Shift=    0.000
 RMSDP=1.38D-05 MaxDP=4.81D-04 DE=-6.30D-07 OVMax= 1.94D-04

 Cycle   9  Pass 1  IDiag  1:
 E= -529.918519908501     Delta-E=       -0.000000062861 Rises=F Damp=F
 DIIS: error= 7.82D-06 at cycle   9 NSaved=   9.
 NSaved= 9 IEnMin= 9 EnMin= -529.918519908501     IErMin= 9 ErrMin= 7.82D-06
 ErrMax= 7.82D-06  0.00D+00 EMaxC= 1.00D-01 BMatC= 3.09D-09 BMatP= 2.26D-08
 IDIUse=1 WtCom= 1.00D+00 WtEn= 0.00D+00
 Coeff-Com: -0.371D-04 0.306D-04 0.162D-02 0.372D-02-0.139D-02-0.402D-01
 Coeff-Com: -0.500D-01 0.226D+00 0.860D+00
 Coeff:     -0.371D-04 0.306D-04 0.162D-02 0.372D-02-0.139D-02-0.402D-01
 Coeff:     -0.500D-01 0.226D+00 0.860D+00
 Gap=     0.375 Goal=   None    Shift=    0.000
 RMSDP=2.77D-06 MaxDP=5.80D-05 DE=-6.29D-08 OVMax= 8.70D-05

 Cycle  10  Pass 1  IDiag  1:
 E= -529.918519918827     Delta-E=       -0.000000010326 Rises=F Damp=F
 DIIS: error= 4.09D-06 at cycle  10 NSaved=  10.
 NSaved=10 IEnMin=10 EnMin= -529.918519918827     IErMin=10 ErrMin= 4.09D-06
 ErrMax= 4.09D-06  0.00D+00 EMaxC= 1.00D-01 BMatC= 1.26D-09 BMatP= 3.09D-09
 IDIUse=1 WtCom= 1.00D+00 WtEn= 0.00D+00
 Coeff-Com:  0.117D-04-0.698D-04 0.567D-03 0.130D-02 0.153D-02-0.622D-02
 Coeff-Com: -0.343D-01-0.141D+00 0.422D+00 0.757D+00
 Coeff:      0.117D-04-0.698D-04 0.567D-03 0.130D-02 0.153D-02-0.622D-02
 Coeff:     -0.343D-01-0.141D+00 0.422D+00 0.757D+00
 Gap=     0.375 Goal=   None    Shift=    0.000
 RMSDP=1.40D-06 MaxDP=2.65D-05 DE=-1.03D-08 OVMax= 5.72D-05

 Cycle  11  Pass 1  IDiag  1:
 E= -529.918519922509     Delta-E=       -0.000000003682 Rises=F Damp=F
 DIIS: error= 1.77D-06 at cycle  11 NSaved=  11.
 NSaved=11 IEnMin=11 EnMin= -529.918519922509     IErMin=11 ErrMin= 1.77D-06
 ErrMax= 1.77D-06  0.00D+00 EMaxC= 1.00D-01 BMatC= 1.10D-10 BMatP= 1.26D-09
 IDIUse=1 WtCom= 1.00D+00 WtEn= 0.00D+00
 Coeff-Com:  0.807D-05-0.361D-05-0.386D-03-0.899D-03 0.268D-03 0.913D-02
 Coeff-Com:  0.114D-01-0.381D-01-0.192D+00-0.708D-01 0.128D+01
 Coeff:      0.807D-05-0.361D-05-0.386D-03-0.899D-03 0.268D-03 0.913D-02
 Coeff:      0.114D-01-0.381D-01-0.192D+00-0.708D-01 0.128D+01
 Gap=     0.375 Goal=   None    Shift=    0.000
 RMSDP=9.38D-07 MaxDP=1.75D-05 DE=-3.68D-09 OVMax= 4.09D-05

 Cycle  12  Pass 1  IDiag  1:
 E= -529.918519923447     Delta-E=       -0.000000000938 Rises=F Damp=F
 DIIS: error= 4.56D-07 at cycle  12 NSaved=  12.
 NSaved=12 IEnMin=12 EnMin= -529.918519923447     IErMin=12 ErrMin= 4.56D-07
 ErrMax= 4.56D-07  0.00D+00 EMaxC= 1.00D-01 BMatC= 2.06D-11 BMatP= 1.10D-10
 IDIUse=1 WtCom= 1.00D+00 WtEn= 0.00D+00
 Coeff-Com:  0.129D-05 0.544D-05-0.169D-03-0.401D-03-0.718D-04 0.311D-02
 Coeff-Com:  0.739D-02 0.105D-01-0.111D+00-0.131D+00 0.369D+00 0.853D+00
 Coeff:      0.129D-05 0.544D-05-0.169D-03-0.401D-03-0.718D-04 0.311D-02
 Coeff:      0.739D-02 0.105D-01-0.111D+00-0.131D+00 0.369D+00 0.853D+00
 Gap=     0.375 Goal=   None    Shift=    0.000
 RMSDP=2.71D-07 MaxDP=5.64D-06 DE=-9.38D-10 OVMax= 1.06D-05

 Cycle  13  Pass 1  IDiag  1:
 E= -529.918519923523     Delta-E=       -0.000000000075 Rises=F Damp=F
 DIIS: error= 1.20D-07 at cycle  13 NSaved=  13.
 NSaved=13 IEnMin=13 EnMin= -529.918519923523     IErMin=13 ErrMin= 1.20D-07
 ErrMax= 1.20D-07  0.00D+00 EMaxC= 1.00D-01 BMatC= 1.56D-12 BMatP= 2.06D-11
 IDIUse=1 WtCom= 1.00D+00 WtEn= 0.00D+00
 Coeff-Com: -0.845D-06 0.773D-06 0.393D-04 0.835D-04-0.208D-04-0.104D-02
 Coeff-Com: -0.853D-03 0.657D-02 0.153D-01-0.821D-03-0.146D+00 0.584D-01
 Coeff-Com:  0.107D+01
 Coeff:     -0.845D-06 0.773D-06 0.393D-04 0.835D-04-0.208D-04-0.104D-02
 Coeff:     -0.853D-03 0.657D-02 0.153D-01-0.821D-03-0.146D+00 0.584D-01
 Coeff:      0.107D+01
 Gap=     0.375 Goal=   None    Shift=    0.000
 RMSDP=9.97D-08 MaxDP=2.30D-06 DE=-7.53D-11 OVMax= 3.21D-06

 Cycle  14  Pass 1  IDiag  1:
 E= -529.918519923530     Delta-E=       -0.000000000007 Rises=F Damp=F
 DIIS: error= 1.85D-08 at cycle  14 NSaved=  14.
 NSaved=14 IEnMin=14 EnMin= -529.918519923530     IErMin=14 ErrMin= 1.85D-08
 ErrMax= 1.85D-08  0.00D+00 EMaxC= 1.00D-01 BMatC= 7.72D-14 BMatP= 1.56D-12
 IDIUse=1 WtCom= 1.00D+00 WtEn= 0.00D+00
 Coeff-Com: -0.236D-06 0.136D-06 0.114D-04 0.243D-04 0.395D-05-0.268D-03
 Coeff-Com: -0.340D-03 0.491D-03 0.575D-02 0.524D-02-0.332D-01-0.268D-01
 Coeff-Com:  0.148D+00 0.901D+00
 Coeff:     -0.236D-06 0.136D-06 0.114D-04 0.243D-04 0.395D-05-0.268D-03
 Coeff:     -0.340D-03 0.491D-03 0.575D-02 0.524D-02-0.332D-01-0.268D-01
 Coeff:      0.148D+00 0.901D+00
 Gap=     0.375 Goal=   None    Shift=    0.000
 RMSDP=1.20D-08 MaxDP=3.36D-07 DE=-7.28D-12 OVMax= 2.65D-07

 Cycle  15  Pass 1  IDiag  1:
 E= -529.918519923534     Delta-E=       -0.000000000004 Rises=F Damp=F
 DIIS: error= 7.00D-09 at cycle  15 NSaved=  15.
 NSaved=15 IEnMin=15 EnMin= -529.918519923534     IErMin=15 ErrMin= 7.00D-09
 ErrMax= 7.00D-09  0.00D+00 EMaxC= 1.00D-01 BMatC= 1.35D-14 BMatP= 7.72D-14
 IDIUse=1 WtCom= 1.00D+00 WtEn= 0.00D+00
 Coeff-Com: -0.114D-07-0.417D-07 0.387D-06 0.803D-06 0.521D-05 0.254D-05
 Coeff-Com: -0.384D-04-0.537D-03 0.694D-03 0.228D-02 0.304D-02-0.182D-01
 Coeff-Com: -0.616D-01 0.318D+00 0.756D+00
 Coeff:     -0.114D-07-0.417D-07 0.387D-06 0.803D-06 0.521D-05 0.254D-05
 Coeff:     -0.384D-04-0.537D-03 0.694D-03 0.228D-02 0.304D-02-0.182D-01
 Coeff:     -0.616D-01 0.318D+00 0.756D+00
 Gap=     0.375 Goal=   None    Shift=    0.000
 RMSDP=4.26D-09 MaxDP=1.59D-07 DE=-3.87D-12 OVMax= 4.89D-08

 SCF Done:  E(RwB97XD) =  -529.918519924     A.U. after   15 cycles
            NFock= 15  Conv=0.43D-08     -V/T= 2.0044
 KE= 5.275787287009D+02 PE=-2.077948676931D+03 EE= 6.067426977268D+02
 Leave Link  502 at Wed May 26 08:16:31 2021, MaxMem=  2147483648 cpu:        31.5
 (Enter /opt/cluster/programs/g09_d.01/g09/l601.exe)
 Copying SCF densities to generalized density rwf, IOpCl= 0 IROHF=0.

 **********************************************************************

            Population analysis using the SCF density.

 **********************************************************************

 Orbital symmetries:
       Occupied  (A) (A) (A) (A) (A) (A) (A) (A) (A) (A) (A) (A)
                 (A) (A) (A) (A) (A) (A) (A) (A) (A) (A) (A) (A)
                 (A) (A) (A) (A) (A) (A) (A) (A)
       Virtual   (A) (A) (A) (A) (A) (A) (A) (A) (A) (A) (A) (A)
                 (A) (A) (A) (A) (A) (A) (A) (A) (A) (A) (A) (A)
                 (A) (A) (A) (A) (A) (A) (A) (A) (A) (A) (A) (A)
                 (A) (A) (A) (A) (A) (A) (A) (A) (A) (A) (A) (A)
                 (A) (A) (A) (A) (A) (A) (A) (A) (A) (A) (A) (A)
                 (A) (A) (A) (A) (A) (A) (A) (A) (A) (A) (A) (A)
                 (A) (A) (A) (A) (A) (A) (A) (A) (A) (A)
 The electronic state is 1-A.
 Alpha  occ. eigenvalues --  -24.89468 -24.89127 -24.88737 -19.29929 -10.59111
 Alpha  occ. eigenvalues --  -10.43062 -10.35549 -10.31765  -1.46563  -1.37146
 Alpha  occ. eigenvalues --   -1.36606  -1.19301  -0.95426  -0.86873  -0.80360
 Alpha  occ. eigenvalues --   -0.72089  -0.71543  -0.70136  -0.64498  -0.59540
 Alpha  occ. eigenvalues --   -0.58742  -0.58012  -0.57230  -0.55526  -0.54473
 Alpha  occ. eigenvalues --   -0.53791  -0.52749  -0.51295  -0.50574  -0.49113
 Alpha  occ. eigenvalues --   -0.45946  -0.36436
 Alpha virt. eigenvalues --    0.01088   0.05660   0.07968   0.09217   0.10142
 Alpha virt. eigenvalues --    0.10689   0.11749   0.12635   0.12758   0.13005
 Alpha virt. eigenvalues --    0.15723   0.16373   0.16442   0.17221   0.18129
 Alpha virt. eigenvalues --    0.19608   0.20141   0.20756   0.23525   0.24601
 Alpha virt. eigenvalues --    0.26299   0.27276   0.28595   0.29528   0.31686
 Alpha virt. eigenvalues --    0.33119   0.34636   0.35741   0.37056   0.38262
 Alpha virt. eigenvalues --    0.38556   0.39303   0.40756   0.41288   0.41745
 Alpha virt. eigenvalues --    0.43166   0.43615   0.44198   0.45051   0.45185
 Alpha virt. eigenvalues --    0.46239   0.49283   0.52083   0.53445   0.55223
 Alpha virt. eigenvalues --    0.70627   0.73834   0.78199   0.79063   0.81353
 Alpha virt. eigenvalues --    0.84049   0.85651   0.87746   0.90092   0.92287
 Alpha virt. eigenvalues --    0.95167   0.98325   1.13295   1.15273   1.19636
 Alpha virt. eigenvalues --    1.21411   1.23175   1.28127   1.35400   1.35725
 Alpha virt. eigenvalues --    1.44181   1.48510   1.49906   1.56162   1.59795
 Alpha virt. eigenvalues --    1.69157   1.69766   1.72037   1.74453   1.79935
 Alpha virt. eigenvalues --    1.83907   1.84530   1.87718   2.02031   2.34583
 Alpha virt. eigenvalues --    2.38706   2.70088
          Condensed to atoms (all electrons):
               1          2          3          4          5          6
     1  C    7.540397  -0.154726   0.343598   0.355972   0.340946  -1.806900
     2  C   -0.154726   6.071753  -0.003908  -0.021898  -0.056431  -0.659034
     3  H    0.343598  -0.003908   0.431705  -0.014476  -0.021500  -0.001382
     4  H    0.355972  -0.021898  -0.014476   0.449237  -0.028529   0.021629
     5  H    0.340946  -0.056431  -0.021500  -0.028529   0.506781   0.041743
     6  C   -1.806900  -0.659034  -0.001382   0.021629   0.041743   9.077864
     7  O   -0.171332   0.496765  -0.003085  -0.008803   0.008717  -0.233072
     8  C    0.079853   0.010998   0.004636  -0.002879  -0.003092   0.020396
     9  H    0.029203   0.007206   0.000131  -0.000050  -0.001317   0.282369
    10  H    0.019558   0.004111  -0.000092  -0.000118   0.000091   0.312871
    11  F    0.055719  -0.031104  -0.002479   0.000379  -0.003080  -0.180674
    12  F   -0.010940  -0.007761   0.000069   0.000032   0.000114  -0.126125
    13  F    0.021902   0.051604  -0.000627  -0.000007   0.000147  -0.204710
               7          8          9         10         11         12
     1  C   -0.171332   0.079853   0.029203   0.019558   0.055719  -0.010940
     2  C    0.496765   0.010998   0.007206   0.004111  -0.031104  -0.007761
     3  H   -0.003085   0.004636   0.000131  -0.000092  -0.002479   0.000069
     4  H   -0.008803  -0.002879  -0.000050  -0.000118   0.000379   0.000032
     5  H    0.008717  -0.003092  -0.001317   0.000091  -0.003080   0.000114
     6  C   -0.233072   0.020396   0.282369   0.312871  -0.180674  -0.126125
     7  O    8.277066  -0.014739   0.004542  -0.001882  -0.000775  -0.001389
     8  C   -0.014739   5.136175  -0.026025  -0.025519   0.079018   0.133966
     9  H    0.004542  -0.026025   0.457824  -0.022176  -0.006187  -0.006932
    10  H   -0.001882  -0.025519  -0.022176   0.419670   0.008630  -0.002754
    11  F   -0.000775   0.079018  -0.006187   0.008630   9.400024  -0.068830
    12  F   -0.001389   0.133966  -0.006932  -0.002754  -0.068830   9.374717
    13  F    0.011803   0.074118   0.010176  -0.005274  -0.067762  -0.076711
              13
     1  C    0.021902
     2  C    0.051604
     3  H   -0.000627
     4  H   -0.000007
     5  H    0.000147
     6  C   -0.204710
     7  O    0.011803
     8  C    0.074118
     9  H    0.010176
    10  H   -0.005274
    11  F   -0.067762
    12  F   -0.076711
    13  F    9.364926
 Mulliken charges:
               1
     1  C   -0.643250
     2  C    0.292425
     3  H    0.267410
     4  H    0.249510
     5  H    0.215409
     6  C   -0.544976
     7  O   -0.363816
     8  C    0.533091
     9  H    0.271235
    10  H    0.292883
    11  F   -0.182880
    12  F   -0.207457
    13  F   -0.179584
 Sum of Mulliken charges =   0.00000
 Mulliken charges with hydrogens summed into heavy atoms:
               1
     1  C    0.089079
     2  C    0.292425
     6  C    0.019142
     7  O   -0.363816
     8  C    0.533091
    11  F   -0.182880
    12  F   -0.207457
    13  F   -0.179584
 Electronic spatial extent (au):  <R**2>=            922.2604
 Charge=              0.0000 electrons
 Dipole moment (field-independent basis, Debye):
    X=              0.7998    Y=              2.2712    Z=              2.3748  Tot=              3.3820
 Quadrupole moment (field-independent basis, Debye-Ang):
   XX=            -51.2597   YY=            -48.9443   ZZ=            -43.3755
   XY=              6.5285   XZ=              1.5008   YZ=             -1.6118
 Traceless Quadrupole moment (field-independent basis, Debye-Ang):
   XX=             -3.3999   YY=             -1.0845   ZZ=              4.4843
   XY=              6.5285   XZ=              1.5008   YZ=             -1.6118
 Octapole moment (field-independent basis, Debye-Ang**2):
  XXX=            -17.5674  YYY=              2.9073  ZZZ=             -2.5994  XYY=            -11.8142
  XXY=             13.5947  XXZ=             -1.7509  XZZ=             -4.3538  YZZ=              0.8572
  YYZ=              2.1972  XYZ=             -1.5287
 Hexadecapole moment (field-independent basis, Debye-Ang**3):
 XXXX=           -680.8938 YYYY=           -251.1484 ZZZZ=           -141.7231 XXXY=             24.1941
 XXXZ=             15.1019 YYYX=              6.9924 YYYZ=             -0.3814 ZZZX=             -0.7836
 ZZZY=              0.0303 XXYY=           -164.8672 XXZZ=           -137.8548 YYZZ=            -61.2954
 XXYZ=             -4.0244 YYXZ=             -0.8718 ZZXY=             -1.2082
 N-N= 4.137087305795D+02 E-N=-2.077948677259D+03  KE= 5.275787287009D+02
 No NMR shielding tensors so no spin-rotation constants.
 Leave Link  601 at Wed May 26 08:16:31 2021, MaxMem=  2147483648 cpu:         0.6
 (Enter /opt/cluster/programs/g09_d.01/g09/l701.exe)
 Compute integral first derivatives.
 ... and contract with generalized density number  0.
 R6Disp: Adding Grimme-D2 dispersion energy 1st derivatives to the gradient.
 Leave Link  701 at Wed May 26 08:16:31 2021, MaxMem=  2147483648 cpu:         0.6
 (Enter /opt/cluster/programs/g09_d.01/g09/l702.exe)
 L702 exits ... SP integral derivatives will be done elsewhere.
 Leave Link  702 at Wed May 26 08:16:31 2021, MaxMem=  2147483648 cpu:         0.2
 (Enter /opt/cluster/programs/g09_d.01/g09/l703.exe)
 Compute integral first derivatives, UseDBF=F ICtDFT=           0.
 Integral derivatives from FoFJK, PRISM(SPDF).
 Calling FoFJK, ICntrl=      2127 FMM=F ISym2X=0 I1Cent= 0 IOpClX= 0 NMat=1 NMatS=1 NMatT=0.
 FoFJK:  IHMeth= 1 ICntrl=    2127 DoSepK=T KAlg= 0 I1Cent=   0 FoldK=F
 IRaf=         1 NMat=   1 IRICut=       1 DoRegI=T DoRafI=F ISym2E= 0.
 FoFCou: FMM=F IPFlag=           0 FMFlag=      100000 FMFlg1=         800
         NFxFlg=           0 DoJE=F BraDBF=F KetDBF=F FulRan=T
         wScrn=  0.000000 ICntrl=    2527 IOpCl=  0 I1Cent=           0 NGrid=           0
         NMat0=    1 NMatS0=      1 NMatT0=    0 NMatD0=    1 NMtDS0=    0 NMtDT0=    0
 Symmetry not used in FoFCou.
 Leave Link  703 at Wed May 26 08:16:32 2021, MaxMem=  2147483648 cpu:         8.5
 (Enter /opt/cluster/programs/g09_d.01/g09/l716.exe)
 Dipole        = 3.14650427D-01 8.93565547D-01 9.34322366D-01
 ***** Axes restored to original set *****
 -------------------------------------------------------------------
 Center     Atomic                   Forces (Hartrees/Bohr)
 Number     Number              X              Y              Z
 -------------------------------------------------------------------
      1        6           0.007526870    0.008139926    0.000159204
      2        6          -0.017161942    0.008335854    0.006271347
      3        1          -0.001498652   -0.000107229    0.001810050
      4        1          -0.003295756   -0.002953964   -0.001048855
      5        1          -0.002079928   -0.003417818    0.002672209
      6        6           0.003217000    0.012313814   -0.005793989
      7        8          -0.000765200    0.002385405   -0.007831163
      8        6           0.016306793    0.031260275   -0.006333694
      9        1           0.001065993   -0.007347138    0.001536387
     10        1          -0.001269238   -0.006081292   -0.000132088
     11        9          -0.014682038   -0.012224846    0.031681960
     12        9           0.032077431   -0.015081487   -0.001728321
     13        9          -0.019441332   -0.015221501   -0.021263048
 -------------------------------------------------------------------
 Cartesian Forces:  Max     0.032077431 RMS     0.012308076
 Leave Link  716 at Wed May 26 08:16:32 2021, MaxMem=  2147483648 cpu:         0.2
 (Enter /opt/cluster/programs/g09_d.01/g09/l103.exe)

 GradGradGradGradGradGradGradGradGradGradGradGradGradGradGradGradGradGrad
 Berny optimization.
 FormGI is forming the generalized inverse of G from B-inverse, IUseBI=4.
 Internal  Forces:  Max     0.036848127 RMS     0.009720734
 Search for a local minimum.
 Step number   1 out of a maximum of   64
 All quantities printed in internal units (Hartrees-Bohrs-Radians)
 RMS Force = .97207D-02 SwitMx=.10000D-02 MixMth= 1
 Mixed Optimization -- RFO/linear search
 Second derivative matrix not updated -- first step.
 ITU=  0
     Eigenvalues ---    0.00665   0.00722   0.00777   0.00796   0.04686
     Eigenvalues ---    0.05637   0.07350   0.07498   0.08443   0.08919
     Eigenvalues ---    0.09043   0.12528   0.16000   0.16000   0.16000
     Eigenvalues ---    0.21878   0.24992   0.25000   0.25000   0.25000
     Eigenvalues ---    0.25000   0.31590   0.32464   0.32616   0.34282
     Eigenvalues ---    0.34313   0.34409   0.34476   0.34629   0.54197
     Eigenvalues ---    0.54811   0.55638   0.90822
 RFO step:  Lambda=-1.28806552D-02 EMin= 6.65101471D-03
 Linear search not attempted -- first point.
 Iteration  1 RMS(Cart)=  0.07736808 RMS(Int)=  0.00163346
 Iteration  2 RMS(Cart)=  0.00210648 RMS(Int)=  0.00075828
 Iteration  3 RMS(Cart)=  0.00000731 RMS(Int)=  0.00075827
 Iteration  4 RMS(Cart)=  0.00000002 RMS(Int)=  0.00075827
 ITry= 1 IFail=0 DXMaxC= 1.98D-01 DCOld= 1.00D+10 DXMaxT= 3.00D-01 DXLimC= 3.00D+00 Rises=F
 Variable       Old X    -DE/DX   Delta X   Delta X   Delta X     New X
                                 (Linear)    (Quad)   (Total)
    R1        2.84900   0.00326   0.00000   0.00990   0.00990   2.85890
    R2        2.06281   0.00135   0.00000   0.00376   0.00376   2.06657
    R3        2.06645  -0.00059   0.00000  -0.00166  -0.00166   2.06479
    R4        2.06534  -0.00011   0.00000  -0.00031  -0.00031   2.06503
    R5        2.83303   0.02057   0.00000   0.06093   0.06093   2.89396
    R6        2.32557   0.00726   0.00000   0.00788   0.00788   2.33345
    R7        2.83031   0.01142   0.00000   0.03369   0.03369   2.86401
    R8        2.06857  -0.00163   0.00000  -0.00459  -0.00459   2.06399
    R9        2.06805  -0.00185   0.00000  -0.00520  -0.00520   2.06285
   R10        2.55300   0.03685   0.00000   0.06568   0.06568   2.61868
   R11        2.55853   0.03538   0.00000   0.06377   0.06377   2.62229
   R12        2.54569   0.03249   0.00000   0.05707   0.05707   2.60276
    A1        1.91447   0.00057   0.00000  -0.00461  -0.00466   1.90981
    A2        1.90441  -0.00046   0.00000  -0.00099  -0.00135   1.90306
    A3        1.92768   0.00510   0.00000   0.03565   0.03538   1.96306
    A4        1.91980  -0.00285   0.00000  -0.02899  -0.02914   1.89066
    A5        1.91315  -0.00363   0.00000  -0.02413  -0.02411   1.88904
    A6        1.88412   0.00127   0.00000   0.02332   0.02278   1.90690
    A7        2.06244   0.00381   0.00000   0.01478   0.01454   2.07698
    A8        2.10832   0.00195   0.00000   0.00768   0.00744   2.11576
    A9        2.11216  -0.00575   0.00000  -0.02160  -0.02183   2.09033
   A10        1.90468   0.01840   0.00000   0.08105   0.08177   1.98644
   A11        1.90803  -0.00150   0.00000   0.02076   0.02228   1.93030
   A12        1.90179  -0.00450   0.00000  -0.00672  -0.00536   1.89643
   A13        1.94302  -0.01043   0.00000  -0.06571  -0.06747   1.87555
   A14        1.93451  -0.00785   0.00000  -0.05229  -0.05336   1.88115
   A15        1.87113   0.00558   0.00000   0.02290   0.02022   1.89135
   A16        1.94598   0.00354   0.00000   0.01152   0.01133   1.95731
   A17        1.91928   0.00506   0.00000   0.02527   0.02511   1.94438
   A18        1.96396  -0.00187   0.00000  -0.01132  -0.01130   1.95266
   A19        1.86847  -0.00276   0.00000  -0.00237  -0.00272   1.86576
   A20        1.88773  -0.00316   0.00000  -0.02276  -0.02278   1.86495
   A21        1.87452  -0.00113   0.00000  -0.00094  -0.00089   1.87363
    D1       -1.69837  -0.00109   0.00000  -0.02241  -0.02251  -1.72088
    D2        1.41883  -0.00034   0.00000   0.01729   0.01753   1.43637
    D3        2.48067   0.00235   0.00000   0.01659   0.01658   2.49724
    D4       -0.68531   0.00309   0.00000   0.05630   0.05662  -0.62869
    D5        0.41222  -0.00197   0.00000  -0.03261  -0.03300   0.37922
    D6       -2.75376  -0.00122   0.00000   0.00710   0.00705  -2.74671
    D7        1.39248  -0.00029   0.00000   0.00345   0.00373   1.39621
    D8       -0.73638   0.00191   0.00000   0.02030   0.01931  -0.71707
    D9       -2.77616  -0.00139   0.00000  -0.01505  -0.01486  -2.79101
   D10       -1.72467  -0.00115   0.00000  -0.03677  -0.03614  -1.76081
   D11        2.42966   0.00104   0.00000  -0.01992  -0.02057   2.40909
   D12        0.38988  -0.00226   0.00000  -0.05527  -0.05473   0.33515
   D13       -1.04686   0.00065   0.00000  -0.00245  -0.00214  -1.04900
   D14       -3.11657  -0.00141   0.00000  -0.02307  -0.02296  -3.13952
   D15        1.07779  -0.00221   0.00000  -0.03176  -0.03153   1.04626
   D16        1.06074   0.00431   0.00000   0.03522   0.03383   1.09457
   D17       -1.00897   0.00225   0.00000   0.01460   0.01301  -0.99596
   D18       -3.09780   0.00145   0.00000   0.00591   0.00445  -3.09335
   D19       -3.14136  -0.00068   0.00000  -0.01355  -0.01220   3.12963
   D20        1.07212  -0.00274   0.00000  -0.03417  -0.03302   1.03910
   D21       -1.01671  -0.00354   0.00000  -0.04286  -0.04158  -1.05829
         Item               Value     Threshold  Converged?
 Maximum Force            0.036848     0.000450     NO 
 RMS     Force            0.009721     0.000300     NO 
 Maximum Displacement     0.198338     0.001800     NO 
 RMS     Displacement     0.078439     0.001200     NO 
 Predicted change in Energy=-6.746367D-03
 Lowest energy point so far.  Saving SCF results.
 GradGradGradGradGradGradGradGradGradGradGradGradGradGradGradGradGradGrad

 Leave Link  103 at Wed May 26 08:16:32 2021, MaxMem=  2147483648 cpu:         0.1
 (Enter /opt/cluster/programs/g09_d.01/g09/l202.exe)
                          Input orientation:                          
 ---------------------------------------------------------------------
 Center     Atomic      Atomic             Coordinates (Angstroms)
 Number     Number       Type             X           Y           Z
 ---------------------------------------------------------------------
      1          6           0       -3.113222    1.518875    1.382092
      2          6           0       -2.531806    1.313553    0.000586
      3          1           0       -3.759180    0.673227    1.634173
      4          1           0       -3.720682    2.427088    1.381743
      5          1           0       -2.342000    1.601407    2.151863
      6          6           0       -1.112636    0.753542   -0.132018
      7          8           0       -3.173477    1.604062   -1.013620
      8          6           0       -1.030630   -0.750908    0.031843
      9          1           0       -0.451772    1.200933    0.613659
     10          1           0       -0.730352    1.002193   -1.123809
     11          9           0       -1.482498   -1.166461    1.274191
     12          9           0        0.274956   -1.203704   -0.094701
     13          9           0       -1.787701   -1.411806   -0.910001
 ---------------------------------------------------------------------
                    Distance matrix (angstroms):
                    1          2          3          4          5
     1  C    0.000000
     2  C    1.512865   0.000000
     3  H    1.093584   2.141277   0.000000
     4  H    1.092638   2.135646   1.772352   0.000000
     5  H    1.092769   2.178733   1.771418   1.782021   0.000000
     6  C    2.623092   1.531417   3.182778   3.448788   2.728796
     7  O    2.397983   1.234809   2.867108   2.591249   3.272865
     8  C    3.363372   2.552744   3.469957   4.377016   3.427472
     9  H    2.788350   2.171424   3.501267   3.574799   2.469700
    10  H    3.496365   2.146263   4.109560   4.153335   3.699526
    11  F    3.143554   2.978856   2.949122   4.234930   3.028225
    12  F    4.590545   3.771415   4.773482   5.597112   4.445690
    13  F    3.949631   2.968239   3.834959   4.870894   4.331479
                    6          7          8          9         10
     6  C    0.000000
     7  O    2.397431   0.000000
     8  C    1.515567   3.351219   0.000000
     9  H    1.092215   3.196597   2.117373   0.000000
    10  H    1.091612   2.518581   2.121098   1.770846   0.000000
    11  F    2.408450   3.971056   1.385748   2.665193   3.319516
    12  F    2.399503   4.540887   1.387658   2.610016   2.633569
    13  F    2.397853   3.320628   1.377321   3.306456   2.644067
                   11         12         13
    11  F    0.000000
    12  F    2.227981   0.000000
    13  F    2.219017   2.227684   0.000000
 Stoichiometry    C4H5F3O
 Framework group  C1[X(C4H5F3O)]
 Deg. of freedom    33
 Full point group                 C1      NOp   1
 RotChk:  IX=0 Diff= 3.31D-02
 Largest Abelian subgroup         C1      NOp   1
 Largest concise Abelian subgroup C1      NOp   1
                         Standard orientation:                         
 ---------------------------------------------------------------------
 Center     Atomic      Atomic             Coordinates (Angstroms)
 Number     Number       Type             X           Y           Z
 ---------------------------------------------------------------------
      1          6           0        2.115572    1.130299   -0.032342
      2          6           0        1.482192   -0.224454    0.196209
      3          1           0        1.911683    1.459186   -1.055176
      4          1           0        3.197696    1.043229    0.091289
      5          1           0        1.734463    1.890713    0.653712
      6          6           0        0.128164   -0.300560    0.907584
      7          8           0        2.044238   -1.262958   -0.164853
      8          6           0       -1.053374    0.004074    0.008635
      9          1           0        0.093384    0.401338    1.743684
     10          1           0       -0.003579   -1.310427    1.300562
     11          9           0       -0.984741    1.278903   -0.530251
     12          9           0       -2.252071   -0.076334    0.703079
     13          9           0       -1.132397   -0.873294   -1.050135
 ---------------------------------------------------------------------
 Rotational constants (GHZ):      3.3885964      1.3707409      1.2251718
 Leave Link  202 at Wed May 26 08:16:32 2021, MaxMem=  2147483648 cpu:         0.0
 (Enter /opt/cluster/programs/g09_d.01/g09/l301.exe)
 Standard basis: 6-31+G (6D, 7F)
 Ernie: Thresh=  0.10000D-02 Tol=  0.10000D-05 Strict=F.
 There are   114 symmetry adapted cartesian basis functions of A   symmetry.
 There are   114 symmetry adapted basis functions of A   symmetry.
   114 basis functions,   228 primitive gaussians,   114 cartesian basis functions
    32 alpha electrons       32 beta electrons
       nuclear repulsion energy       404.3353163524 Hartrees.
 IExCor= 4639 DFT=T Ex+Corr=wB97XD ExCW=0 ScaHFX=  1.000000
 ScaDFX=  1.000000  1.000000  1.000000  1.000000 ScalE2=  1.000000  1.000000
 IRadAn=      0 IRanWt=     -1 IRanGd=            0 ICorTp=0 IEmpDi=121
  HFx wShort=  0.000000 wLong=  0.200000 cFull=  0.222036 cShort=  0.000000 cLong=  0.777964
  DFx wShort=  0.000000 wLong=  0.200000 cFull=  0.000000 cShort=  0.000000 cLong=  1.000000
 NAtoms=   13 NActive=   13 NUniq=   13 SFac= 1.00D+00 NAtFMM=   60 NAOKFM=F Big=F
 Integral buffers will be    131072 words long.
 Raffenetti 2 integral format.
 Two-electron integral symmetry is turned on.
 R6Disp:  Grimme-D2 Dispersion energy=       -0.0060246229 Hartrees.
 Nuclear repulsion after empirical dispersion term =      404.3292917295 Hartrees.
 Leave Link  301 at Wed May 26 08:16:32 2021, MaxMem=  2147483648 cpu:         0.3
 (Enter /opt/cluster/programs/g09_d.01/g09/l302.exe)
 NPDir=0 NMtPBC=     1 NCelOv=     1 NCel=       1 NClECP=     1 NCelD=      1
         NCelK=      1 NCelE2=     1 NClLst=     1 CellRange=     0.0.
 One-electron integrals computed using PRISM.
 NBasis=   114 RedAO= T EigKep=  9.86D-05  NBF=   114
 NBsUse=   114 1.00D-06 EigRej= -1.00D+00 NBFU=   114
 Precomputing XC quadrature grid using
 IXCGrd= 4 IRadAn=           0 IRanWt=          -1 IRanGd=           0 AccXCQ= 0.00D+00.
 Generated NRdTot=       0 NPtTot=           0 NUsed=           0 NTot=          32
 NSgBfM=   114   114   114   114   114 MxSgAt=    13 MxSgA2=    13.
 Leave Link  302 at Wed May 26 08:16:32 2021, MaxMem=  2147483648 cpu:         1.0
 (Enter /opt/cluster/programs/g09_d.01/g09/l303.exe)
 DipDrv:  MaxL=1.
 Leave Link  303 at Wed May 26 08:16:32 2021, MaxMem=  2147483648 cpu:         0.2
 (Enter /opt/cluster/programs/g09_d.01/g09/l401.exe)
 Initial guess from the checkpoint file:  "/home/unibas/boittier/RDKit_G2/N.pdb/OPT_wB97XD_6-31+G/N.pdb.chk"
 B after Tr=     0.000000    0.000000    0.000000
         Rot=    0.999902   -0.013368   -0.003039   -0.002724 Ang=  -1.60 deg.
 Guess basis will be translated and rotated to current coordinates.
 JPrj=2 DoOrth=T DoCkMO=T.
 Generating alternative initial guess.
 ExpMin= 4.38D-02 ExpMax= 7.00D+03 ExpMxC= 1.05D+03 IAcc=2 IRadAn=         4 AccDes= 0.00D+00
 Harris functional with IExCor= 4639 and IRadAn=       4 diagonalized for initial guess.
 HarFok:  IExCor= 4639 AccDes= 0.00D+00 IRadAn=         4 IDoV= 1 UseB2=F ITyADJ=14
 ICtDFT=  3500011 ScaDFX=  1.000000  1.000000  1.000000  1.000000
 FoFCou: FMM=F IPFlag=           0 FMFlag=      100000 FMFlg1=           0
         NFxFlg=           0 DoJE=T BraDBF=F KetDBF=T FulRan=T
         wScrn=  0.000000 ICntrl=     500 IOpCl=  0 I1Cent=   200000004 NGrid=           0
         NMat0=    1 NMatS0=      1 NMatT0=    0 NMatD0=    1 NMtDS0=    0 NMtDT0=    0
 Petite list used in FoFCou.
 Harris En= -511.188476171655    
 Leave Link  401 at Wed May 26 08:16:33 2021, MaxMem=  2147483648 cpu:         2.5
 (Enter /opt/cluster/programs/g09_d.01/g09/l502.exe)
 Closed shell SCF:
 Using DIIS extrapolation, IDIIS=  1040.
 Integral symmetry usage will be decided dynamically.
 Keep R1 ints in memory in canonical form, NReq=43969700.
 IVT=       59316 IEndB=       59316 NGot=  2147483648 MDV=  2104449753
 LenX=  2104449753 LenY=  2104436316
 Requested convergence on RMS density matrix=1.00D-08 within 128 cycles.
 Requested convergence on MAX density matrix=1.00D-06.
 Requested convergence on             energy=1.00D-06.
 No special actions if energy rises.
 FoFCou: FMM=F IPFlag=           0 FMFlag=           0 FMFlg1=           0
         NFxFlg=           0 DoJE=F BraDBF=F KetDBF=F FulRan=T
         wScrn=  0.000000 ICntrl=     600 IOpCl=  0 I1Cent=           0 NGrid=           0
         NMat0=    1 NMatS0=   6555 NMatT0=    0 NMatD0=    1 NMtDS0=    0 NMtDT0=    0
 Symmetry not used in FoFCou.

 Cycle   1  Pass 1  IDiag  1:
 E= -529.917249754902    
 DIIS: error= 3.56D-03 at cycle   1 NSaved=   1.
 NSaved= 1 IEnMin= 1 EnMin= -529.917249754902     IErMin= 1 ErrMin= 3.56D-03
 ErrMax= 3.56D-03  0.00D+00 EMaxC= 1.00D-01 BMatC= 4.63D-03 BMatP= 4.63D-03
 IDIUse=3 WtCom= 9.64D-01 WtEn= 3.56D-02
 Coeff-Com:  0.100D+01
 Coeff-En:   0.100D+01
 Coeff:      0.100D+01
 Gap=     0.640 Goal=   None    Shift=    0.000
 GapD=    0.640 DampG=2.000 DampE=1.000 DampFc=2.0000 IDamp=-1.
 RMSDP=2.24D-03 MaxDP=5.56D-02              OVMax= 1.96D-02

 Cycle   2  Pass 1  IDiag  1:
 E= -529.924318475242     Delta-E=       -0.007068720340 Rises=F Damp=F
 DIIS: error= 1.15D-03 at cycle   2 NSaved=   2.
 NSaved= 2 IEnMin= 2 EnMin= -529.924318475242     IErMin= 2 ErrMin= 1.15D-03
 ErrMax= 1.15D-03  0.00D+00 EMaxC= 1.00D-01 BMatC= 3.00D-04 BMatP= 4.63D-03
 IDIUse=3 WtCom= 9.89D-01 WtEn= 1.15D-02
 Coeff-Com: -0.376D-01 0.104D+01
 Coeff-En:   0.000D+00 0.100D+01
 Coeff:     -0.372D-01 0.104D+01
 Gap=     0.372 Goal=   None    Shift=    0.000
 RMSDP=5.99D-04 MaxDP=1.55D-02 DE=-7.07D-03 OVMax= 8.12D-03

 Cycle   3  Pass 1  IDiag  1:
 E= -529.924630276468     Delta-E=       -0.000311801226 Rises=F Damp=F
 DIIS: error= 1.27D-03 at cycle   3 NSaved=   3.
 NSaved= 3 IEnMin= 3 EnMin= -529.924630276468     IErMin= 2 ErrMin= 1.15D-03
 ErrMax= 1.27D-03  0.00D+00 EMaxC= 1.00D-01 BMatC= 3.20D-04 BMatP= 3.00D-04
 IDIUse=3 WtCom= 9.87D-01 WtEn= 1.27D-02
 Coeff-Com: -0.813D-01 0.563D+00 0.518D+00
 Coeff-En:   0.000D+00 0.000D+00 0.100D+01
 Coeff:     -0.803D-01 0.556D+00 0.524D+00
 Gap=     0.375 Goal=   None    Shift=    0.000
 RMSDP=3.91D-04 MaxDP=1.40D-02 DE=-3.12D-04 OVMax= 5.30D-03

 Cycle   4  Pass 1  IDiag  1:
 E= -529.924877810673     Delta-E=       -0.000247534205 Rises=F Damp=F
 DIIS: error= 3.14D-04 at cycle   4 NSaved=   4.
 NSaved= 4 IEnMin= 4 EnMin= -529.924877810673     IErMin= 4 ErrMin= 3.14D-04
 ErrMax= 3.14D-04  0.00D+00 EMaxC= 1.00D-01 BMatC= 2.25D-05 BMatP= 3.00D-04
 IDIUse=3 WtCom= 9.97D-01 WtEn= 3.14D-03
 Coeff-Com: -0.323D-01 0.109D+00 0.227D+00 0.696D+00
 Coeff-En:   0.000D+00 0.000D+00 0.000D+00 0.100D+01
 Coeff:     -0.322D-01 0.109D+00 0.227D+00 0.697D+00
 Gap=     0.375 Goal=   None    Shift=    0.000
 RMSDP=1.08D-04 MaxDP=2.86D-03 DE=-2.48D-04 OVMax= 1.97D-03

 Cycle   5  Pass 1  IDiag  1:
 E= -529.924901070029     Delta-E=       -0.000023259356 Rises=F Damp=F
 DIIS: error= 1.44D-04 at cycle   5 NSaved=   5.
 NSaved= 5 IEnMin= 5 EnMin= -529.924901070029     IErMin= 5 ErrMin= 1.44D-04
 ErrMax= 1.44D-04  0.00D+00 EMaxC= 1.00D-01 BMatC= 2.41D-06 BMatP= 2.25D-05
 IDIUse=3 WtCom= 9.99D-01 WtEn= 1.44D-03
 Coeff-Com:  0.110D-02-0.428D-01 0.518D-02 0.235D+00 0.801D+00
 Coeff-En:   0.000D+00 0.000D+00 0.000D+00 0.000D+00 0.100D+01
 Coeff:      0.110D-02-0.428D-01 0.517D-02 0.235D+00 0.801D+00
 Gap=     0.375 Goal=   None    Shift=    0.000
 RMSDP=4.15D-05 MaxDP=1.23D-03 DE=-2.33D-05 OVMax= 1.38D-03

 Cycle   6  Pass 1  IDiag  1:
 E= -529.924905388436     Delta-E=       -0.000004318407 Rises=F Damp=F
 DIIS: error= 6.47D-05 at cycle   6 NSaved=   6.
 NSaved= 6 IEnMin= 6 EnMin= -529.924905388436     IErMin= 6 ErrMin= 6.47D-05
 ErrMax= 6.47D-05  0.00D+00 EMaxC= 1.00D-01 BMatC= 7.31D-07 BMatP= 2.41D-06
 IDIUse=1 WtCom= 1.00D+00 WtEn= 0.00D+00
 Coeff-Com:  0.578D-02-0.399D-01-0.318D-01 0.856D-02 0.407D+00 0.650D+00
 Coeff:      0.578D-02-0.399D-01-0.318D-01 0.856D-02 0.407D+00 0.650D+00
 Gap=     0.375 Goal=   None    Shift=    0.000
 RMSDP=1.90D-05 MaxDP=3.40D-04 DE=-4.32D-06 OVMax= 7.47D-04

 Cycle   7  Pass 1  IDiag  1:
 E= -529.924906627149     Delta-E=       -0.000001238713 Rises=F Damp=F
 DIIS: error= 4.15D-05 at cycle   7 NSaved=   7.
 NSaved= 7 IEnMin= 7 EnMin= -529.924906627149     IErMin= 7 ErrMin= 4.15D-05
 ErrMax= 4.15D-05  0.00D+00 EMaxC= 1.00D-01 BMatC= 5.22D-08 BMatP= 7.31D-07
 IDIUse=1 WtCom= 1.00D+00 WtEn= 0.00D+00
 Coeff-Com: -0.121D-02 0.151D-01 0.388D-02-0.535D-01-0.224D+00-0.910D-01
 Coeff-Com:  0.135D+01
 Coeff:     -0.121D-02 0.151D-01 0.388D-02-0.535D-01-0.224D+00-0.910D-01
 Coeff:      0.135D+01
 Gap=     0.375 Goal=   None    Shift=    0.000
 RMSDP=1.78D-05 MaxDP=3.37D-04 DE=-1.24D-06 OVMax= 8.17D-04

 Cycle   8  Pass 1  IDiag  1:
 E= -529.924907053110     Delta-E=       -0.000000425961 Rises=F Damp=F
 DIIS: error= 1.30D-05 at cycle   8 NSaved=   8.
 NSaved= 8 IEnMin= 8 EnMin= -529.924907053110     IErMin= 8 ErrMin= 1.30D-05
 ErrMax= 1.30D-05  0.00D+00 EMaxC= 1.00D-01 BMatC= 7.65D-09 BMatP= 5.22D-08
 IDIUse=1 WtCom= 1.00D+00 WtEn= 0.00D+00
 Coeff-Com: -0.824D-03 0.757D-02 0.360D-02-0.135D-01-0.909D-01-0.789D-01
 Coeff-Com:  0.301D+00 0.872D+00
 Coeff:     -0.824D-03 0.757D-02 0.360D-02-0.135D-01-0.909D-01-0.789D-01
 Coeff:      0.301D+00 0.872D+00
 Gap=     0.375 Goal=   None    Shift=    0.000
 RMSDP=4.56D-06 MaxDP=8.31D-05 DE=-4.26D-07 OVMax= 2.09D-04

 Cycle   9  Pass 1  IDiag  1:
 E= -529.924907090015     Delta-E=       -0.000000036905 Rises=F Damp=F
 DIIS: error= 4.85D-06 at cycle   9 NSaved=   9.
 NSaved= 9 IEnMin= 9 EnMin= -529.924907090015     IErMin= 9 ErrMin= 4.85D-06
 ErrMax= 4.85D-06  0.00D+00 EMaxC= 1.00D-01 BMatC= 2.49D-09 BMatP= 7.65D-09
 IDIUse=1 WtCom= 1.00D+00 WtEn= 0.00D+00
 Coeff-Com:  0.379D-04-0.167D-02 0.253D-03 0.114D-01 0.311D-01-0.538D-02
 Coeff-Com: -0.281D+00 0.350D+00 0.896D+00
 Coeff:      0.379D-04-0.167D-02 0.253D-03 0.114D-01 0.311D-01-0.538D-02
 Coeff:     -0.281D+00 0.350D+00 0.896D+00
 Gap=     0.375 Goal=   None    Shift=    0.000
 RMSDP=2.60D-06 MaxDP=4.60D-05 DE=-3.69D-08 OVMax= 1.15D-04

 Cycle  10  Pass 1  IDiag  1:
 E= -529.924907098629     Delta-E=       -0.000000008614 Rises=F Damp=F
 DIIS: error= 1.08D-06 at cycle  10 NSaved=  10.
 NSaved=10 IEnMin=10 EnMin= -529.924907098629     IErMin=10 ErrMin= 1.08D-06
 ErrMax= 1.08D-06  0.00D+00 EMaxC= 1.00D-01 BMatC= 2.37D-10 BMatP= 2.49D-09
 IDIUse=1 WtCom= 1.00D+00 WtEn= 0.00D+00
 Coeff-Com:  0.950D-04-0.129D-02-0.277D-03 0.480D-02 0.202D-01 0.720D-02
 Coeff-Com: -0.123D+00 0.841D-02 0.286D+00 0.798D+00
 Coeff:      0.950D-04-0.129D-02-0.277D-03 0.480D-02 0.202D-01 0.720D-02
 Coeff:     -0.123D+00 0.841D-02 0.286D+00 0.798D+00
 Gap=     0.375 Goal=   None    Shift=    0.000
 RMSDP=6.23D-07 MaxDP=1.64D-05 DE=-8.61D-09 OVMax= 2.44D-05

 Cycle  11  Pass 1  IDiag  1:
 E= -529.924907099217     Delta-E=       -0.000000000588 Rises=F Damp=F
 DIIS: error= 2.83D-07 at cycle  11 NSaved=  11.
 NSaved=11 IEnMin=11 EnMin= -529.924907099217     IErMin=11 ErrMin= 2.83D-07
 ErrMax= 2.83D-07  0.00D+00 EMaxC= 1.00D-01 BMatC= 2.32D-11 BMatP= 2.37D-10
 IDIUse=1 WtCom= 1.00D+00 WtEn= 0.00D+00
 Coeff-Com:  0.138D-04-0.239D-04-0.104D-03-0.786D-03-0.703D-03 0.240D-02
 Coeff-Com:  0.195D-01-0.564D-01-0.837D-01 0.181D+00 0.939D+00
 Coeff:      0.138D-04-0.239D-04-0.104D-03-0.786D-03-0.703D-03 0.240D-02
 Coeff:      0.195D-01-0.564D-01-0.837D-01 0.181D+00 0.939D+00
 Gap=     0.375 Goal=   None    Shift=    0.000
 RMSDP=2.54D-07 MaxDP=9.28D-06 DE=-5.88D-10 OVMax= 7.17D-06

 Cycle  12  Pass 1  IDiag  1:
 E= -529.924907099282     Delta-E=       -0.000000000065 Rises=F Damp=F
 DIIS: error= 5.31D-08 at cycle  12 NSaved=  12.
 NSaved=12 IEnMin=12 EnMin= -529.924907099282     IErMin=12 ErrMin= 5.31D-08
 ErrMax= 5.31D-08  0.00D+00 EMaxC= 1.00D-01 BMatC= 7.48D-13 BMatP= 2.32D-11
 IDIUse=1 WtCom= 1.00D+00 WtEn= 0.00D+00
 Coeff-Com: -0.383D-05 0.735D-04 0.192D-05-0.351D-03-0.131D-02-0.729D-04
 Coeff-Com:  0.939D-02-0.693D-02-0.260D-01-0.262D-01 0.106D+00 0.945D+00
 Coeff:     -0.383D-05 0.735D-04 0.192D-05-0.351D-03-0.131D-02-0.729D-04
 Coeff:      0.939D-02-0.693D-02-0.260D-01-0.262D-01 0.106D+00 0.945D+00
 Gap=     0.375 Goal=   None    Shift=    0.000
 RMSDP=3.47D-08 MaxDP=7.15D-07 DE=-6.53D-11 OVMax= 7.61D-07

 Cycle  13  Pass 1  IDiag  1:
 E= -529.924907099284     Delta-E=       -0.000000000002 Rises=F Damp=F
 DIIS: error= 2.34D-08 at cycle  13 NSaved=  13.
 NSaved=13 IEnMin=13 EnMin= -529.924907099284     IErMin=13 ErrMin= 2.34D-08
 ErrMax= 2.34D-08  0.00D+00 EMaxC= 1.00D-01 BMatC= 7.85D-14 BMatP= 7.48D-13
 IDIUse=1 WtCom= 1.00D+00 WtEn= 0.00D+00
 Coeff-Com: -0.193D-05 0.204D-04 0.726D-05-0.440D-04-0.293D-03-0.173D-03
 Coeff-Com:  0.126D-02 0.144D-02-0.166D-02-0.168D-01-0.270D-01 0.227D+00
 Coeff-Com:  0.816D+00
 Coeff:     -0.193D-05 0.204D-04 0.726D-05-0.440D-04-0.293D-03-0.173D-03
 Coeff:      0.126D-02 0.144D-02-0.166D-02-0.168D-01-0.270D-01 0.227D+00
 Coeff:      0.816D+00
 Gap=     0.375 Goal=   None    Shift=    0.000
 RMSDP=7.21D-09 MaxDP=9.99D-08 DE=-2.05D-12 OVMax= 1.38D-07

 SCF Done:  E(RwB97XD) =  -529.924907099     A.U. after   13 cycles
            NFock= 13  Conv=0.72D-08     -V/T= 2.0052
 KE= 5.271958834227D+02 PE=-2.059014711177D+03 EE= 5.975646289260D+02
 Leave Link  502 at Wed May 26 08:16:36 2021, MaxMem=  2147483648 cpu:        27.6
 (Enter /opt/cluster/programs/g09_d.01/g09/l701.exe)
 Compute integral first derivatives.
 ... and contract with generalized density number  0.
 R6Disp: Adding Grimme-D2 dispersion energy 1st derivatives to the gradient.
 Leave Link  701 at Wed May 26 08:16:37 2021, MaxMem=  2147483648 cpu:         0.6
 (Enter /opt/cluster/programs/g09_d.01/g09/l702.exe)
 L702 exits ... SP integral derivatives will be done elsewhere.
 Leave Link  702 at Wed May 26 08:16:37 2021, MaxMem=  2147483648 cpu:         0.2
 (Enter /opt/cluster/programs/g09_d.01/g09/l703.exe)
 Compute integral first derivatives, UseDBF=F ICtDFT=           0.
 Integral derivatives from FoFJK, PRISM(SPDF).
 Calling FoFJK, ICntrl=      2127 FMM=F ISym2X=0 I1Cent= 0 IOpClX= 0 NMat=1 NMatS=1 NMatT=0.
 FoFJK:  IHMeth= 1 ICntrl=    2127 DoSepK=T KAlg= 0 I1Cent=   0 FoldK=F
 IRaf=         1 NMat=   1 IRICut=       1 DoRegI=T DoRafI=F ISym2E= 0.
 FoFCou: FMM=F IPFlag=           0 FMFlag=      100000 FMFlg1=         800
         NFxFlg=           0 DoJE=F BraDBF=F KetDBF=F FulRan=T
         wScrn=  0.000000 ICntrl=    2527 IOpCl=  0 I1Cent=           0 NGrid=           0
         NMat0=    1 NMatS0=      1 NMatT0=    0 NMatD0=    1 NMtDS0=    0 NMtDT0=    0
 Symmetry not used in FoFCou.
 Leave Link  703 at Wed May 26 08:16:38 2021, MaxMem=  2147483648 cpu:         8.4
 (Enter /opt/cluster/programs/g09_d.01/g09/l716.exe)
 Dipole        = 4.31596862D-01 8.88950866D-01 9.22869468D-01
 ***** Axes restored to original set *****
 -------------------------------------------------------------------
 Center     Atomic                   Forces (Hartrees/Bohr)
 Number     Number              X              Y              Z
 -------------------------------------------------------------------
      1        6           0.004694909    0.001381607   -0.002360305
      2        6          -0.003500059    0.001178138    0.002308592
      3        1          -0.000681481   -0.001299255    0.000343385
      4        1          -0.001227571   -0.000930365   -0.000639773
      5        1          -0.000037083   -0.001293739   -0.000521127
      6        6           0.001506307   -0.003288886   -0.000393666
      7        8           0.003088570   -0.000487907    0.000941590
      8        6           0.000123273    0.012701588   -0.001978817
      9        1          -0.000176616    0.000024803    0.001467056
     10        1          -0.000907587   -0.000951691   -0.001012269
     11        9          -0.001702013   -0.002028665    0.006383542
     12        9           0.002029397   -0.000456918   -0.000032643
     13        9          -0.003210045   -0.004548710   -0.004505565
 -------------------------------------------------------------------
 Cartesian Forces:  Max     0.012701588 RMS     0.003008443
 Leave Link  716 at Wed May 26 08:16:38 2021, MaxMem=  2147483648 cpu:         0.2
 (Enter /opt/cluster/programs/g09_d.01/g09/l103.exe)

 GradGradGradGradGradGradGradGradGradGradGradGradGradGradGradGradGradGrad
 Berny optimization.
 Using GEDIIS/GDIIS optimizer.
 FormGI is forming the generalized inverse of G from B-inverse, IUseBI=4.
 Internal  Forces:  Max     0.007028958 RMS     0.002021393
 Search for a local minimum.
 Step number   2 out of a maximum of   64
 All quantities printed in internal units (Hartrees-Bohrs-Radians)
 RMS Force = .20214D-02 SwitMx=.10000D-02 MixMth= 1
 Mixed Optimization -- RFO/linear search
 Update second derivatives using D2CorX and points    1    2
 DE= -6.39D-03 DEPred=-6.75D-03 R= 9.47D-01
 TightC=F SS=  1.41D+00  RLast= 2.32D-01 DXNew= 5.0454D-01 6.9522D-01
 Trust test= 9.47D-01 RLast= 2.32D-01 DXMaxT set to 5.05D-01
 ITU=  1  0
 Use linear search instead of GDIIS.
     Eigenvalues ---    0.00664   0.00734   0.00770   0.00798   0.04316
     Eigenvalues ---    0.05762   0.07030   0.07498   0.08568   0.08633
     Eigenvalues ---    0.09498   0.12945   0.15992   0.16000   0.16075
     Eigenvalues ---    0.22611   0.24665   0.24999   0.25000   0.25000
     Eigenvalues ---    0.25555   0.31479   0.32347   0.34233   0.34304
     Eigenvalues ---    0.34408   0.34467   0.34570   0.36047   0.47842
     Eigenvalues ---    0.54826   0.55443   0.91210
 RFO step:  Lambda=-1.26885742D-03 EMin= 6.64395716D-03
 Quartic linear search produced a step of  0.03128.
 Iteration  1 RMS(Cart)=  0.06899200 RMS(Int)=  0.00155644
 Iteration  2 RMS(Cart)=  0.00233682 RMS(Int)=  0.00013553
 Iteration  3 RMS(Cart)=  0.00000313 RMS(Int)=  0.00013551
 Iteration  4 RMS(Cart)=  0.00000000 RMS(Int)=  0.00013551
 ITry= 1 IFail=0 DXMaxC= 1.73D-01 DCOld= 1.00D+10 DXMaxT= 5.05D-01 DXLimC= 3.00D+00 Rises=F
 Variable       Old X    -DE/DX   Delta X   Delta X   Delta X     New X
                                 (Linear)    (Quad)   (Total)
    R1        2.85890  -0.00423   0.00031  -0.01311  -0.01280   2.84610
    R2        2.06657   0.00149   0.00012   0.00466   0.00478   2.07135
    R3        2.06479  -0.00009  -0.00005  -0.00039  -0.00044   2.06434
    R4        2.06503  -0.00048  -0.00001  -0.00146  -0.00147   2.06356
    R5        2.89396  -0.00270   0.00191  -0.00457  -0.00266   2.89130
    R6        2.33345  -0.00249   0.00025  -0.00232  -0.00207   2.33138
    R7        2.86401  -0.00580   0.00105  -0.01607  -0.01502   2.84899
    R8        2.06399   0.00090  -0.00014   0.00239   0.00225   2.06624
    R9        2.06285   0.00039  -0.00016   0.00083   0.00067   2.06351
   R10        2.61868   0.00688   0.00205   0.01718   0.01923   2.63791
   R11        2.62229   0.00206   0.00199   0.00805   0.01004   2.63234
   R12        2.60276   0.00703   0.00179   0.01670   0.01848   2.62124
    A1        1.90981  -0.00047  -0.00015  -0.00711  -0.00728   1.90253
    A2        1.90306   0.00012  -0.00004   0.00300   0.00290   1.90596
    A3        1.96306  -0.00043   0.00111   0.00106   0.00211   1.96516
    A4        1.89066  -0.00036  -0.00091  -0.00733  -0.00826   1.88240
    A5        1.88904  -0.00020  -0.00075  -0.00709  -0.00786   1.88118
    A6        1.90690   0.00133   0.00071   0.01707   0.01769   1.92459
    A7        2.07698  -0.00218   0.00045  -0.00775  -0.00774   2.06925
    A8        2.11576   0.00339   0.00023   0.01465   0.01443   2.13020
    A9        2.09033  -0.00121  -0.00068  -0.00614  -0.00725   2.08308
   A10        1.98644  -0.00262   0.00256  -0.01059  -0.00807   1.97837
   A11        1.93030   0.00065   0.00070  -0.00095  -0.00037   1.92993
   A12        1.89643   0.00066  -0.00017   0.00447   0.00434   1.90077
   A13        1.87555   0.00005  -0.00211  -0.01139  -0.01362   1.86194
   A14        1.88115   0.00087  -0.00167   0.00262   0.00095   1.88210
   A15        1.89135   0.00053   0.00063   0.01732   0.01787   1.90922
   A16        1.95731  -0.00032   0.00035  -0.00084  -0.00052   1.95679
   A17        1.94438  -0.00102   0.00079  -0.00478  -0.00400   1.94038
   A18        1.95266   0.00270  -0.00035   0.01280   0.01243   1.96509
   A19        1.86576  -0.00004  -0.00008  -0.00493  -0.00505   1.86071
   A20        1.86495  -0.00062  -0.00071  -0.00002  -0.00076   1.86418
   A21        1.87363  -0.00081  -0.00003  -0.00286  -0.00288   1.87075
    D1       -1.72088   0.00054  -0.00070   0.05919   0.05865  -1.66224
    D2        1.43637   0.00007   0.00055   0.00331   0.00369   1.44006
    D3        2.49724   0.00117   0.00052   0.07043   0.07114   2.56838
    D4       -0.62869   0.00070   0.00177   0.01455   0.01619  -0.61250
    D5        0.37922  -0.00031  -0.00103   0.04605   0.04516   0.42438
    D6       -2.74671  -0.00079   0.00022  -0.00983  -0.00980  -2.75651
    D7        1.39621  -0.00140   0.00012  -0.12278  -0.12247   1.27374
    D8       -0.71707  -0.00009   0.00060  -0.09980  -0.09903  -0.81610
    D9       -2.79101  -0.00152  -0.00046  -0.12314  -0.12344  -2.91445
   D10       -1.76081  -0.00090  -0.00113  -0.06754  -0.06883  -1.82965
   D11        2.40909   0.00041  -0.00064  -0.04456  -0.04539   2.36370
   D12        0.33515  -0.00102  -0.00171  -0.06790  -0.06980   0.26535
   D13       -1.04900  -0.00041  -0.00007  -0.00335  -0.00345  -1.05245
   D14       -3.13952   0.00056  -0.00072   0.00684   0.00608  -3.13344
   D15        1.04626   0.00045  -0.00099   0.00502   0.00401   1.05027
   D16        1.09457  -0.00128   0.00106  -0.01984  -0.01878   1.07579
   D17       -0.99596  -0.00031   0.00041  -0.00964  -0.00924  -1.00520
   D18       -3.09335  -0.00042   0.00014  -0.01147  -0.01132  -3.10467
   D19        3.12963  -0.00020  -0.00038  -0.00414  -0.00449   3.12514
   D20        1.03910   0.00078  -0.00103   0.00606   0.00505   1.04415
   D21       -1.05829   0.00067  -0.00130   0.00424   0.00297  -1.05532
         Item               Value     Threshold  Converged?
 Maximum Force            0.007029     0.000450     NO 
 RMS     Force            0.002021     0.000300     NO 
 Maximum Displacement     0.173290     0.001800     NO 
 RMS     Displacement     0.069129     0.001200     NO 
 Predicted change in Energy=-6.757534D-04
 Lowest energy point so far.  Saving SCF results.
 GradGradGradGradGradGradGradGradGradGradGradGradGradGradGradGradGradGrad

 Leave Link  103 at Wed May 26 08:16:38 2021, MaxMem=  2147483648 cpu:         0.1
 (Enter /opt/cluster/programs/g09_d.01/g09/l202.exe)
                          Input orientation:                          
 ---------------------------------------------------------------------
 Center     Atomic      Atomic             Coordinates (Angstroms)
 Number     Number       Type             X           Y           Z
 ---------------------------------------------------------------------
      1          6           0       -3.100331    1.476326    1.368361
      2          6           0       -2.507571    1.362672   -0.011504
      3          1           0       -3.726109    0.597388    1.561570
      4          1           0       -3.741140    2.359934    1.412490
      5          1           0       -2.338822    1.521832    2.149692
      6          6           0       -1.103564    0.772591   -0.158126
      7          8           0       -3.133888    1.691588   -1.022240
      8          6           0       -1.055917   -0.718153    0.061709
      9          1           0       -0.421036    1.219196    0.570048
     10          1           0       -0.738919    0.973637   -1.167582
     11          9           0       -1.486222   -1.074760    1.340878
     12          9           0        0.242253   -1.205250   -0.071943
     13          9           0       -1.849732   -1.415001   -0.837353
 ---------------------------------------------------------------------
                    Distance matrix (angstroms):
                    1          2          3          4          5
     1  C    0.000000
     2  C    1.506090   0.000000
     3  H    1.096111   2.131913   0.000000
     4  H    1.092404   2.131661   1.768903   0.000000
     5  H    1.091991   2.173608   1.767781   1.792310   0.000000
     6  C    2.610073   1.530010   3.140986   3.455907   2.722728
     7  O    2.400508   1.233712   2.867764   2.596796   3.274462
     8  C    3.271499   2.538206   3.333190   4.302284   3.320098
     9  H    2.807497   2.170810   3.506176   3.610274   2.502952
    10  H    3.501423   2.148486   4.063636   4.194271   3.723508
    11  F    3.018964   2.968697   2.803905   4.109368   2.850158
    12  F    4.520861   3.762898   4.654650   5.548107   4.362864
    13  F    3.845639   2.971572   3.650387   4.784281   4.217420
                    6          7          8          9         10
     6  C    0.000000
     7  O    2.390285   0.000000
     8  C    1.507619   3.361511   0.000000
     9  H    1.093407   3.180896   2.101143   0.000000
    10  H    1.091964   2.504486   2.115135   1.783453   0.000000
    11  F    2.409595   3.993972   1.395924   2.644056   3.323667
    12  F    2.393847   4.548962   1.392972   2.594232   2.628815
    13  F    2.409081   3.366620   1.387102   3.310731   2.654910
                   11         12         13
    11  F    0.000000
    12  F    2.236228   0.000000
    13  F    2.234411   2.237465   0.000000
 Stoichiometry    C4H5F3O
 Framework group  C1[X(C4H5F3O)]
 Deg. of freedom    33
 Full point group                 C1      NOp   1
 RotChk:  IX=2 Diff= 8.26D-02
 Largest Abelian subgroup         C1      NOp   1
 Largest concise Abelian subgroup C1      NOp   1
                         Standard orientation:                         
 ---------------------------------------------------------------------
 Center     Atomic      Atomic             Coordinates (Angstroms)
 Number     Number       Type             X           Y           Z
 ---------------------------------------------------------------------
      1          6           0        2.018835    1.162264   -0.021945
      2          6           0        1.486811   -0.227740    0.208595
      3          1           0        1.755884    1.481334   -1.037085
      4          1           0        3.108586    1.146843    0.052561
      5          1           0        1.602225    1.892000    0.675454
      6          6           0        0.127760   -0.386549    0.893205
      7          8           0        2.092750   -1.232343   -0.173053
      8          6           0       -1.034329   -0.012453    0.008605
      9          1           0        0.066521    0.252061    1.778623
     10          1           0        0.000473   -1.429888    1.189225
     11          9           0       -0.971411    1.318756   -0.406759
     12          9           0       -2.246030   -0.163604    0.678909
     13          9           0       -1.101464   -0.788123   -1.139385
 ---------------------------------------------------------------------
 Rotational constants (GHZ):      3.3633838      1.3906364      1.2405654
 Leave Link  202 at Wed May 26 08:16:38 2021, MaxMem=  2147483648 cpu:         0.0
 (Enter /opt/cluster/programs/g09_d.01/g09/l301.exe)
 Standard basis: 6-31+G (6D, 7F)
 Ernie: Thresh=  0.10000D-02 Tol=  0.10000D-05 Strict=F.
 There are   114 symmetry adapted cartesian basis functions of A   symmetry.
[...]
   A16        1.97456   0.00001   0.00000   0.00019   0.00019   1.97475
   A17        1.94016   0.00000   0.00000   0.00001   0.00001   1.94017
   A18        1.96214  -0.00002   0.00000  -0.00024  -0.00024   1.96190
   A19        1.85556   0.00001   0.00000   0.00017   0.00017   1.85573
   A20        1.85893   0.00000   0.00000  -0.00004  -0.00004   1.85889
   A21        1.86525   0.00000   0.00000  -0.00009  -0.00009   1.86516
    D1       -1.16422  -0.00001   0.00000  -0.00035  -0.00035  -1.16458
    D2        2.03142  -0.00001   0.00000  -0.00024  -0.00024   2.03118
    D3        3.02197   0.00000   0.00000  -0.00015  -0.00015   3.02182
    D4       -0.06557   0.00001   0.00000  -0.00004  -0.00004  -0.06561
    D5        0.90681   0.00000   0.00000  -0.00019  -0.00019   0.90661
    D6       -2.18074   0.00000   0.00000  -0.00008  -0.00008  -2.18082
    D7        0.65363   0.00000   0.00000  -0.00055  -0.00055   0.65308
    D8       -1.46828   0.00000   0.00000  -0.00055  -0.00055  -1.46883
    D9        2.78276   0.00000   0.00000  -0.00050  -0.00050   2.78226
   D10       -2.53957   0.00000   0.00000  -0.00066  -0.00066  -2.54023
   D11        1.62170   0.00000   0.00000  -0.00066  -0.00066   1.62104
   D12       -0.41044  -0.00001   0.00000  -0.00061  -0.00061  -0.41105
   D13       -1.19644   0.00002   0.00000   0.00034   0.00034  -1.19609
   D14        3.00044   0.00000   0.00000  -0.00001  -0.00001   3.00043
   D15        0.91021   0.00001   0.00000   0.00026   0.00026   0.91046
   D16        0.93490   0.00001   0.00000   0.00024   0.00024   0.93513
   D17       -1.15141  -0.00001   0.00000  -0.00012  -0.00012  -1.15153
   D18        3.04154   0.00000   0.00000   0.00015   0.00015   3.04169
   D19        2.96220   0.00001   0.00000   0.00009   0.00009   2.96229
   D20        0.87589  -0.00001   0.00000  -0.00026  -0.00026   0.87563
   D21       -1.21434   0.00000   0.00000   0.00000   0.00000  -1.21434
         Item               Value     Threshold  Converged?
 Maximum Force            0.000082     0.000450     YES
 RMS     Force            0.000019     0.000300     YES
 Maximum Displacement     0.001139     0.001800     YES
 RMS     Displacement     0.000338     0.001200     YES
 Predicted change in Energy=-5.682971D-08
 Optimization completed.
    -- Stationary point found.
                           ----------------------------
                           !   Optimized Parameters   !
                           ! (Angstroms and Degrees)  !
 --------------------------                            --------------------------
 ! Name  Definition              Value          Derivative Info.                !
 --------------------------------------------------------------------------------
 ! R1    R(1,2)                  1.5008         -DE/DX =    0.0                 !
 ! R2    R(1,3)                  1.0954         -DE/DX =    0.0                 !
 ! R3    R(1,4)                  1.0903         -DE/DX =    0.0                 !
 ! R4    R(1,5)                  1.0949         -DE/DX =    0.0                 !
 ! R5    R(2,6)                  1.5296         -DE/DX =    0.0                 !
 ! R6    R(2,7)                  1.2344         -DE/DX =    0.0                 !
 ! R7    R(6,8)                  1.5002         -DE/DX =    0.0                 !
 ! R8    R(6,9)                  1.0965         -DE/DX =    0.0                 !
 ! R9    R(6,10)                 1.0922         -DE/DX =    0.0                 !
 ! R10   R(8,11)                 1.395          -DE/DX =   -0.0001              !
 ! R11   R(8,12)                 1.3899         -DE/DX =    0.0                 !
 ! R12   R(8,13)                 1.3925         -DE/DX =    0.0001              !
 ! A1    A(2,1,3)              110.6768         -DE/DX =    0.0                 !
 ! A2    A(2,1,4)              109.0627         -DE/DX =    0.0                 !
 ! A3    A(2,1,5)              110.916          -DE/DX =    0.0                 !
 ! A4    A(3,1,4)              109.1964         -DE/DX =    0.0                 !
 ! A5    A(3,1,5)              107.0443         -DE/DX =    0.0                 !
 ! A6    A(4,1,5)              109.915          -DE/DX =    0.0                 !
 ! A7    A(1,2,6)              119.9323         -DE/DX =    0.0                 !
 ! A8    A(1,2,7)              122.2909         -DE/DX =    0.0                 !
 ! A9    A(6,2,7)              117.7075         -DE/DX =    0.0                 !
 ! A10   A(2,6,8)              116.6249         -DE/DX =    0.0                 !
 ! A11   A(2,6,9)              108.5565         -DE/DX =    0.0                 !
 ! A12   A(2,6,10)             107.7974         -DE/DX =    0.0                 !
 ! A13   A(8,6,9)              107.5269         -DE/DX =    0.0                 !
 ! A14   A(8,6,10)             108.2977         -DE/DX =    0.0                 !
 ! A15   A(9,6,10)             107.7309         -DE/DX =    0.0                 !
 ! A16   A(6,8,11)             113.1338         -DE/DX =    0.0                 !
 ! A17   A(6,8,12)             111.1628         -DE/DX =    0.0                 !
 ! A18   A(6,8,13)             112.4224         -DE/DX =    0.0                 !
 ! A19   A(11,8,12)            106.3156         -DE/DX =    0.0                 !
 ! A20   A(11,8,13)            106.5088         -DE/DX =    0.0                 !
 ! A21   A(12,8,13)            106.8707         -DE/DX =    0.0                 !
 ! D1    D(3,1,2,6)            -66.705          -DE/DX =    0.0                 !
 ! D2    D(3,1,2,7)            116.3919         -DE/DX =    0.0                 !
 ! D3    D(4,1,2,6)            173.1461         -DE/DX =    0.0                 !
 ! D4    D(4,1,2,7)             -3.757          -DE/DX =    0.0                 !
 ! D5    D(5,1,2,6)             51.9562         -DE/DX =    0.0                 !
 ! D6    D(5,1,2,7)           -124.9469         -DE/DX =    0.0                 !
 ! D7    D(1,2,6,8)             37.4501         -DE/DX =    0.0                 !
 ! D8    D(1,2,6,9)            -84.1263         -DE/DX =    0.0                 !
 ! D9    D(1,2,6,10)           159.4403         -DE/DX =    0.0                 !
 ! D10   D(7,2,6,8)           -145.5068         -DE/DX =    0.0                 !
 ! D11   D(7,2,6,9)             92.9168         -DE/DX =    0.0                 !
 ! D12   D(7,2,6,10)           -23.5166         -DE/DX =    0.0                 !
 ! D13   D(2,6,8,11)           -68.5507         -DE/DX =    0.0                 !
 ! D14   D(2,6,8,12)           171.9127         -DE/DX =    0.0                 !
 ! D15   D(2,6,8,13)            52.1511         -DE/DX =    0.0                 !
 ! D16   D(9,6,8,11)            53.5656         -DE/DX =    0.0                 !
 ! D17   D(9,6,8,12)           -65.971          -DE/DX =    0.0                 !
 ! D18   D(9,6,8,13)           174.2674         -DE/DX =    0.0                 !
 ! D19   D(10,6,8,11)          169.7214         -DE/DX =    0.0                 !
 ! D20   D(10,6,8,12)           50.1848         -DE/DX =    0.0                 !
 ! D21   D(10,6,8,13)          -69.5768         -DE/DX =    0.0                 !
 --------------------------------------------------------------------------------
 GradGradGradGradGradGradGradGradGradGradGradGradGradGradGradGradGradGrad

 Leave Link  103 at Wed May 26 08:18:12 2021, MaxMem=  2147483648 cpu:         0.1
 (Enter /opt/cluster/programs/g09_d.01/g09/l9999.exe)
 1\1\GINC-NODE05\Freq\RwB97XD\6-31+G\C4H5F3O1\BOITTIER\26-May-2021\0\\#
 P Geom=AllCheck Guess=TCheck SCRF=Check GenChk RwB97XD/6-31+G Freq\\N.
 pdb\\0,1\C,-3.1821500436,1.2986085909,1.262904582\C,-2.3904884969,1.53
 94497133,0.0108660383\H,-3.6013047229,0.2865484877,1.2668308752\H,-3.9
 949572287,2.0234906009,1.3152621625\H,-2.5466098544,1.386189345,2.1501
 22775\C,-1.0956231902,0.7630553057,-0.2346143871\O,-2.7147516701,2.392
 2331712,-0.8205392605\C,-1.0783205411,-0.671416566,0.2042648919\H,-0.2
 771798747,1.2767775581,0.2835032567\H,-0.8842369526,0.7965378626,-1.30
 56395665\F,-1.1102239748,-0.8207458308,1.5908816458\F,0.0736856981,-1.
 3156196115,-0.2314408485\F,-2.1588391483,-1.3931086272,-0.2964021648\\
 Version=ES64L-G09RevD.01\State=1-A\HF=-529.9278839\RMSD=9.017e-10\RMSF
 =3.681e-05\ZeroPoint=0.0910749\Thermal=0.0990223\Dipole=0.2259462,0.26
 55557,0.6270678\DipoleDeriv=-0.1388501,-0.0030019,0.1886678,-0.0037371
 ,-0.067607,0.0991804,0.1732634,0.1021685,-0.2911959,0.829027,-0.448977
 5,-0.1983095,-0.4162916,0.6936157,-0.316813,-0.1861937,-0.3559106,0.86
 00269,0.1207094,-0.0387319,0.02512,-0.0522798,-0.0114746,-0.019048,-0.
 0130672,-0.0320524,0.0955,0.0052643,0.0773811,0.0442855,0.105414,0.037
 8239,-0.0219075,0.0097009,0.0199097,0.0830782,0.0136486,-0.0289584,-0.
 0888268,-0.0043188,0.1378502,-0.0214544,-0.0501687,0.0072262,0.0210813
 ,-0.3477745,0.2085349,0.0727324,0.1503227,-0.2247546,0.0275081,0.07460
 29,0.0468507,-0.1273333,-0.54414,0.1977272,-0.0075123,0.1901936,-0.709
 2675,0.2694326,-0.0198114,0.2939728,-0.7137518,1.6280391,-0.0954471,-0
 .0003042,-0.1658103,1.6516968,0.0642638,0.0142951,0.055454,1.5892979,0
 .0712548,-0.0004918,-0.0407901,-0.0004184,0.0470701,-0.0112516,-0.0630
 086,-0.0287042,0.0876711,0.1042928,0.0229477,0.0092455,0.0370935,0.067
 3864,0.0052829,0.0396772,-0.0107859,0.0293471,-0.3615894,0.0369005,0.0
 020736,0.0398443,-0.4392099,0.1261858,0.0142272,0.040677,-0.8482624,-0
 .7445995,0.2371021,0.1382583,0.3334087,-0.5915479,-0.0844676,0.1283283
 ,-0.0608447,-0.3851148,-0.6352825,-0.164985,-0.1446402,-0.2134208,-0.5
 915818,-0.1169114,-0.1218454,-0.077961,-0.4003443\Polar=49.0177946,-5.
 8135843,49.4303804,-1.5272899,-4.9401354,49.9170359\PG=C01 [X(C4H5F3O1
 )]\NImag=0\\0.56368955,-0.04396509,0.58263226,0.03517906,-0.00545214,0
 .51472082,-0.13734644,-0.00020152,0.05404949,0.44955189,-0.00702242,-0
 .09083747,0.00596733,-0.15155777,0.56256344,0.05789366,-0.00166145,-0.
 16427907,-0.01414586,-0.28242238,0.65247410,-0.08839939,-0.09540909,0.
 00345093,-0.00619534,-0.01786365,-0.00312422,0.09440032,-0.09532153,-0
 .27926466,-0.00251566,0.00018286,-0.00438380,0.00183965,0.10391001,0.3
 0634882,0.00506191,0.00114074,-0.04287973,0.01136202,0.03202694,0.0003
 9043,-0.00338316,-0.00015468,0.04991135,-0.20417941,0.13771934,0.00949
 243,-0.01820373,0.01489137,0.00054097,0.01079226,-0.01063420,-0.000960
 17,0.22132703,0.14073823,-0.17587135,-0.00989213,-0.00645421,0.0026676
 5,0.00306793,0.02432743,-0.01775576,-0.00145079,-0.15232127,0.18683981
 ,0.00555323,-0.00611270,-0.05200239,0.02759230,-0.02314394,-0.00416404
 ,-0.00023015,-0.00043542,-0.00036442,-0.01280420,0.00801183,0.05453968
 ,-0.14231986,-0.01013722,-0.12549299,0.01418992,0.00380891,0.01780685,
 -0.00791333,0.00045528,-0.01207256,-0.01235960,-0.00480541,-0.01969286
 ,0.15332805,-0.00842720,-0.04477754,-0.01957315,0.00282904,-0.00182580
 ,0.00774954,-0.01874796,-0.00340382,-0.02671079,0.01224868,0.00274023,
 0.01907749,0.01299065,0.04944059,-0.12682141,-0.02196478,-0.22633997,-
 0.02121264,-0.00129011,-0.02267580,-0.00024626,0.00171410,0.00028034,0
 .00303856,-0.00068221,0.00292745,0.13898139,0.01936608,0.24712740,-0.0
 0664865,0.01364986,0.00531165,-0.14748147,0.02176601,0.02962486,0.0002
 2235,-0.00007359,-0.00148700,0.00034920,-0.00020544,0.00171990,-0.0011
 3039,0.00046873,0.00152689,0.51267724,0.00243715,0.01130488,0.00513790
 ,0.02231166,-0.09516500,-0.01223500,0.00170326,-0.00015661,-0.00235773
 ,-0.00052300,0.00059678,0.00213821,-0.00079314,-0.00010794,0.00079135,
 0.02228240,0.51843441,0.02489036,-0.01054051,0.00403775,0.03176501,-0.
 01399774,-0.09715094,0.00096023,0.00051902,-0.00097163,0.00363509,0.00
 178862,-0.00358149,-0.00155428,-0.00022425,0.00192979,0.01157024,-0.00
 017965,0.62296348,0.02058246,-0.00807895,0.01779487,-0.12769886,0.1194
 5716,-0.09459884,-0.00023323,-0.00160096,0.00045811,0.00257991,-0.0012
 0588,-0.00274890,-0.00243769,-0.00200293,0.00442679,-0.01112561,0.0473
 7637,-0.02658489,0.12301165,0.00809720,-0.00013632,0.02786151,0.114416
 23,-0.36257593,0.28563260,0.00063056,0.00097630,-0.00182338,-0.0012869
 1,0.00070014,-0.00016036,-0.00355781,-0.00053504,0.00162102,0.03153768
 ,-0.02564742,0.02822841,-0.15449732,0.38898520,-0.00281211,0.04586302,
 -0.03322190,-0.08969633,0.28154551,-0.36143911,0.00177309,-0.00007913,
 -0.00625682,-0.00285514,-0.00097858,0.00315270,0.00164684,0.00122732,-
 0.00278280,-0.00922341,0.01574867,0.00665976,0.10192300,-0.34154528,0.
 38908008,0.00010082,-0.00022251,0.00061979,0.00962052,0.02891906,-0.01
 555492,-0.00378672,0.00036954,0.00250308,-0.00032687,-0.00124245,-0.00
 010211,-0.00012112,0.00027030,-0.00005006,-0.08169320,0.00613550,0.003
 90365,-0.00977249,0.00541078,-0.00027960,0.46500604,-0.00239942,0.0022
 4353,0.00080413,0.01965340,-0.02859895,0.00526257,0.00002419,0.0004153
 0,0.00006132,-0.00121478,0.00018256,0.00094270,0.00031532,-0.00029903,
 -0.00079893,-0.00611836,-0.20277434,0.03902725,-0.00639229,0.00859209,
 -0.00520567,-0.00345725,0.57492183,0.00169650,0.00115043,-0.00064241,-
 0.01240125,-0.00397459,0.00527336,0.00284100,-0.00002290,0.00157145,0.
 00001376,0.00082582,-0.00147956,0.00014646,-0.00310273,-0.00169722,0.0
 0584672,0.03399024,-0.09291550,0.00396716,-0.00098043,0.00028502,-0.00
 114820,-0.03318992,0.46708780,0.00100623,0.00198937,0.00112724,-0.0238
 0795,-0.01257195,-0.01543955,0.00052028,0.00007201,-0.00056945,0.00023
 486,0.00025709,0.00038879,-0.00054803,-0.00007865,0.00098901,-0.197089
 54,-0.09939639,-0.09754189,0.00083859,0.00246856,0.00222030,-0.0019019
 9,-0.00036436,-0.00230244,0.21371865,-0.00091083,-0.00090010,-0.001159
 63,0.01349378,0.00957279,0.00918096,-0.00015311,-0.00007533,0.00023704
 ,-0.00010801,-0.00010731,-0.00002091,0.00025017,0.00013616,-0.00029845
 ,-0.08715241,-0.10578196,-0.05569187,0.00002189,-0.00343466,-0.0007410
 5,-0.03021544,-0.01849326,-0.01973070,0.10268971,0.12137772,-0.0006209
 8,-0.00055838,-0.00078167,0.00623608,0.00387186,0.00332927,-0.00012648
 ,-0.00015396,0.00024846,-0.00016205,-0.00011283,-0.00018174,0.00045130
 ,-0.00005294,-0.00037589,-0.09570596,-0.06174318,-0.10657961,-0.000633
 65,0.00031740,0.00015052,0.00758424,0.00789313,0.00358782,0.10540964,0
 .06441851,0.11356690,-0.00345540,0.00350581,-0.00147038,-0.01221162,0.
 00162246,0.03363949,0.00006593,-0.00009901,-0.00003833,-0.00076634,-0.
 00024971,0.00103420,0.00041677,-0.00002531,-0.00026431,-0.05394782,-0.
 00165258,0.05062926,0.00301408,-0.00361565,-0.00139925,-0.00017583,-0.
 00058537,0.00109501,0.00490308,0.00098523,-0.02476945,0.06238220,0.002
 16596,-0.00108265,0.00077993,0.00381090,0.00120426,-0.01804698,0.00023
 558,0.00002221,-0.00003357,0.00051441,0.00030813,-0.00044015,-0.000223
 70,-0.00011109,0.00040896,-0.00143926,-0.05389858,0.00440917,-0.000564
 34,0.00007087,0.00101809,-0.00638343,-0.00105967,0.03763356,0.00326900
 ,0.00115556,-0.01646439,-0.00156997,0.05820429,0.00045514,-0.00046528,
 0.00098605,0.00092967,0.00069069,-0.00687985,0.00003074,0.00001925,-0.
 00007537,0.00015850,0.00007205,-0.00013375,-0.00025548,0.00001333,0.00
 024982,0.05089900,0.00953511,-0.31754286,-0.00179510,0.00084093,0.0018
 0834,0.00190296,-0.00163245,-0.01295069,0.00484402,0.00151969,-0.01372
 511,-0.05685273,-0.01090823,0.34397684,-0.00264327,0.00207961,-0.00002
 574,-0.00162729,-0.00135702,0.00252269,-0.00064946,0.00208455,0.000044
 09,0.00023122,0.00057934,-0.00056605,-0.00126080,0.00027380,-0.0005547
 5,0.00830017,-0.00156606,-0.00013639,0.00112190,-0.00032792,-0.0005689
 2,-0.05994873,-0.00013287,0.00197005,0.00053949,0.00174409,0.00025704,
 0.00096480,0.00034504,0.00011157,0.07027260,0.00261698,-0.00278570,-0.
 00105123,-0.00224873,0.00231522,-0.00018584,0.00101190,-0.00131823,-0.
 00009124,0.00024650,-0.00010861,0.00043217,0.00184358,-0.00118356,0.00
 082697,-0.00242207,0.00020350,0.03835756,0.00116673,-0.00117589,0.0001
 1795,-0.00113103,-0.07867430,0.03433725,0.00072121,0.00221834,-0.00019
 220,0.00106255,-0.00652371,0.00104054,-0.00315499,0.07016066,-0.000541
 23,-0.00091178,0.00048790,0.00510025,-0.00209008,-0.00384724,-0.001268
 00,0.00014219,-0.00090826,-0.00001545,-0.00024206,0.00086154,0.0000458
 5,0.00139102,0.00097148,0.00104105,0.00237267,-0.03122459,-0.00235594,
 0.00104253,0.00134731,0.00282800,0.04446276,-0.21760976,0.00043437,-0.
 00045183,0.00038806,-0.00078540,0.00502849,0.00128096,-0.00752335,-0.0
 2729488,0.33258258,-0.00043473,-0.00028818,-0.00010848,0.00555660,-0.0
 0124397,0.00021697,0.00063377,-0.00004925,-0.00020980,-0.00005281,0.00
 026140,-0.00009923,0.00010284,-0.00026968,-0.00014251,-0.01400699,0.01
 236054,0.00828812,-0.00180158,0.00192345,-0.00131737,-0.16757537,0.080
 03732,0.03411439,0.00012868,0.00118002,0.00085807,-0.00089115,-0.00076
 454,-0.00008252,-0.00996890,0.00873230,0.02839423,0.25512756,0.0010134
 3,0.00012588,-0.00012328,-0.01113345,0.00041216,0.00247498,-0.00002816
 ,0.00000955,-0.00012850,0.00027120,-0.00009491,-0.00014176,-0.00008545
 ,0.00004713,0.00010059,0.04414535,-0.02448871,-0.01324222,0.00493658,-
 0.00443361,0.00224113,0.07254751,-0.12278019,-0.02121813,0.00030655,0.
 00179514,-0.00074920,0.00062968,0.00123032,-0.00062175,0.00542970,0.00
 898264,-0.01065929,-0.10679397,0.12373826,-0.00025609,-0.00017457,-0.0
 0004367,0.00042240,0.00153104,0.00079568,-0.00045335,-0.00003616,-0.00
 017350,-0.00002149,-0.00015420,0.00024107,0.00000973,0.00046053,0.0001
 7888,-0.00079342,0.00393572,0.00679152,0.00001067,-0.00050120,0.000250
 57,0.03686924,-0.02548099,-0.07327934,0.00046735,0.00129450,-0.0004164
 0,-0.00038772,-0.00133663,0.00171801,0.04326334,-0.02150497,-0.0409427
 1,-0.07210242,0.03993581,0.09392032,0.00004809,-0.00064143,0.00007213,
 -0.00434622,0.00115181,0.00061788,0.00054257,0.00070429,-0.00070875,0.
 00037429,0.00032088,-0.00004491,0.00005324,0.00047053,0.00032930,-0.00
 842530,-0.01067571,-0.00982452,0.00192086,-0.00119885,0.00058891,-0.14
 942506,-0.07936552,-0.03583915,0.00145766,-0.00182510,0.00122222,-0.00
 029870,0.00060435,-0.00034577,-0.00533172,-0.00844494,-0.02535438,-0.0
 6681792,-0.01123897,-0.00702824,0.23024819,0.00097755,-0.00065077,-0.0
 0078358,-0.00510219,0.00465142,-0.00065659,0.00035904,-0.00141400,-0.0
 0071536,0.00019666,-0.00009737,-0.00014716,-0.00006118,-0.00012029,0.0
 0020540,-0.03643890,-0.02251901,-0.01845379,0.00138394,-0.00138572,0.0
 0078802,-0.07100058,-0.13367557,-0.02571789,0.00063784,-0.00746311,0.0
 0352619,-0.00000814,0.00048005,-0.00010388,-0.00599727,0.00788965,-0.0
 1278974,0.00491457,0.01545634,0.00203110,0.11013866,0.13884837,0.00032
 197,-0.00031260,-0.00004171,-0.00000116,0.00128547,-0.00182678,-0.0002
 2436,-0.00083630,-0.00077230,-0.00006080,-0.00025344,0.00018495,-0.000
 02024,0.00037857,0.00020652,-0.00033053,0.00286568,0.00758433,0.000136
 72,-0.00053376,0.00096633,-0.03907607,-0.03214591,-0.07723097,-0.00002
 740,0.00144373,0.00078940,-0.00043040,-0.00204825,0.00128761,-0.038793
 58,-0.02479208,-0.04338729,0.00219055,0.00213162,0.01095957,0.07631530
 ,0.05281727,0.10128034\\-0.00002111,-0.00000370,-0.00003808,-0.0000291
 0,0.00002888,0.00002295,0.00000752,-0.00000459,0.00001423,-0.00000384,
 -0.00000934,0.00001342,0.00000425,-0.00001273,0.00000577,0.00005306,-0
 .00004832,0.00001995,-0.00000580,-0.00001104,0.00001655,-0.00009944,0.
 00002732,-0.00013825,0.00000094,-0.00000516,0.00000392,-0.00001750,0.0
 0002140,-0.00000336,0.00002096,-0.00000992,0.00007474,0.00003747,-0.00
 000186,-0.00000682,0.00005259,0.00002907,0.00001496\\\@


 IT IS THE GODS' CUSTOM TO BRING LOW ALL THINGS OF SURPASSING GREATNESS.
     -- HERODOTUS
 IT IS THE LOFTY PINE THAT BY THE STORM IS OFTENER TOSSED;
 TOWERS FALL WITH HEAVIER CRASH WHICH HIGHER SOAR.
     -- HORACE
 THE BIGGER THEY COME, THE HARDER THEY FALL.
     -- BOB FITZSIMONS HEAVYWEIGHT CHAMPION, 1897-1899
 Job cpu time:       0 days  0 hours  3 minutes 26.7 seconds.
 File lengths (MBytes):  RWF=     28 Int=      0 D2E=      0 Chk=      3 Scr=      1
 Normal termination of Gaussian 09 at Wed May 26 08:18:12 2021.
