L.pdb                                                                   
FOpt      RwB97XD                                                     6-31+G              
Number of atoms                            I                8
Info1-9                                    I   N=           9
          19          19           0           0           0         110
           2          18        -802
Charge                                     I                0
Multiplicity                               I                1
Number of electrons                        I               30
Number of alpha electrons                  I               15
Number of beta electrons                   I               15
Number of basis functions                  I               60
Number of independent functions            I               60
Number of point charges in /Mol/           I                0
Number of translation vectors              I                0
Atomic numbers                             I   N=           8
           6           6           6           8           1           1
           1           1
Nuclear charges                            R   N=           8
  6.00000000E+00  6.00000000E+00  6.00000000E+00  8.00000000E+00  1.00000000E+00
  1.00000000E+00  1.00000000E+00  1.00000000E+00
Current cartesian coordinates              R   N=          24
  3.21044126E+00  3.49587631E-01 -3.65888233E-01  1.12025813E+00 -8.10327180E-01
  4.56990790E-01 -1.34447605E+00  5.22606340E-01  5.68902687E-01 -3.22408049E+00
 -1.91181674E-01 -6.14698031E-01 -1.40807481E+00  2.31155219E+00  1.63465464E+00
  4.95864566E+00 -6.75875190E-01 -6.70276842E-01  3.24454562E+00  2.36529772E+00
 -7.65301848E-01  1.08018742E+00 -2.84272208E+00  7.58476831E-01
Force Field                                I                0
Int Atom Types                             I   N=           8
           0           0           0           0           0           0
           0           0
MM charges                                 R   N=           8
  0.00000000E+00  0.00000000E+00  0.00000000E+00  0.00000000E+00  0.00000000E+00
  0.00000000E+00  0.00000000E+00  0.00000000E+00
Integer atomic weights                     I   N=           8
          12          12          12          16           1           1
           1           1
Real atomic weights                        R   N=           8
  1.20000000E+01  1.20000000E+01  1.20000000E+01  1.59949146E+01  1.00782504E+00
  1.00782504E+00  1.00782504E+00  1.00782504E+00
Atom fragment info                         I   N=           8
           0           0           0           0           0           0
           0           0
Atom residue num                           I   N=           8
           0           0           0           0           0           0
           0           0
Nuclear spins                              I   N=           8
           0           0           0           0           1           1
           1           1
Nuclear ZEff                               R   N=           8
 -3.60000000E+00 -3.60000000E+00 -3.60000000E+00 -5.60000000E+00 -1.00000000E+00
 -1.00000000E+00 -1.00000000E+00 -1.00000000E+00
Nuclear ZNuc                               R   N=           8
  6.00000000E+00  6.00000000E+00  6.00000000E+00  8.00000000E+00  1.00000000E+00
  1.00000000E+00  1.00000000E+00  1.00000000E+00
Nuclear QMom                               R   N=           8
  0.00000000E+00  0.00000000E+00  0.00000000E+00  0.00000000E+00  0.00000000E+00
  0.00000000E+00  0.00000000E+00  0.00000000E+00
Nuclear GFac                               R   N=           8
  0.00000000E+00  0.00000000E+00  0.00000000E+00  0.00000000E+00  2.79284600E+00
  2.79284600E+00  2.79284600E+00  2.79284600E+00
MicOpt                                     I   N=           8
          -1          -1          -1          -1          -1          -1
          -1          -1
Number of contracted shells                I               24
Number of primitive shells                 I               60
Pure/Cartesian d shells                    I                1
Pure/Cartesian f shells                    I                0
Highest angular momentum                   I                1
Largest degree of contraction              I                6
Shell types                                I   N=          24
           0          -1          -1          -1           0          -1
          -1          -1           0          -1          -1          -1
           0          -1          -1          -1           0           0
           0           0           0           0           0           0
Number of primitives per shell             I   N=          24
           6           3           1           1           6           3
           1           1           6           3           1           1
           6           3           1           1           3           1
           3           1           3           1           3           1
Shell to atom map                          I   N=          24
           1           1           1           1           2           2
           2           2           3           3           3           3
           4           4           4           4           5           5
           6           6           7           7           8           8
Primitive exponents                        R   N=          60
  3.04752488E+03  4.57369518E+02  1.03948685E+02  2.92101553E+01  9.28666296E+00
  3.16392696E+00  7.86827235E+00  1.88128854E+00  5.44249258E-01  1.68714478E-01
  4.38000000E-02  3.04752488E+03  4.57369518E+02  1.03948685E+02  2.92101553E+01
  9.28666296E+00  3.16392696E+00  7.86827235E+00  1.88128854E+00  5.44249258E-01
  1.68714478E-01  4.38000000E-02  3.04752488E+03  4.57369518E+02  1.03948685E+02
  2.92101553E+01  9.28666296E+00  3.16392696E+00  7.86827235E+00  1.88128854E+00
  5.44249258E-01  1.68714478E-01  4.38000000E-02  5.48467166E+03  8.25234946E+02
  1.88046958E+02  5.29645000E+01  1.68975704E+01  5.79963534E+00  1.55396162E+01
  3.59993359E+00  1.01376175E+00  2.70005823E-01  8.45000000E-02  1.87311370E+01
  2.82539436E+00  6.40121692E-01  1.61277759E-01  1.87311370E+01  2.82539436E+00
  6.40121692E-01  1.61277759E-01  1.87311370E+01  2.82539436E+00  6.40121692E-01
  1.61277759E-01  1.87311370E+01  2.82539436E+00  6.40121692E-01  1.61277759E-01
Contraction coefficients                   R   N=          60
  1.83473713E-03  1.40373228E-02  6.88426223E-02  2.32184443E-01  4.67941348E-01
  3.62311985E-01 -1.19332420E-01 -1.60854152E-01  1.14345644E+00  1.00000000E+00
  1.00000000E+00  1.83473713E-03  1.40373228E-02  6.88426223E-02  2.32184443E-01
  4.67941348E-01  3.62311985E-01 -1.19332420E-01 -1.60854152E-01  1.14345644E+00
  1.00000000E+00  1.00000000E+00  1.83473713E-03  1.40373228E-02  6.88426223E-02
  2.32184443E-01  4.67941348E-01  3.62311985E-01 -1.19332420E-01 -1.60854152E-01
  1.14345644E+00  1.00000000E+00  1.00000000E+00  1.83107443E-03  1.39501722E-02
  6.84450781E-02  2.32714336E-01  4.70192898E-01  3.58520853E-01 -1.10777550E-01
 -1.48026263E-01  1.13076702E+00  1.00000000E+00  1.00000000E+00  3.34946043E-02
  2.34726953E-01  8.13757326E-01  1.00000000E+00  3.34946043E-02  2.34726953E-01
  8.13757326E-01  1.00000000E+00  3.34946043E-02  2.34726953E-01  8.13757326E-01
  1.00000000E+00  3.34946043E-02  2.34726953E-01  8.13757326E-01  1.00000000E+00
P(S=P) Contraction coefficients            R   N=          60
  0.00000000E+00  0.00000000E+00  0.00000000E+00  0.00000000E+00  0.00000000E+00
  0.00000000E+00  6.89990666E-02  3.16423961E-01  7.44308291E-01  1.00000000E+00
  1.00000000E+00  0.00000000E+00  0.00000000E+00  0.00000000E+00  0.00000000E+00
  0.00000000E+00  0.00000000E+00  6.89990666E-02  3.16423961E-01  7.44308291E-01
  1.00000000E+00  1.00000000E+00  0.00000000E+00  0.00000000E+00  0.00000000E+00
  0.00000000E+00  0.00000000E+00  0.00000000E+00  6.89990666E-02  3.16423961E-01
  7.44308291E-01  1.00000000E+00  1.00000000E+00  0.00000000E+00  0.00000000E+00
  0.00000000E+00  0.00000000E+00  0.00000000E+00  0.00000000E+00  7.08742682E-02
  3.39752839E-01  7.27158577E-01  1.00000000E+00  1.00000000E+00  0.00000000E+00
  0.00000000E+00  0.00000000E+00  0.00000000E+00  0.00000000E+00  0.00000000E+00
  0.00000000E+00  0.00000000E+00  0.00000000E+00  0.00000000E+00  0.00000000E+00
  0.00000000E+00  0.00000000E+00  0.00000000E+00  0.00000000E+00  0.00000000E+00
Coordinates of each shell                  R   N=          72
  3.21044126E+00  3.49587631E-01 -3.65888233E-01  3.21044126E+00  3.49587631E-01
 -3.65888233E-01  3.21044126E+00  3.49587631E-01 -3.65888233E-01  3.21044126E+00
  3.49587631E-01 -3.65888233E-01  1.12025813E+00 -8.10327180E-01  4.56990790E-01
  1.12025813E+00 -8.10327180E-01  4.56990790E-01  1.12025813E+00 -8.10327180E-01
  4.56990790E-01  1.12025813E+00 -8.10327180E-01  4.56990790E-01 -1.34447605E+00
  5.22606340E-01  5.68902687E-01 -1.34447605E+00  5.22606340E-01  5.68902687E-01
 -1.34447605E+00  5.22606340E-01  5.68902687E-01 -1.34447605E+00  5.22606340E-01
  5.68902687E-01 -3.22408049E+00 -1.91181674E-01 -6.14698031E-01 -3.22408049E+00
 -1.91181674E-01 -6.14698031E-01 -3.22408049E+00 -1.91181674E-01 -6.14698031E-01
 -3.22408049E+00 -1.91181674E-01 -6.14698031E-01 -1.40807481E+00  2.31155219E+00
  1.63465464E+00 -1.40807481E+00  2.31155219E+00  1.63465464E+00  4.95864566E+00
 -6.75875190E-01 -6.70276842E-01  4.95864566E+00 -6.75875190E-01 -6.70276842E-01
  3.24454562E+00  2.36529772E+00 -7.65301848E-01  3.24454562E+00  2.36529772E+00
 -7.65301848E-01  1.08018742E+00 -2.84272208E+00  7.58476831E-01  1.08018742E+00
 -2.84272208E+00  7.58476831E-01
Constraint Structure                       R   N=          24
  3.22491982E+00  3.39865559E-01 -3.69004932E-01  1.11971956E+00 -7.99779149E-01
  4.73383955E-01 -1.34578535E+00  5.34148282E-01  5.64100258E-01 -3.23704594E+00
 -2.01121488E-01 -6.13219910E-01 -1.40676682E+00  2.35006927E+00  1.59151601E+00
  4.96182758E+00 -7.05037712E-01 -6.83563075E-01  3.28243551E+00  2.35446290E+00
 -7.76359967E-01  1.06574710E+00 -2.83593071E+00  7.63290621E-01
Num ILSW                                   I              100
ILSW                                       I   N=         100
           0           1           0           0           2           0
           0           0           0           0        4639          -1
           0           0           0           0           2           0
           0           0           0           0           1           0
           1           0           0           0           0           0
           0           0      100000           0          -1           0
           0           0           0           0           0           0
           0           0           0           1           0           0
           0           0           1           0           0           0
           0           0         121          41           0           0
           0           0          58           0           0           0
           0           0           0           8           0           0
           0           0           0           0           0           0
           0           0           0           0           0           0
           0           0           0           0           0           0
           0           0           0           0           0           0
           0           0           0           0
Num RLSW                                   I               41
RLSW                                       R   N=          41
  1.00000000E+00  1.00000000E+00  1.00000000E+00  1.00000000E+00  1.00000000E+00
  0.00000000E+00  2.00000000E-01  2.22036000E-01  0.00000000E+00  7.77964000E-01
  0.00000000E+00  2.00000000E-01  0.00000000E+00  0.00000000E+00  1.00000000E+00
  0.00000000E+00  0.00000000E+00  1.00000000E+00  0.00000000E+00  0.00000000E+00
  0.00000000E+00  0.00000000E+00  1.00000000E+00  0.00000000E+00  0.00000000E+00
  0.00000000E+00  0.00000000E+00  1.00000000E+00  0.00000000E+00  0.00000000E+00
  0.00000000E+00  0.00000000E+00  1.00000000E+00  0.00000000E+00  0.00000000E+00
  0.00000000E+00  0.00000000E+00  0.00000000E+00  1.00000000E+00  1.00000000E+00
  0.00000000E+00
MxBond                                     I                3
NBond                                      I   N=           8
           3           3           3           1           1           1
           1           1
IBond                                      I   N=          24
           2           6           7           1           3           8
           2           4           5           3           0           0
           3           0           0           1           0           0
           1           0           0           2           0           0
RBond                                      R   N=          24
  2.00000000E+00  1.00000000E+00  1.00000000E+00  2.00000000E+00  1.00000000E+00
  1.00000000E+00  1.00000000E+00  2.00000000E+00  1.00000000E+00  2.00000000E+00
  0.00000000E+00  0.00000000E+00  1.00000000E+00  0.00000000E+00  0.00000000E+00
  1.00000000E+00  0.00000000E+00  0.00000000E+00  1.00000000E+00  0.00000000E+00
  0.00000000E+00  1.00000000E+00  0.00000000E+00  0.00000000E+00
Virial Ratio                               R      2.005813275219389E+00
SCF Energy                                 R     -1.917862564905532E+02
Total Energy                               R     -1.917862564905532E+02
RMS Force                                  R      3.191482716559158E-03
RMS Density                                R      3.471657429098505E-09
External E-field                           R   N=          35
  0.00000000E+00  0.00000000E+00  0.00000000E+00  0.00000000E+00  0.00000000E+00
  0.00000000E+00  0.00000000E+00  0.00000000E+00  0.00000000E+00  0.00000000E+00
  0.00000000E+00  0.00000000E+00  0.00000000E+00  0.00000000E+00  0.00000000E+00
  0.00000000E+00  0.00000000E+00  0.00000000E+00  0.00000000E+00  0.00000000E+00
  0.00000000E+00  0.00000000E+00  0.00000000E+00  0.00000000E+00  0.00000000E+00
  0.00000000E+00  0.00000000E+00  0.00000000E+00  0.00000000E+00  0.00000000E+00
  0.00000000E+00  0.00000000E+00  0.00000000E+00  0.00000000E+00  0.00000000E+00
IOpCl                                      I                0
IROHF                                      I                0
Alpha Orbital Energies                     R   N=          60
 -1.92940086E+01 -1.04109680E+01 -1.03324470E+01 -1.03310647E+01 -1.17732939E+00
 -9.15024963E-01 -7.59332230E-01 -6.77672332E-01 -5.90086785E-01 -5.71783131E-01
 -5.31613527E-01 -4.92262995E-01 -4.74329982E-01 -3.79592158E-01 -3.54815525E-01
 -2.59293286E-04  6.39683478E-02  7.58930258E-02  8.84015020E-02  8.98449544E-02
  1.11754382E-01  1.25746712E-01  1.30598538E-01  1.46853978E-01  1.63220374E-01
  1.71661298E-01  1.78096312E-01  1.97891267E-01  2.27012982E-01  2.73266100E-01
  2.82251993E-01  2.89522589E-01  3.10975763E-01  3.27980085E-01  3.44579852E-01
  3.68908130E-01  3.99628062E-01  4.31567116E-01  4.58143311E-01  5.01864011E-01
  6.97122722E-01  7.20219833E-01  7.51438511E-01  7.96586215E-01  8.04750977E-01
  8.50891964E-01  8.86438208E-01  9.23693205E-01  1.00901724E+00  1.05551755E+00
  1.09767904E+00  1.13148546E+00  1.14674918E+00  1.23753319E+00  1.26800423E+00
  1.33579835E+00  1.34567869E+00  1.38507144E+00  1.43102662E+00  1.88274413E+00
Alpha MO coefficients                      R   N=        3600
  1.78955461E-05  2.22810981E-04  4.64026591E-06  2.92934250E-05 -9.92514810E-05
 -2.14934637E-03  5.03741789E-04  1.07572477E-04 -2.87248982E-04  9.19080087E-03
 -1.93278334E-03 -1.18218727E-03  5.14402540E-04  8.70200867E-06 -1.85968701E-04
  1.43826301E-04 -1.65736101E-04  1.57436212E-05  5.88231983E-05  1.90148204E-03
  1.72345172E-03  4.20780196E-04  2.38516215E-03 -5.53838844E-03 -3.56010133E-04
  6.49767060E-04  2.08160356E-04  1.03374934E-04 -8.90074904E-05  1.20362416E-04
  2.46187034E-05  6.46828959E-03 -3.74049902E-03 -3.12918344E-03 -3.11994668E-03
 -1.64872529E-02 -6.68731954E-04  3.31515066E-03  2.03271914E-03  9.95215639E-01
  2.93334279E-02  1.74916235E-03  5.86522205E-04  1.07478689E-03 -2.07974929E-02
 -3.77783722E-03 -1.00071435E-03 -2.14357130E-03  9.64565823E-03  7.94660889E-04
 -6.99440480E-05  5.29338680E-05 -1.43283470E-04  1.09833270E-03  4.08087893E-05
  8.89192561E-06  5.17442474E-05  2.47444104E-04  2.39957412E-04  5.05534776E-04
 -1.01001729E-04 -4.51652307E-04  1.78692641E-04 -3.91317631E-05  3.52389043E-06
  1.60821092E-03 -1.50238935E-03 -3.66645666E-05  3.34941264E-04 -1.77977905E-02
  2.87022385E-03  2.51223790E-03 -1.78095104E-03  1.63757094E-03 -3.56764643E-04
  4.64503159E-04 -2.60988863E-04 -9.23847611E-05  3.41792214E-03 -3.47614964E-03
  5.59277500E-04  5.34142866E-04 -4.01592332E-06  1.02193131E-02  7.88115024E-04
 -1.00398732E-03  9.95435223E-01  3.61218996E-02 -1.05323069E-03 -5.28280411E-04
 -8.07288196E-04 -3.15014542E-02  7.20626270E-04  1.93502501E-03  1.71201058E-03
  1.52709737E-02  4.42658853E-03 -4.36459939E-03 -6.58614232E-04 -1.30100182E-04
 -9.44361405E-05 -5.18638036E-04 -1.46082736E-04 -2.74530721E-04  1.41738282E-03
  4.15807774E-04 -2.70920030E-04 -1.07405167E-04  1.06866586E-02  4.53530511E-03
  2.14768876E-03  3.18372144E-03 -5.48964893E-04  3.13778802E-03 -1.81827974E-05
  1.20656440E-03 -2.46714412E-04  2.26823712E-04 -2.01270000E-04 -2.12825854E-04
  3.22155123E-01  1.00921259E-02  6.35968131E-04  3.89187549E-04 -2.67664217E-04
 -2.68784419E-04 -3.72386589E-03 -3.85300680E-04  1.00121954E-03 -2.80410454E-02
  5.75575694E-03  1.56745766E-03 -1.95959058E-03  9.41729344E-01  3.39443358E-02
 -2.93691238E-04  2.88577371E-04 -1.68643822E-04 -3.02401962E-02  1.76538119E-03
 -3.73194958E-03  9.49863948E-04  6.70640236E-02 -2.84909949E-03  1.29645255E-02
 -2.76931438E-03 -1.47292993E-03 -6.68589571E-04 -5.02864602E-04  2.99773212E-04
  2.92785415E-06  5.45857261E-03  5.13623047E-03 -1.53421778E-03  1.29820711E-04
 -3.78806000E-02 -9.49068895E-03  3.38043218E-03  5.86982131E-04 -6.33148849E-06
 -1.96150717E-04 -1.02702566E-04 -2.47023386E-05 -2.25079449E-05  4.56512557E-04
  2.55965033E-04  3.61327739E-04  3.26821878E-04  3.16559703E-03  1.09785565E-03
  2.76165410E-04  1.05442925E-03 -2.58185036E-04  1.89407825E-04 -3.50843356E-04
  2.22405690E-03 -5.39911787E-04  7.10195224E-04 -6.86425956E-04  2.68573665E-03
  9.41740810E-01  3.37815622E-02 -6.65612243E-04 -3.18053833E-04  2.23613502E-04
 -3.22178310E-02  4.62466982E-03  2.07455190E-03 -1.70773395E-03  3.94647901E-02
 -9.24669224E-03 -5.63544634E-03  3.78702314E-03 -3.22420247E-01 -1.29565878E-02
 -9.34476163E-04 -7.26916635E-04  4.71741408E-04  1.93190350E-02  5.07310017E-03
  4.04656999E-03 -2.21943869E-03 -1.74208115E-02 -1.40229905E-02 -5.85011741E-04
  3.35376543E-03  5.14756327E-04 -2.16079009E-04 -2.26264744E-05 -9.56633584E-05
 -1.41349779E-05 -2.19079421E-04 -1.44171108E-03 -4.52430089E-04 -3.47949526E-04
 -2.16456416E-02 -5.39752670E-03  2.41260633E-03  2.58103520E-04  1.11353863E-05
  2.45678090E-04  1.27503879E-04  2.29114739E-05  4.14897881E-06 -9.77707358E-04
 -6.94641263E-04 -1.98617428E-04 -1.93345302E-04  6.45985863E-05  2.79259384E-04
  1.74030109E-04 -4.15957505E-05 -8.29512920E-05  6.87134766E-04 -6.24561870E-04
  3.67411290E-03 -5.26664066E-04  3.84010113E-03  1.26998787E-04 -5.80534098E-04
 -4.12484651E-03  8.40152060E-03 -6.26976117E-03 -1.03089371E-03  1.45665485E-03
  1.10849826E-02  5.43839027E-03 -5.11832874E-03  1.41285575E-03  5.02423455E-02
 -1.06856016E-02 -3.39471938E-03  3.76429807E-03 -1.93798648E-02  3.67181116E-02
 -2.56617534E-02  9.38843728E-03 -3.78720386E-03  1.55934215E-02 -1.06364812E-02
 -8.90959029E-03 -7.40440975E-03 -8.74877860E-02  4.05777705E-03 -1.46628844E-02
  7.59432657E-03 -1.16225043E-01  2.37920492E-01 -1.47083696E-01 -6.19275152E-02
 -9.69538565E-02  4.35112588E-02  4.45769630E-02  2.78212275E-02  3.19435885E-02
  5.05227344E-02 -5.74377708E-03 -5.85977940E-03 -8.30103027E-03 -1.92397565E-01
  4.25368772E-01  1.47292181E-01  5.41243500E-02  9.17814501E-02  4.16869322E-01
  5.86932997E-02  1.94226064E-02  3.67164248E-02 -4.80926623E-03  7.40895578E-03
  1.45729437E-03  3.39229168E-03  2.83964134E-02 -1.84370812E-02  5.02184937E-04
 -7.39968295E-03  2.53657614E-03  3.25787692E-05  5.43713442E-03 -1.08167895E-03
 -1.40753180E-01  2.71466844E-01 -9.32376102E-02 -4.27759893E-02  3.36284089E-02
  2.06726902E-01 -1.17984932E-02  5.44704377E-03  2.61303804E-03  8.87301124E-03
 -5.21630510E-03  5.20393342E-03  8.80632218E-04 -1.62217526E-01  3.16225297E-01
  5.01725884E-02  6.53671674E-02 -3.37931182E-02  2.17972666E-01  8.62592868E-04
 -6.92845134E-03  3.73551808E-04 -1.01603495E-01  2.85618873E-02 -2.72611403E-02
 -2.95188262E-03 -5.33089553E-02  1.03821438E-01  1.32554465E-01 -1.56889259E-02
  2.21979091E-02  1.08832917E-01  2.26413111E-02 -3.94680957E-04 -2.08294384E-03
  9.73536258E-02  2.55284786E-02 -6.39222956E-03  3.02698963E-03  4.08806121E-02
 -9.36588162E-02  1.67935026E-03 -1.30997400E-02 -1.23995341E-02 -1.03044857E-01
 -3.77355159E-03 -3.97150917E-03 -3.83186411E-03 -1.35886426E-02 -7.75747763E-03
 -3.52305736E-03 -4.41162076E-03  3.14631310E-02  3.12765403E-03  6.82478295E-02
  1.31339160E-02  7.13600008E-02  6.90451684E-03  7.87762485E-02  5.73292898E-03
  1.30444857E-01 -2.59819422E-01 -5.58830751E-02  8.64136691E-03  1.40042835E-02
 -2.45075393E-01 -2.44926713E-02  8.62082000E-04  6.37799189E-03  1.55827707E-01
 -3.16635083E-02 -2.14435738E-02  1.32854244E-02 -4.89557347E-02  9.93759625E-02
 -2.17037643E-01  1.01388827E-02  5.55178627E-02  9.63468650E-02 -4.19318928E-02
  1.64032161E-03  1.35863949E-02 -6.11661170E-02 -7.50114505E-02 -9.52282268E-03
  1.57237236E-02 -1.20213270E-01  2.53916010E-01  1.54183373E-01  6.80253733E-03
  7.33032559E-02  2.66807009E-01  2.15441431E-02  9.20984437E-04  1.48937402E-02
 -9.69393214E-02 -1.61000497E-02  2.12793535E-02  5.76115570E-03  6.76685764E-02
 -1.56543202E-01  4.79786764E-02  1.45252768E-03  2.33616290E-02 -2.06194144E-01
  1.15118297E-02 -3.48456856E-03  3.78600693E-03 -2.92701944E-02 -9.34788022E-03
 -4.27053412E-03 -8.17373551E-03  1.12599343E-01  4.06472941E-02 -1.25665113E-01
 -4.11373760E-02 -1.01934724E-01 -3.42018959E-02  4.03017438E-02  1.22294662E-02
 -5.70238226E-02  1.13448513E-01  7.51373667E-02  1.35573300E-01 -3.94219385E-02
  1.23126050E-01  2.02041846E-02  4.19628945E-02 -9.98527903E-03 -3.85366921E-02
  1.37625390E-02  4.45097554E-03 -5.70808509E-03  9.35886496E-02 -1.90116242E-01
 -4.66787374E-03  1.73410518E-01 -1.93491094E-03 -1.98301487E-01  3.89636770E-03
  6.74816421E-02 -6.92498886E-03  7.30375728E-02 -4.90907621E-03  1.46548703E-02
 -1.32724793E-03 -8.17594682E-02  1.74914046E-01 -4.05696694E-02  2.20865881E-01
  9.15806870E-02  1.96739605E-01 -6.91934247E-03  8.60701142E-02  3.81334255E-02
 -2.97694065E-02 -7.10319211E-03  1.63697287E-02  2.69131037E-03  3.88780757E-02
 -9.07664301E-02  7.59739466E-03  1.11196666E-01  5.63972179E-02 -1.19609042E-01
  6.68198806E-04  4.76339949E-02  2.22380105E-02 -1.54561613E-02 -1.51188029E-03
 -5.79570437E-03 -1.59118033E-03  1.83120605E-01  7.31090456E-02  5.49049163E-02
  2.51986893E-02  1.22189675E-01  5.97661210E-02 -1.66334197E-01 -6.48478145E-02
 -6.52845567E-03  1.19088985E-02 -7.90602583E-02  2.51337779E-01 -4.85603379E-02
  2.13916920E-02 -4.27135823E-02  1.08625927E-01 -1.91720547E-02 -6.68044702E-02
  1.80114119E-02  1.45299111E-02 -5.29764796E-03  1.26599453E-02 -2.10167914E-02
 -1.82360336E-01  2.06883299E-01 -4.45491609E-02 -5.93805334E-02 -4.15639302E-02
  6.86393824E-02 -2.19299054E-02  5.53237817E-02  1.75305780E-03  1.35936945E-02
 -8.77542715E-03  9.65910361E-03 -2.11861363E-02  1.96662708E-01 -2.12609214E-01
 -1.42170261E-01 -3.12733812E-02  8.18837885E-02 -9.39791642E-02 -6.59110062E-02
  4.41496807E-03  1.52130366E-02 -1.15233216E-02 -8.33368087E-03 -1.21049291E-02
  2.74197960E-02  7.82126933E-02 -1.40048410E-01 -1.18714797E-01  4.53565117E-02
  4.44993970E-02 -6.59375540E-02 -5.74849729E-02  8.27019842E-03 -2.62159966E-03
  2.02939127E-03  3.48940044E-03 -1.44290534E-01 -7.24711142E-02 -9.41448052E-02
 -4.49425507E-02  1.46006463E-01  7.71895168E-02 -1.26315934E-01 -7.40709897E-02
 -1.45507493E-02  2.65358168E-02  3.38542368E-01  4.96043549E-02 -1.19500209E-01
  7.86712837E-02  1.12931137E-01  4.06492343E-03 -4.00539731E-02  4.54411102E-02
  1.26735193E-02 -1.09180626E-03 -1.45086820E-03  3.36276978E-02 -6.96332166E-02
 -2.20260218E-01 -1.89407158E-01  6.75191539E-02 -7.01785545E-02 -5.39213133E-02
 -7.09514505E-02  2.11881950E-02 -4.87193896E-02 -2.55410501E-02 -1.55200716E-02
  4.98535807E-03 -4.14306671E-02  1.04343473E-01 -5.48204585E-02 -1.95967243E-01
 -2.82035573E-02  1.23234697E-01 -1.51926393E-02 -9.89900319E-02 -1.26072150E-02
  1.67254036E-02  9.94319579E-03 -6.09843271E-03 -3.66160827E-04  5.27972005E-02
 -1.17777316E-01  2.03220118E-01 -6.01222852E-02  1.33650428E-01 -2.13683155E-01
  7.69545628E-02 -4.35288619E-02  5.35004807E-02 -5.57057834E-02  1.38948986E-03
  3.53401502E-03  4.19953715E-04 -4.63681664E-02 -1.51690198E-02  1.81729151E-01
  1.08021497E-01  6.28230233E-02  4.12800531E-02  7.79107838E-02  4.99854677E-02
 -6.64994945E-03  1.76760377E-02 -1.49472153E-01 -1.27339434E-01  2.37808441E-02
 -1.34620833E-02 -4.04527887E-02 -5.01408749E-02 -2.39758179E-03 -7.39995296E-02
  8.68441789E-03 -1.85142048E-03 -3.54006327E-03  2.02044272E-03 -1.21792591E-03
  1.45987056E-01  8.11852246E-02 -1.39883438E-01 -2.28029130E-02  4.99870327E-02
  3.44574235E-02 -6.01356468E-02  5.13482381E-02  2.34782616E-02  1.50730869E-02
 -1.34414749E-02 -2.36689487E-02  7.97656961E-02 -2.03903778E-01 -5.02915469E-02
 -2.68334334E-01  6.20923007E-02 -5.19680270E-02 -1.25523121E-02 -1.06936052E-01
  2.17357815E-02  4.78034537E-04 -4.14955269E-03 -1.01502860E-02  7.21187087E-02
 -1.56721679E-01  3.92554035E-01  1.82654959E-01  1.11416828E-01 -2.99148153E-01
  1.63596871E-01  8.36089114E-02  2.49226194E-02 -9.92290711E-02  9.05450159E-03
  7.24081188E-03  7.94470333E-03 -7.49862785E-02 -5.46538151E-02 -3.52256369E-02
 -3.04394499E-02 -7.78549754E-02 -5.30880604E-02 -7.04684034E-02 -4.66369942E-02
 -3.35889839E-03  6.78963194E-03 -1.71386934E-01  2.65418797E-01  3.83405599E-02
  2.71263145E-02 -9.32542853E-02  1.28745241E-01  2.41594542E-02  1.70961158E-01
 -5.46309595E-02  7.43744459E-03  1.35530801E-02 -1.52347173E-02  2.87685951E-02
  8.96876623E-02 -1.21004328E-01  6.34811027E-02  5.29944500E-02  1.47358279E-02
 -6.56141668E-02  3.92884240E-02 -1.86443669E-01 -9.72079867E-03 -4.43565397E-02
  1.78255200E-02  1.91490814E-02 -3.24982436E-02 -2.49550320E-01 -6.88236213E-02
  1.07243604E-01 -7.33094782E-02 -9.83485462E-02 -1.57499274E-02  7.72190069E-02
  1.00826325E-02 -1.35874739E-02 -4.47186761E-03  1.70157456E-02  1.94662912E-02
 -4.14648097E-02 -4.71793207E-03  2.31735292E-02  3.20912592E-01 -8.07175401E-02
 -2.21279828E-02  1.62987551E-03  1.82321586E-01 -1.18533169E-02  1.09443597E-02
  3.14801408E-03  8.48895343E-03 -2.48859674E-02 -2.39547756E-02 -1.95316501E-01
 -1.34243059E-01  1.78761416E-01  1.25566033E-01  1.10262298E-01  7.79963083E-02
 -1.73753682E-02  4.11252590E-02 -3.54305284E-02 -1.79318181E-01  1.00176955E-01
  2.35348306E-02  8.58467514E-03 -8.84900644E-02  4.72337479E-02  1.57494434E-01
 -3.62728514E-02 -2.78587033E-02  2.02354320E-02  7.11559219E-03 -8.67606354E-03
  6.46113675E-02  2.39806939E-01  1.76225637E-02 -6.03270807E-02  2.57848425E-02
  1.32883798E-01  8.87709340E-03 -1.33047815E-01 -3.69909221E-02  6.91064700E-03
  7.61492252E-03 -1.46235524E-02  3.70040424E-02 -1.40834688E-02 -2.08962929E-01
  1.87609856E-01  2.09514759E-02 -5.95948493E-03 -1.25322063E-01  1.11921641E-01
 -5.24572125E-02 -2.05133137E-02 -1.75109664E-02  2.32463921E-02  8.43433640E-04
 -1.39153824E-03 -4.55525491E-02 -2.76131128E-01  2.83661787E-01  2.07208675E-03
 -3.07909750E-02 -1.64022524E-01  1.79407621E-01  1.45347134E-02  6.05145060E-03
 -7.44367229E-03  5.66709184E-03 -3.52350110E-02 -1.32617255E-02  5.77681812E-02
  3.31161591E-02 -1.26307964E-01 -9.77359037E-02 -1.80769652E-01 -1.10368522E-01
  2.47007673E-03 -4.80868551E-03  1.22310665E-01  7.11897042E-02  3.61820753E-01
  8.02713279E-03  8.03881077E-02  4.19003035E-02  2.35880523E-01 -6.53160418E-02
  2.83251469E-02  8.92421317E-03  2.70452961E-02 -7.78712050E-03  1.76047572E-02
  6.21556279E-02  8.33311009E-02  3.71193350E-01  1.56336653E-02  4.20355534E-02
  3.92906385E-02  2.47775524E-01  1.66527914E-01  6.16944235E-04  3.48860140E-02
  4.05565641E-02  3.00383565E-03  3.27665486E-03  5.29354592E-03 -3.54349038E-02
 -6.43276441E-02 -5.34510510E-02  4.97134272E-02 -4.28006331E-03 -1.83982148E-02
 -1.13652931E-01 -1.97630931E-02  1.32922636E-02 -1.86775933E-02 -2.23766838E-03
  6.61864627E-03  1.28532319E-01  1.18726480E-01 -1.09499401E-01  3.32086788E-02
  8.58131354E-02  8.93730478E-02 -7.01618783E-02  2.88760200E-02  1.77004375E-02
  7.93451352E-03 -5.32673661E-03 -6.33618696E-02 -5.73850702E-02  1.14757428E-02
  3.79817977E-03 -4.70631527E-03 -8.83381790E-03 -1.21717974E-02 -2.16010017E-02
  6.16089416E-03 -1.45287730E-02  5.29704237E-02 -1.57885783E-02 -5.07005592E-02
 -3.14471429E-02  5.27295674E-02 -4.23802367E-02 -4.18521505E-02 -4.38212288E-02
  1.43332381E-02 -1.35634095E-02 -1.85570392E-02 -3.52299690E-02  7.04485220E-02
 -1.99474820E-01  1.09425104E-01 -9.84662751E-04  2.59257520E-01 -1.55841851E-01
  1.45373574E-01  3.70875096E-03  4.36441935E-03  3.06624113E-02  2.94950450E-02
  1.54429158E-02 -3.78404697E-04  1.73738568E-02  8.33742397E-02 -1.23850838E-01
 -4.60508654E-02 -6.39547298E-02 -8.35430910E-02  2.09227141E-02 -1.99821809E-03
  2.86649180E-02 -2.28439423E-02 -1.39592131E-02 -1.51679789E-02 -1.04987609E-03
  4.20847292E-03 -3.00440311E-01  4.61281400E-01  1.98538951E-01 -8.49281723E-03
 -2.08283280E-01  3.10284225E-01  1.28591038E-01 -3.34951640E-02 -2.95600757E-02