 Entering Gaussian System, Link 0=/opt/cluster/programs/g09_d.01/g09//g09
 Input=/home/unibas/boittier/RDKit_G2/B.pdb/SCAN_1_2_3_4_S_17_20.0/6_SCAN_1_2_3_4_F/6_SCAN_B.pdb.com
 Output=/scratch/boittier/6_SCAN_B.pdb/6_SCAN_B.pdb.out
 Initial command:
 /opt/cluster/programs/g09_d.01/g09/l1.exe "/scratch/boittier/6_SCAN_B.pdb/Gau-183798.inp" -scrdir="/scratch/boittier/6_SCAN_B.pdb/"
 Entering Link 1 = /opt/cluster/programs/g09_d.01/g09/l1.exe PID=    183800.
  
 Copyright (c) 1988,1990,1992,1993,1995,1998,2003,2009,2013,
            Gaussian, Inc.  All Rights Reserved.
  
 This is part of the Gaussian(R) 09 program.  It is based on
 the Gaussian(R) 03 system (copyright 2003, Gaussian, Inc.),
 the Gaussian(R) 98 system (copyright 1998, Gaussian, Inc.),
 the Gaussian(R) 94 system (copyright 1995, Gaussian, Inc.),
 the Gaussian 92(TM) system (copyright 1992, Gaussian, Inc.),
 the Gaussian 90(TM) system (copyright 1990, Gaussian, Inc.),
 the Gaussian 88(TM) system (copyright 1988, Gaussian, Inc.),
 the Gaussian 86(TM) system (copyright 1986, Carnegie Mellon
 University), and the Gaussian 82(TM) system (copyright 1983,
 Carnegie Mellon University). Gaussian is a federally registered
 trademark of Gaussian, Inc.
  
 This software contains proprietary and confidential information,
 including trade secrets, belonging to Gaussian, Inc.
  
 This software is provided under written license and may be
 used, copied, transmitted, or stored only in accord with that
 written license.
  
 The following legend is applicable only to US Government
 contracts under FAR:
  
                    RESTRICTED RIGHTS LEGEND
  
 Use, reproduction and disclosure by the US Government is
 subject to restrictions as set forth in subparagraphs (a)
 and (c) of the Commercial Computer Software - Restricted
 Rights clause in FAR 52.227-19.
  
 Gaussian, Inc.
 340 Quinnipiac St., Bldg. 40, Wallingford CT 06492
  
  
 ---------------------------------------------------------------
 Warning -- This program may not be used in any manner that
 competes with the business of Gaussian, Inc. or will provide
 assistance to any competitor of Gaussian, Inc.  The licensee
 of this program is prohibited from giving any competitor of
 Gaussian, Inc. access to this program.  By using this program,
 the user acknowledges that Gaussian, Inc. is engaged in the
 business of creating and licensing software in the field of
 computational chemistry and represents and warrants to the
 licensee that it is not a competitor of Gaussian, Inc. and that
 it will not use this program in any manner prohibited above.
 ---------------------------------------------------------------
  

 Cite this work as:
 Gaussian 09, Revision D.01,
 M. J. Frisch, G. W. Trucks, H. B. Schlegel, G. E. Scuseria, 
 M. A. Robb, J. R. Cheeseman, G. Scalmani, V. Barone, B. Mennucci, 
 G. A. Petersson, H. Nakatsuji, M. Caricato, X. Li, H. P. Hratchian, 
 A. F. Izmaylov, J. Bloino, G. Zheng, J. L. Sonnenberg, M. Hada, 
 M. Ehara, K. Toyota, R. Fukuda, J. Hasegawa, M. Ishida, T. Nakajima, 
 Y. Honda, O. Kitao, H. Nakai, T. Vreven, J. A. Montgomery, Jr., 
 J. E. Peralta, F. Ogliaro, M. Bearpark, J. J. Heyd, E. Brothers, 
 K. N. Kudin, V. N. Staroverov, T. Keith, R. Kobayashi, J. Normand, 
 K. Raghavachari, A. Rendell, J. C. Burant, S. S. Iyengar, J. Tomasi, 
 M. Cossi, N. Rega, J. M. Millam, M. Klene, J. E. Knox, J. B. Cross, 
 V. Bakken, C. Adamo, J. Jaramillo, R. Gomperts, R. E. Stratmann, 
 O. Yazyev, A. J. Austin, R. Cammi, C. Pomelli, J. W. Ochterski, 
 R. L. Martin, K. Morokuma, V. G. Zakrzewski, G. A. Voth, 
 P. Salvador, J. J. Dannenberg, S. Dapprich, A. D. Daniels, 
 O. Farkas, J. B. Foresman, J. V. Ortiz, J. Cioslowski, 
 and D. J. Fox, Gaussian, Inc., Wallingford CT, 2013.
 
 ******************************************
 Gaussian 09:  ES64L-G09RevD.01 24-Apr-2013
                12-May-2021 
 ******************************************
 %chk=/home/unibas/boittier/RDKit_G2/B.pdb/SCAN_1_2_3_4_S_17_20.0/6_SCAN_1_2_3_4_
 F/B.pdb.chk
 %nproc=8
 Will use up to    8 processors via shared memory.
 %mem=16GB
 -----------------------------
 #p wB97XD/6-31+G Opt=ModRedun
 -----------------------------
 1/14=-1,18=120,19=15,26=3,38=1/1,3;
 2/9=110,12=2,17=6,18=5,40=1/2;
 3/5=1,6=6,7=10,11=2,16=1,25=1,30=1,71=1,74=-58/1,2,3;
 4//1;
 5/5=2,38=5/2;
 6/7=2,8=2,9=2,10=2,28=1/1;
 7//1,2,3,16;
 1/14=-1,18=20,19=15,26=3/3(2);
 2/9=110/2;
 99//99;
 2/9=110/2;
 3/5=1,6=6,7=10,11=2,16=1,25=1,30=1,71=1,74=-58/1,2,3;
 4/5=5,16=3,69=1/1;
 5/5=2,38=5/2;
 7//1,2,3,16;
 1/14=-1,18=20,19=15,26=3/3(-5);
 2/9=110/2;
 6/7=2,8=2,9=2,10=2,19=2,28=1/1;
 99/9=1/99;
 Leave Link    1 at Wed May 12 11:55:58 2021, MaxMem=  2147483648 cpu:         0.3
 (Enter /opt/cluster/programs/g09_d.01/g09/l101.exe)
 -----
 B.pdb
 -----
 Symbolic Z-matrix:
 Charge =  0 Multiplicity = 1
 C                    -1.05337  -1.25879  -0.08241 
 C                    -0.46699  -0.06197  -0.05926 
 C                     0.90707   0.34048  -0.37936 
 C                     1.9932   -0.12584   0.2573 
 H                    -2.10461  -1.37563   0.15172 
 H                    -0.47837  -2.14174  -0.33333 
 F                    -1.28944   1.07636   0.20618 
 H                     1.00083   1.11464  -1.13942 
 H                     1.91671  -0.85269   1.06128 
 H                     2.99094   0.20484  -0.01356 
 
 The following ModRedundant input section has been read:
 D       1       2       3       4 F                                           
 
 NAtoms=     10 NQM=       10 NQMF=       0 NMMI=      0 NMMIF=      0
                NMic=       0 NMicF=      0.
                    Isotopes and Nuclear Properties:
 (Nuclear quadrupole moments (NQMom) in fm**2, nuclear magnetic moments (NMagM)
  in nuclear magnetons)

  Atom         1           2           3           4           5           6           7           8           9          10
 IAtWgt=          12          12          12          12           1           1          19           1           1           1
 AtmWgt=  12.0000000  12.0000000  12.0000000  12.0000000   1.0078250   1.0078250  18.9984033   1.0078250   1.0078250   1.0078250
 NucSpn=           0           0           0           0           1           1           1           1           1           1
 AtZEff=   0.0000000   0.0000000   0.0000000   0.0000000   0.0000000   0.0000000   0.0000000   0.0000000   0.0000000   0.0000000
 NQMom=    0.0000000   0.0000000   0.0000000   0.0000000   0.0000000   0.0000000   0.0000000   0.0000000   0.0000000   0.0000000
 NMagM=    0.0000000   0.0000000   0.0000000   0.0000000   2.7928460   2.7928460   2.6288670   2.7928460   2.7928460   2.7928460
 AtZNuc=   6.0000000   6.0000000   6.0000000   6.0000000   1.0000000   1.0000000   9.0000000   1.0000000   1.0000000   1.0000000
 Leave Link  101 at Wed May 12 11:55:59 2021, MaxMem=  2147483648 cpu:         5.5
 (Enter /opt/cluster/programs/g09_d.01/g09/l103.exe)

 GradGradGradGradGradGradGradGradGradGradGradGradGradGradGradGradGradGrad
 Berny optimization.
 Initialization pass.
                           ----------------------------
                           !    Initial Parameters    !
                           ! (Angstroms and Degrees)  !
 --------------------------                            --------------------------
 ! Name  Definition              Value          Derivative Info.                !
 --------------------------------------------------------------------------------
 ! R1    R(1,2)                  1.3329         estimate D2E/DX2                !
 ! R2    R(1,5)                  1.0833         estimate D2E/DX2                !
 ! R3    R(1,6)                  1.0831         estimate D2E/DX2                !
 ! R4    R(2,3)                  1.4671         estimate D2E/DX2                !
 ! R5    R(2,7)                  1.4292         estimate D2E/DX2                !
 ! R6    R(3,4)                  1.3426         estimate D2E/DX2                !
 ! R7    R(3,8)                  1.089          estimate D2E/DX2                !
 ! R8    R(4,9)                  1.0865         estimate D2E/DX2                !
 ! R9    R(4,10)                 1.0854         estimate D2E/DX2                !
 ! A1    A(2,1,5)              121.3303         estimate D2E/DX2                !
 ! A2    A(2,1,6)              120.1608         estimate D2E/DX2                !
 ! A3    A(5,1,6)              118.5081         estimate D2E/DX2                !
 ! A4    A(1,2,3)              130.8822         estimate D2E/DX2                !
 ! A5    A(1,2,7)              117.7235         estimate D2E/DX2                !
 ! A6    A(3,2,7)              111.1613         estimate D2E/DX2                !
 ! A7    A(2,3,4)              123.9827         estimate D2E/DX2                !
 ! A8    A(2,3,8)              115.3369         estimate D2E/DX2                !
 ! A9    A(4,3,8)              120.5478         estimate D2E/DX2                !
 ! A10   A(3,4,9)              121.7554         estimate D2E/DX2                !
 ! A11   A(3,4,10)             121.2977         estimate D2E/DX2                !
 ! A12   A(9,4,10)             116.9462         estimate D2E/DX2                !
 ! D1    D(5,1,2,3)           -177.6083         estimate D2E/DX2                !
 ! D2    D(5,1,2,7)             -3.7076         estimate D2E/DX2                !
 ! D3    D(6,1,2,3)              2.734          estimate D2E/DX2                !
 ! D4    D(6,1,2,7)            176.6348         estimate D2E/DX2                !
 ! D5    D(1,2,3,4)            -59.9889         Frozen                          !
 ! D6    D(1,2,3,8)            124.189          estimate D2E/DX2                !
 ! D7    D(7,2,3,4)            125.7995         estimate D2E/DX2                !
 ! D8    D(7,2,3,8)            -50.0226         estimate D2E/DX2                !
 ! D9    D(2,3,4,9)              0.5243         estimate D2E/DX2                !
 ! D10   D(2,3,4,10)          -179.7891         estimate D2E/DX2                !
 ! D11   D(8,3,4,9)            176.1393         estimate D2E/DX2                !
 ! D12   D(8,3,4,10)            -4.1741         estimate D2E/DX2                !
 --------------------------------------------------------------------------------
 Trust Radius=3.00D-01 FncErr=1.00D-07 GrdErr=1.00D-06
 Number of steps in this run=     43 maximum allowed number of steps=    100.
 GradGradGradGradGradGradGradGradGradGradGradGradGradGradGradGradGradGrad

 Leave Link  103 at Wed May 12 11:55:59 2021, MaxMem=  2147483648 cpu:         0.1
 (Enter /opt/cluster/programs/g09_d.01/g09/l202.exe)
                          Input orientation:                          
 ---------------------------------------------------------------------
 Center     Atomic      Atomic             Coordinates (Angstroms)
 Number     Number       Type             X           Y           Z
 ---------------------------------------------------------------------
      1          6           0       -1.053366   -1.258787   -0.082413
      2          6           0       -0.466991   -0.061965   -0.059256
      3          6           0        0.907070    0.340481   -0.379355
      4          6           0        1.993204   -0.125835    0.257300
      5          1           0       -2.104615   -1.375633    0.151724
      6          1           0       -0.478374   -2.141740   -0.333325
      7          9           0       -1.289444    1.076359    0.206184
      8          1           0        1.000834    1.114637   -1.139423
      9          1           0        1.916714   -0.852691    1.061277
     10          1           0        2.990935    0.204835   -0.013561
 ---------------------------------------------------------------------
                    Distance matrix (angstroms):
                    1          2          3          4          5
     1  C    0.000000
     2  C    1.332950   0.000000
     3  C    2.547379   1.467130   0.000000
     4  C    3.268115   2.481299   1.342560   0.000000
     5  H    1.083327   2.109988   3.506756   4.285471   0.000000
     6  H    1.083134   2.097786   2.843061   3.243672   1.861949
     7  F    2.364726   1.429220   2.389361   3.496235   2.584518
     8  H    3.312122   2.169254   1.088950   2.115279   4.184772
     9  H    3.208476   2.750071   2.125667   1.086531   4.155941
    10  H    4.301546   3.468504   2.120070   1.085438   5.337586
                    6          7          8          9         10
     6  H    0.000000
     7  F    3.362301   0.000000
     8  H    3.666312   2.656595   0.000000
     9  H    3.056634   3.838211   3.090679   0.000000
    10  H    4.200568   4.373727   2.460855   1.851375   0.000000
 Stoichiometry    C4H5F
 Framework group  C1[X(C4H5F)]
 Deg. of freedom    24
 Full point group                 C1      NOp   1
 Largest Abelian subgroup         C1      NOp   1
 Largest concise Abelian subgroup C1      NOp   1
                         Standard orientation:                         
 ---------------------------------------------------------------------
 Center     Atomic      Atomic             Coordinates (Angstroms)
 Number     Number       Type             X           Y           Z
 ---------------------------------------------------------------------
      1          6           0       -1.053366    1.258787    0.082413
      2          6           0       -0.466991    0.061965    0.059256
      3          6           0        0.907070   -0.340481    0.379355
      4          6           0        1.993204    0.125835   -0.257300
      5          1           0       -2.104615    1.375633   -0.151724
      6          1           0       -0.478374    2.141740    0.333325
      7          9           0       -1.289444   -1.076359   -0.206184
      8          1           0        1.000834   -1.114637    1.139423
      9          1           0        1.916714    0.852691   -1.061277
     10          1           0        2.990935   -0.204835    0.013561
 ---------------------------------------------------------------------
 Rotational constants (GHZ):      8.9233045      3.9021066      2.9002304
 Leave Link  202 at Wed May 12 11:55:59 2021, MaxMem=  2147483648 cpu:         0.0
 (Enter /opt/cluster/programs/g09_d.01/g09/l301.exe)
 Standard basis: 6-31+G (6D, 7F)
 Ernie: Thresh=  0.10000D-02 Tol=  0.10000D-05 Strict=F.
 There are    75 symmetry adapted cartesian basis functions of A   symmetry.
 There are    75 symmetry adapted basis functions of A   symmetry.
    75 basis functions,   150 primitive gaussians,    75 cartesian basis functions
    19 alpha electrons       19 beta electrons
       nuclear repulsion energy       155.8942199823 Hartrees.
 IExCor= 4639 DFT=T Ex+Corr=wB97XD ExCW=0 ScaHFX=  1.000000
 ScaDFX=  1.000000  1.000000  1.000000  1.000000 ScalE2=  1.000000  1.000000
 IRadAn=      0 IRanWt=     -1 IRanGd=            0 ICorTp=0 IEmpDi=121
  HFx wShort=  0.000000 wLong=  0.200000 cFull=  0.222036 cShort=  0.000000 cLong=  0.777964
  DFx wShort=  0.000000 wLong=  0.200000 cFull=  0.000000 cShort=  0.000000 cLong=  1.000000
 NAtoms=   10 NActive=   10 NUniq=   10 SFac= 1.00D+00 NAtFMM=   60 NAOKFM=F Big=F
 Integral buffers will be    131072 words long.
 Raffenetti 2 integral format.
 Two-electron integral symmetry is turned on.
 R6Disp:  Grimme-D2 Dispersion energy=       -0.0030513949 Hartrees.
 Nuclear repulsion after empirical dispersion term =      155.8911685874 Hartrees.
 Leave Link  301 at Wed May 12 11:55:59 2021, MaxMem=  2147483648 cpu:         0.4
 (Enter /opt/cluster/programs/g09_d.01/g09/l302.exe)
 NPDir=0 NMtPBC=     1 NCelOv=     1 NCel=       1 NClECP=     1 NCelD=      1
         NCelK=      1 NCelE2=     1 NClLst=     1 CellRange=     0.0.
 One-electron integrals computed using PRISM.
 NBasis=    75 RedAO= T EigKep=  6.43D-05  NBF=    75
 NBsUse=    75 1.00D-06 EigRej= -1.00D+00 NBFU=    75
 Precomputing XC quadrature grid using
 IXCGrd= 4 IRadAn=           0 IRanWt=          -1 IRanGd=           0 AccXCQ= 0.00D+00.
 Generated NRdTot=       0 NPtTot=           0 NUsed=           0 NTot=          32
 NSgBfM=    75    75    75    75    75 MxSgAt=    10 MxSgA2=    10.
 Leave Link  302 at Wed May 12 11:55:59 2021, MaxMem=  2147483648 cpu:         1.0
 (Enter /opt/cluster/programs/g09_d.01/g09/l303.exe)
 DipDrv:  MaxL=1.
 Leave Link  303 at Wed May 12 11:55:59 2021, MaxMem=  2147483648 cpu:         0.3
 (Enter /opt/cluster/programs/g09_d.01/g09/l401.exe)
 ExpMin= 4.38D-02 ExpMax= 7.00D+03 ExpMxC= 1.05D+03 IAcc=2 IRadAn=         4 AccDes= 0.00D+00
 Harris functional with IExCor= 4639 and IRadAn=       4 diagonalized for initial guess.
 HarFok:  IExCor= 4639 AccDes= 0.00D+00 IRadAn=         4 IDoV= 1 UseB2=F ITyADJ=14
 ICtDFT=  3500011 ScaDFX=  1.000000  1.000000  1.000000  1.000000
 FoFCou: FMM=F IPFlag=           0 FMFlag=      100000 FMFlg1=           0
         NFxFlg=           0 DoJE=T BraDBF=F KetDBF=T FulRan=T
         wScrn=  0.000000 ICntrl=     500 IOpCl=  0 I1Cent=   200000004 NGrid=           0
         NMat0=    1 NMatS0=      1 NMatT0=    0 NMatD0=    1 NMtDS0=    0 NMtDT0=    0
 Petite list used in FoFCou.
 Harris En= -244.785927177320    
 JPrj=0 DoOrth=F DoCkMO=F.
 Leave Link  401 at Wed May 12 11:55:59 2021, MaxMem=  2147483648 cpu:         1.4
 (Enter /opt/cluster/programs/g09_d.01/g09/l502.exe)
 Closed shell SCF:
 Using DIIS extrapolation, IDIIS=  1040.
 Integral symmetry usage will be decided dynamically.
 Keep R1 ints in memory in canonical form, NReq=9056162.
 IVT=       36600 IEndB=       36600 NGot=  2147483648 MDV=  2139321699
 LenX=  2139321699 LenY=  2139315633
 Requested convergence on RMS density matrix=1.00D-08 within 128 cycles.
 Requested convergence on MAX density matrix=1.00D-06.
 Requested convergence on             energy=1.00D-06.
 No special actions if energy rises.
 FoFCou: FMM=F IPFlag=           0 FMFlag=           0 FMFlg1=           0
         NFxFlg=           0 DoJE=F BraDBF=F KetDBF=F FulRan=T
         wScrn=  0.000000 ICntrl=     600 IOpCl=  0 I1Cent=           0 NGrid=           0
         NMat0=    1 NMatS0=   2850 NMatT0=    0 NMatD0=    1 NMtDS0=    0 NMtDT0=    0
 Symmetry not used in FoFCou.

 Cycle   1  Pass 1  IDiag  1:
 E= -254.924228725570    
 DIIS: error= 4.74D-02 at cycle   1 NSaved=   1.
 NSaved= 1 IEnMin= 1 EnMin= -254.924228725570     IErMin= 1 ErrMin= 4.74D-02
 ErrMax= 4.74D-02  0.00D+00 EMaxC= 1.00D-01 BMatC= 2.67D-01 BMatP= 2.67D-01
 IDIUse=3 WtCom= 5.26D-01 WtEn= 4.74D-01
 Coeff-Com:  0.100D+01
 Coeff-En:   0.100D+01
 Coeff:      0.100D+01
 Gap=     0.460 Goal=   None    Shift=    0.000
 GapD=    0.460 DampG=2.000 DampE=0.500 DampFc=1.0000 IDamp=-1.
 RMSDP=2.06D-02 MaxDP=4.67D-01              OVMax= 1.83D-01

 Cycle   2  Pass 1  IDiag  1:
 E= -254.870035159753     Delta-E=        0.054193565816 Rises=F Damp=F
 DIIS: error= 5.71D-02 at cycle   2 NSaved=   2.
 NSaved= 2 IEnMin= 1 EnMin= -254.924228725570     IErMin= 1 ErrMin= 4.74D-02
 ErrMax= 5.71D-02  0.00D+00 EMaxC= 1.00D-01 BMatC= 3.25D-01 BMatP= 2.67D-01
 IDIUse=2 WtCom= 0.00D+00 WtEn= 1.00D+00
 Coeff-En:   0.565D+00 0.435D+00
 Coeff:      0.565D+00 0.435D+00
 Gap=     0.420 Goal=   None    Shift=    0.000
 RMSDP=6.84D-03 MaxDP=9.40D-02 DE= 5.42D-02 OVMax= 1.07D-01

 Cycle   3  Pass 1  IDiag  1:
 E= -255.095320666491     Delta-E=       -0.225285506738 Rises=F Damp=F
 DIIS: error= 3.66D-03 at cycle   3 NSaved=   3.
 NSaved= 3 IEnMin= 3 EnMin= -255.095320666491     IErMin= 3 ErrMin= 3.66D-03
 ErrMax= 3.66D-03  0.00D+00 EMaxC= 1.00D-01 BMatC= 1.34D-03 BMatP= 2.67D-01
 IDIUse=3 WtCom= 9.63D-01 WtEn= 3.66D-02
 Coeff-Com: -0.412D-02-0.655D-01 0.107D+01
 Coeff-En:   0.000D+00 0.000D+00 0.100D+01
 Coeff:     -0.397D-02-0.631D-01 0.107D+01
 Gap=     0.368 Goal=   None    Shift=    0.000
 RMSDP=2.42D-03 MaxDP=6.06D-02 DE=-2.25D-01 OVMax= 9.27D-03

 Cycle   4  Pass 1  IDiag  1:
 E= -255.096311368807     Delta-E=       -0.000990702316 Rises=F Damp=F
 DIIS: error= 1.43D-03 at cycle   4 NSaved=   4.
 NSaved= 4 IEnMin= 4 EnMin= -255.096311368807     IErMin= 4 ErrMin= 1.43D-03
 ErrMax= 1.43D-03  0.00D+00 EMaxC= 1.00D-01 BMatC= 1.78D-04 BMatP= 1.34D-03
 IDIUse=3 WtCom= 9.86D-01 WtEn= 1.43D-02
 Coeff-Com: -0.803D-02-0.370D-01 0.491D+00 0.554D+00
 Coeff-En:   0.000D+00 0.000D+00 0.000D+00 0.100D+01
 Coeff:     -0.792D-02-0.365D-01 0.484D+00 0.560D+00
 Gap=     0.369 Goal=   None    Shift=    0.000
 RMSDP=4.86D-04 MaxDP=1.12D-02 DE=-9.91D-04 OVMax= 4.30D-03

 Cycle   5  Pass 1  IDiag  1:
 E= -255.096491936600     Delta-E=       -0.000180567793 Rises=F Damp=F
 DIIS: error= 3.71D-04 at cycle   5 NSaved=   5.
 NSaved= 5 IEnMin= 5 EnMin= -255.096491936600     IErMin= 5 ErrMin= 3.71D-04
 ErrMax= 3.71D-04  0.00D+00 EMaxC= 1.00D-01 BMatC= 9.95D-06 BMatP= 1.78D-04
 IDIUse=3 WtCom= 9.96D-01 WtEn= 3.71D-03
 Coeff-Com: -0.204D-02-0.399D-02-0.995D-02 0.106D+00 0.910D+00
 Coeff-En:   0.000D+00 0.000D+00 0.000D+00 0.000D+00 0.100D+01
 Coeff:     -0.203D-02-0.397D-02-0.991D-02 0.106D+00 0.910D+00
 Gap=     0.369 Goal=   None    Shift=    0.000
 RMSDP=2.94D-04 MaxDP=6.72D-03 DE=-1.81D-04 OVMax= 2.18D-03

 Cycle   6  Pass 1  IDiag  1:
 E= -255.096506542834     Delta-E=       -0.000014606235 Rises=F Damp=F
 DIIS: error= 1.66D-04 at cycle   6 NSaved=   6.
 NSaved= 6 IEnMin= 6 EnMin= -255.096506542834     IErMin= 6 ErrMin= 1.66D-04
 ErrMax= 1.66D-04  0.00D+00 EMaxC= 1.00D-01 BMatC= 2.68D-06 BMatP= 9.95D-06
 IDIUse=3 WtCom= 9.98D-01 WtEn= 1.66D-03
 Coeff-Com:  0.484D-03 0.412D-02-0.873D-01-0.599D-01 0.416D+00 0.726D+00
 Coeff-En:   0.000D+00 0.000D+00 0.000D+00 0.000D+00 0.000D+00 0.100D+01
 Coeff:      0.483D-03 0.411D-02-0.872D-01-0.598D-01 0.415D+00 0.727D+00
 Gap=     0.369 Goal=   None    Shift=    0.000
 RMSDP=1.14D-04 MaxDP=2.66D-03 DE=-1.46D-05 OVMax= 6.19D-04

 Cycle   7  Pass 1  IDiag  1:
 E= -255.096510140700     Delta-E=       -0.000003597866 Rises=F Damp=F
 DIIS: error= 1.76D-05 at cycle   7 NSaved=   7.
 NSaved= 7 IEnMin= 7 EnMin= -255.096510140700     IErMin= 7 ErrMin= 1.76D-05
 ErrMax= 1.76D-05  0.00D+00 EMaxC= 1.00D-01 BMatC= 2.72D-08 BMatP= 2.68D-06
 IDIUse=1 WtCom= 1.00D+00 WtEn= 0.00D+00
 Coeff-Com:  0.826D-04-0.258D-03 0.597D-02-0.316D-02-0.495D-01-0.591D-01
 Coeff-Com:  0.111D+01
 Coeff:      0.826D-04-0.258D-03 0.597D-02-0.316D-02-0.495D-01-0.591D-01
 Coeff:      0.111D+01
 Gap=     0.369 Goal=   None    Shift=    0.000
 RMSDP=1.84D-05 MaxDP=3.04D-04 DE=-3.60D-06 OVMax= 1.96D-04

 Cycle   8  Pass 1  IDiag  1:
 E= -255.096510220175     Delta-E=       -0.000000079475 Rises=F Damp=F
 DIIS: error= 5.70D-06 at cycle   8 NSaved=   8.
 NSaved= 8 IEnMin= 8 EnMin= -255.096510220175     IErMin= 8 ErrMin= 5.70D-06
 ErrMax= 5.70D-06  0.00D+00 EMaxC= 1.00D-01 BMatC= 4.48D-09 BMatP= 2.72D-08
 IDIUse=1 WtCom= 1.00D+00 WtEn= 0.00D+00
 Coeff-Com:  0.395D-05-0.267D-03 0.587D-02 0.157D-02-0.338D-01-0.571D-01
 Coeff-Com:  0.317D+00 0.767D+00
 Coeff:      0.395D-05-0.267D-03 0.587D-02 0.157D-02-0.338D-01-0.571D-01
 Coeff:      0.317D+00 0.767D+00
 Gap=     0.369 Goal=   None    Shift=    0.000
 RMSDP=4.54D-06 MaxDP=9.22D-05 DE=-7.95D-08 OVMax= 3.46D-05

 Cycle   9  Pass 1  IDiag  1:
 E= -255.096510226481     Delta-E=       -0.000000006306 Rises=F Damp=F
 DIIS: error= 1.77D-06 at cycle   9 NSaved=   9.
 NSaved= 9 IEnMin= 9 EnMin= -255.096510226481     IErMin= 9 ErrMin= 1.77D-06
 ErrMax= 1.77D-06  0.00D+00 EMaxC= 1.00D-01 BMatC= 3.30D-10 BMatP= 4.48D-09
 IDIUse=1 WtCom= 1.00D+00 WtEn= 0.00D+00
 Coeff-Com: -0.441D-05-0.420D-05 0.252D-03 0.384D-03 0.967D-03-0.460D-02
 Coeff-Com: -0.640D-01 0.135D+00 0.932D+00
 Coeff:     -0.441D-05-0.420D-05 0.252D-03 0.384D-03 0.967D-03-0.460D-02
 Coeff:     -0.640D-01 0.135D+00 0.932D+00
 Gap=     0.369 Goal=   None    Shift=    0.000
 RMSDP=2.32D-06 MaxDP=5.45D-05 DE=-6.31D-09 OVMax= 2.47D-05

 Cycle  10  Pass 1  IDiag  1:
 E= -255.096510227207     Delta-E=       -0.000000000726 Rises=F Damp=F
 DIIS: error= 9.53D-07 at cycle  10 NSaved=  10.
 NSaved=10 IEnMin=10 EnMin= -255.096510227207     IErMin=10 ErrMin= 9.53D-07
 ErrMax= 9.53D-07  0.00D+00 EMaxC= 1.00D-01 BMatC= 8.84D-11 BMatP= 3.30D-10
 IDIUse=1 WtCom= 1.00D+00 WtEn= 0.00D+00
 Coeff-Com: -0.486D-06 0.218D-04-0.347D-03 0.133D-04 0.276D-02 0.166D-02
 Coeff-Com: -0.530D-01-0.533D-02 0.425D+00 0.629D+00
 Coeff:     -0.486D-06 0.218D-04-0.347D-03 0.133D-04 0.276D-02 0.166D-02
 Coeff:     -0.530D-01-0.533D-02 0.425D+00 0.629D+00
 Gap=     0.369 Goal=   None    Shift=    0.000
 RMSDP=3.17D-07 MaxDP=4.51D-06 DE=-7.26D-10 OVMax= 3.02D-06

 Cycle  11  Pass 1  IDiag  1:
 E= -255.096510227314     Delta-E=       -0.000000000108 Rises=F Damp=F
 DIIS: error= 1.53D-07 at cycle  11 NSaved=  11.
 NSaved=11 IEnMin=11 EnMin= -255.096510227314     IErMin=11 ErrMin= 1.53D-07
 ErrMax= 1.53D-07  0.00D+00 EMaxC= 1.00D-01 BMatC= 1.55D-12 BMatP= 8.84D-11
 IDIUse=1 WtCom= 1.00D+00 WtEn= 0.00D+00
 Coeff-Com:  0.490D-06-0.145D-05-0.228D-04-0.231D-04-0.114D-03 0.579D-03
 Coeff-Com:  0.993D-02-0.158D-01-0.117D+00-0.100D+00 0.122D+01
 Coeff:      0.490D-06-0.145D-05-0.228D-04-0.231D-04-0.114D-03 0.579D-03
 Coeff:      0.993D-02-0.158D-01-0.117D+00-0.100D+00 0.122D+01
 Gap=     0.369 Goal=   None    Shift=    0.000
 RMSDP=1.47D-07 MaxDP=1.86D-06 DE=-1.08D-10 OVMax= 2.20D-06

 Cycle  12  Pass 1  IDiag  1:
 E= -255.096510227322     Delta-E=       -0.000000000007 Rises=F Damp=F
 DIIS: error= 1.81D-08 at cycle  12 NSaved=  12.
 NSaved=12 IEnMin=12 EnMin= -255.096510227322     IErMin=12 ErrMin= 1.81D-08
 ErrMax= 1.81D-08  0.00D+00 EMaxC= 1.00D-01 BMatC= 4.29D-14 BMatP= 1.55D-12
 IDIUse=1 WtCom= 1.00D+00 WtEn= 0.00D+00
 Coeff-Com: -0.372D-07 0.146D-07 0.103D-04 0.646D-05-0.421D-04-0.124D-03
 Coeff-Com: -0.103D-02 0.350D-02 0.179D-01 0.146D-02-0.286D+00 0.126D+01
 Coeff:     -0.372D-07 0.146D-07 0.103D-04 0.646D-05-0.421D-04-0.124D-03
 Coeff:     -0.103D-02 0.350D-02 0.179D-01 0.146D-02-0.286D+00 0.126D+01
 Gap=     0.369 Goal=   None    Shift=    0.000
 RMSDP=3.61D-08 MaxDP=4.85D-07 DE=-7.39D-12 OVMax= 3.67D-07

 Cycle  13  Pass 1  IDiag  1:
 E= -255.096510227322     Delta-E=        0.000000000000 Rises=F Damp=F
 DIIS: error= 2.68D-09 at cycle  13 NSaved=  13.
 NSaved=13 IEnMin=13 EnMin= -255.096510227322     IErMin=13 ErrMin= 2.68D-09
 ErrMax= 2.68D-09  0.00D+00 EMaxC= 1.00D-01 BMatC= 9.99D-16 BMatP= 4.29D-14
 IDIUse=1 WtCom= 1.00D+00 WtEn= 0.00D+00
 Coeff-Com: -0.119D-07-0.110D-07-0.132D-06-0.164D-07 0.246D-05 0.511D-05
 Coeff-Com:  0.749D-05-0.268D-03-0.427D-03 0.619D-03 0.212D-01-0.202D+00
 Coeff-Com:  0.118D+01
 Coeff:     -0.119D-07-0.110D-07-0.132D-06-0.164D-07 0.246D-05 0.511D-05
 Coeff:      0.749D-05-0.268D-03-0.427D-03 0.619D-03 0.212D-01-0.202D+00
 Coeff:      0.118D+01
 Gap=     0.369 Goal=   None    Shift=    0.000
 RMSDP=4.03D-09 MaxDP=5.59D-08 DE=-1.14D-13 OVMax= 5.29D-08

 SCF Done:  E(RwB97XD) =  -255.096510227     A.U. after   13 cycles
            NFock= 13  Conv=0.40D-08     -V/T= 2.0059
 KE= 2.536067235347D+02 PE=-9.094051649912D+02 EE= 2.448107626418D+02
 Leave Link  502 at Wed May 12 11:56:01 2021, MaxMem=  2147483648 cpu:        13.3
 (Enter /opt/cluster/programs/g09_d.01/g09/l601.exe)
 Copying SCF densities to generalized density rwf, IOpCl= 0 IROHF=0.

 **********************************************************************

            Population analysis using the SCF density.

 **********************************************************************

 Orbital symmetries:
       Occupied  (A) (A) (A) (A) (A) (A) (A) (A) (A) (A) (A) (A)
                 (A) (A) (A) (A) (A) (A) (A)
       Virtual   (A) (A) (A) (A) (A) (A) (A) (A) (A) (A) (A) (A)
                 (A) (A) (A) (A) (A) (A) (A) (A) (A) (A) (A) (A)
                 (A) (A) (A) (A) (A) (A) (A) (A) (A) (A) (A) (A)
                 (A) (A) (A) (A) (A) (A) (A) (A) (A) (A) (A) (A)
                 (A) (A) (A) (A) (A) (A) (A) (A)
 The electronic state is 1-A.
 Alpha  occ. eigenvalues --  -24.82725 -10.40358 -10.33282 -10.32249 -10.31194
 Alpha  occ. eigenvalues --   -1.30226  -0.92992  -0.85993  -0.74265  -0.65172
 Alpha  occ. eigenvalues --   -0.60991  -0.57501  -0.55953  -0.52481  -0.50586
 Alpha  occ. eigenvalues --   -0.48332  -0.45430  -0.39323  -0.34268
 Alpha virt. eigenvalues --    0.02642   0.07003   0.07810   0.08513   0.09683
 Alpha virt. eigenvalues --    0.11187   0.12006   0.13249   0.13924   0.14825
 Alpha virt. eigenvalues --    0.16462   0.17414   0.18355   0.18885   0.19746
 Alpha virt. eigenvalues --    0.20058   0.22611   0.23840   0.25622   0.27686
 Alpha virt. eigenvalues --    0.29036   0.31282   0.32091   0.38627   0.41617
 Alpha virt. eigenvalues --    0.42722   0.45414   0.46100   0.47728   0.50308
 Alpha virt. eigenvalues --    0.51865   0.70558   0.71293   0.75034   0.77250
 Alpha virt. eigenvalues --    0.80947   0.82499   0.85010   0.89264   0.93015
 Alpha virt. eigenvalues --    0.97138   0.99895   1.04889   1.06780   1.13513
 Alpha virt. eigenvalues --    1.13961   1.15652   1.22391   1.26016   1.32128
 Alpha virt. eigenvalues --    1.39086   1.43644   1.67380   1.81666   1.85832
 Alpha virt. eigenvalues --    2.35173
          Condensed to atoms (all electrons):
               1          2          3          4          5          6
     1  C    6.313246  -0.136689  -0.389487   0.059814   0.396629   0.317781
     2  C   -0.136689   5.501886   0.309660   0.021624  -0.057456   0.007703
     3  C   -0.389487   0.309660   5.658325   0.334921   0.010697   0.006193
     4  C    0.059814   0.021624   0.334921   5.234387   0.000278   0.008316
     5  H    0.396629  -0.057456   0.010697   0.000278   0.453825  -0.019886
     6  H    0.317781   0.007703   0.006193   0.008316  -0.019886   0.463564
     7  F   -0.155570   0.285888  -0.133774  -0.018658  -0.002531   0.003853
     8  H    0.019195  -0.033194   0.306478   0.019034  -0.000083   0.000131
     9  H    0.009898   0.001946  -0.056901   0.389216  -0.000018   0.000101
    10  H    0.001992   0.009110  -0.037075   0.375927   0.000001  -0.000016
               7          8          9         10
     1  C   -0.155570   0.019195   0.009898   0.001992
     2  C    0.285888  -0.033194   0.001946   0.009110
     3  C   -0.133774   0.306478  -0.056901  -0.037075
     4  C   -0.018658   0.019034   0.389216   0.375927
     5  H   -0.002531  -0.000083  -0.000018   0.000001
     6  H    0.003853   0.000131   0.000101  -0.000016
     7  F    9.305745  -0.000020   0.000375  -0.000258
     8  H   -0.000020   0.459243   0.002546  -0.003125
     9  H    0.000375   0.002546   0.470019  -0.023514
    10  H   -0.000258  -0.003125  -0.023514   0.477651
 Mulliken charges:
               1
     1  C   -0.436810
     2  C    0.089523
     3  C   -0.009037
     4  C   -0.424860
     5  H    0.218544
     6  H    0.212259
     7  F   -0.285050
     8  H    0.229795
     9  H    0.206331
    10  H    0.199306
 Sum of Mulliken charges =   0.00000
 Mulliken charges with hydrogens summed into heavy atoms:
               1
     1  C   -0.006007
     2  C    0.089523
     3  C    0.220757
     4  C   -0.019223
     7  F   -0.285050
 Electronic spatial extent (au):  <R**2>=            435.2450
 Charge=              0.0000 electrons
 Dipole moment (field-independent basis, Debye):
    X=              1.7396    Y=              1.6907    Z=              0.4352  Tot=              2.4645
 Quadrupole moment (field-independent basis, Debye-Ang):
   XX=            -27.7445   YY=            -29.8766   ZZ=            -30.7346
   XY=             -3.1440   XZ=             -0.2379   YZ=             -1.9045
 Traceless Quadrupole moment (field-independent basis, Debye-Ang):
   XX=              1.7074   YY=             -0.4247   ZZ=             -1.2827
   XY=             -3.1440   XZ=             -0.2379   YZ=             -1.9045
 Octapole moment (field-independent basis, Debye-Ang**2):
  XXX=             -1.4659  YYY=             -1.9214  ZZZ=             -1.7164  XYY=             -2.2405
  XXY=              1.7211  XXZ=             -1.8415  XZZ=             -1.6409  YZZ=             -4.2812
  YYZ=              1.5780  XYZ=             -1.8547
 Hexadecapole moment (field-independent basis, Debye-Ang**3):
 XXXX=           -315.5329 YYYY=           -150.3082 ZZZZ=            -52.5300 XXXY=             -3.8887
 XXXZ=              2.6774 YYYX=              5.1865 YYYZ=              0.8071 ZZZX=              1.8048
 ZZZY=             -2.1628 XXYY=            -86.3292 XXZZ=            -69.8048 YYZZ=            -35.0652
 XXYZ=             -6.1082 YYXZ=              0.8980 ZZXY=              4.7366
 N-N= 1.558911685874D+02 E-N=-9.094051650592D+02  KE= 2.536067235347D+02
 No NMR shielding tensors so no spin-rotation constants.
 Leave Link  601 at Wed May 12 11:56:01 2021, MaxMem=  2147483648 cpu:         0.6
 (Enter /opt/cluster/programs/g09_d.01/g09/l701.exe)
 Compute integral first derivatives.
 ... and contract with generalized density number  0.
 R6Disp: Adding Grimme-D2 dispersion energy 1st derivatives to the gradient.
 Leave Link  701 at Wed May 12 11:56:01 2021, MaxMem=  2147483648 cpu:         0.6
 (Enter /opt/cluster/programs/g09_d.01/g09/l702.exe)
 L702 exits ... SP integral derivatives will be done elsewhere.
 Leave Link  702 at Wed May 12 11:56:01 2021, MaxMem=  2147483648 cpu:         0.3
 (Enter /opt/cluster/programs/g09_d.01/g09/l703.exe)
 Compute integral first derivatives, UseDBF=F ICtDFT=           0.
 Integral derivatives from FoFJK, PRISM(SPDF).
 Calling FoFJK, ICntrl=      2127 FMM=F ISym2X=0 I1Cent= 0 IOpClX= 0 NMat=1 NMatS=1 NMatT=0.
 FoFJK:  IHMeth= 1 ICntrl=    2127 DoSepK=T KAlg= 0 I1Cent=   0 FoldK=F
 IRaf=         1 NMat=   1 IRICut=       1 DoRegI=T DoRafI=F ISym2E= 0.
 FoFCou: FMM=F IPFlag=           0 FMFlag=      100000 FMFlg1=         800
         NFxFlg=           0 DoJE=F BraDBF=F KetDBF=F FulRan=T
         wScrn=  0.000000 ICntrl=    2527 IOpCl=  0 I1Cent=           0 NGrid=           0
         NMat0=    1 NMatS0=      1 NMatT0=    0 NMatD0=    1 NMtDS0=    0 NMtDT0=    0
 Symmetry not used in FoFCou.
 Leave Link  703 at Wed May 12 11:56:02 2021, MaxMem=  2147483648 cpu:         3.4
 (Enter /opt/cluster/programs/g09_d.01/g09/l716.exe)
 Dipole        = 6.84396249D-01 6.65162654D-01 1.71209164D-01
 ***** Axes restored to original set *****
 -------------------------------------------------------------------
 Center     Atomic                   Forces (Hartrees/Bohr)
 Number     Number              X              Y              Z
 -------------------------------------------------------------------
      1        6           0.003482686    0.003641343    0.003800021
      2        6          -0.007681776   -0.000249507   -0.005369709
      3        6           0.004804074    0.003023644    0.007031652
      4        6          -0.004256249   -0.001426468   -0.004161331
      5        1           0.000471278    0.000515084   -0.000200437
      6        1           0.000317900    0.000625854    0.000041782
      7        9           0.004036114   -0.005407112   -0.000991461
      8        1          -0.000006849   -0.000972293    0.000302137
      9        1          -0.000466314    0.000081431   -0.000365856
     10        1          -0.000700864    0.000168024   -0.000086799
 -------------------------------------------------------------------
 Cartesian Forces:  Max     0.007681776 RMS     0.003142827
 Leave Link  716 at Wed May 12 11:56:02 2021, MaxMem=  2147483648 cpu:         0.3
 (Enter /opt/cluster/programs/g09_d.01/g09/l103.exe)

 GradGradGradGradGradGradGradGradGradGradGradGradGradGradGradGradGradGrad
 Berny optimization.
 FormGI is forming the generalized inverse of G from B-inverse, IUseBI=4.
 Internal  Forces:  Max     0.006814521 RMS     0.002220558
 Search for a local minimum.
 Step number   1 out of a maximum of   43
 All quantities printed in internal units (Hartrees-Bohrs-Radians)
 RMS Force = .20604D-02 SwitMx=.10000D-02 MixMth= 1
 Mixed Optimization -- RFO/linear search
 Second derivative matrix not updated -- first step.
 ITU=  0
     Eigenvalues ---    0.01668   0.02118   0.02849   0.02849   0.02976
     Eigenvalues ---    0.02976   0.15973   0.16000   0.16000   0.16000
     Eigenvalues ---    0.16000   0.22007   0.24935   0.25000   0.34934
     Eigenvalues ---    0.35217   0.35345   0.35595   0.35618   0.36086
     Eigenvalues ---    0.41102   0.56635   0.588141000.000001000.00000
     Eigenvalues --- 1000.000001000.000001000.000001000.000001000.00000
     Eigenvalues --- 1000.000001000.000001000.00000
 RFO step:  Lambda=-3.10384625D-04 EMin= 1.66844079D-02
 Linear search not attempted -- first point.
 Iteration  1 RMS(Cart)=  0.01312801 RMS(Int)=  0.00004226
 Iteration  2 RMS(Cart)=  0.00004848 RMS(Int)=  0.00000379
 Iteration  3 RMS(Cart)=  0.00000000 RMS(Int)=  0.00000379
 Iteration  1 RMS(Cart)=  0.00000028 RMS(Int)=  0.00000021
 ITry= 1 IFail=0 DXMaxC= 4.02D-02 DCOld= 1.00D+10 DXMaxT= 3.00D-01 DXLimC= 3.00D+00 Rises=F
 Variable       Old X    -DE/DX   Delta X   Delta X   Delta X     New X
                                 (Linear)    (Quad)   (Total)
    R1        2.51891  -0.00623   0.00000  -0.01059  -0.01059   2.50832
    R2        2.04719  -0.00056   0.00000  -0.00156  -0.00156   2.04563
    R3        2.04683  -0.00035   0.00000  -0.00098  -0.00098   2.04585
    R4        2.77247  -0.00094   0.00000  -0.00260  -0.00260   2.76988
    R5        2.70083  -0.00681   0.00000  -0.01657  -0.01657   2.68427
    R6        2.53707  -0.00617   0.00000  -0.01090  -0.01090   2.52617
    R7        2.05782  -0.00090   0.00000  -0.00258  -0.00258   2.05524
    R8        2.05325  -0.00030   0.00000  -0.00084  -0.00084   2.05240
    R9        2.05118  -0.00057   0.00000  -0.00161  -0.00161   2.04957
    A1        2.11761  -0.00018   0.00000  -0.00114  -0.00114   2.11647
    A2        2.09720  -0.00053   0.00000  -0.00331  -0.00331   2.09389
    A3        2.06836   0.00071   0.00000   0.00446   0.00446   2.07282
    A4        2.28433  -0.00112   0.00000  -0.00448  -0.00448   2.27984
    A5        2.05466   0.00081   0.00000   0.00287   0.00286   2.05753
    A6        1.94013   0.00046   0.00000   0.00212   0.00211   1.94224
    A7        2.16391  -0.00200   0.00000  -0.00908  -0.00910   2.15481
    A8        2.01301   0.00102   0.00000   0.00501   0.00500   2.01800
    A9        2.10396   0.00110   0.00000   0.00465   0.00464   2.10860
   A10        2.12503  -0.00038   0.00000  -0.00239  -0.00239   2.12265
   A11        2.11704  -0.00026   0.00000  -0.00161  -0.00161   2.11543
   A12        2.04110   0.00064   0.00000   0.00400   0.00400   2.04509
    D1       -3.09985  -0.00085   0.00000   0.00077   0.00077  -3.09908
    D2       -0.06471   0.00110   0.00000   0.00758   0.00758  -0.05713
    D3        0.04772  -0.00094   0.00000  -0.00212  -0.00212   0.04559
    D4        3.08286   0.00101   0.00000   0.00468   0.00468   3.08754
    D5       -1.04700   0.00362   0.00000   0.00000   0.00000  -1.04700
    D6        2.16751   0.00170   0.00000  -0.00927  -0.00927   2.15824
    D7        2.19561   0.00174   0.00000  -0.00652  -0.00652   2.18909
    D8       -0.87306  -0.00018   0.00000  -0.01580  -0.01579  -0.88885
    D9        0.00915  -0.00088   0.00000  -0.00049  -0.00049   0.00866
   D10       -3.13791  -0.00090   0.00000  -0.00135  -0.00135  -3.13926
   D11        3.07421   0.00113   0.00000   0.00922   0.00922   3.08343
   D12       -0.07285   0.00110   0.00000   0.00836   0.00836  -0.06450
         Item               Value     Threshold  Converged?
 Maximum Force            0.006815     0.000450     NO 
 RMS     Force            0.002060     0.000300     NO 
 Maximum Displacement     0.040157     0.001800     NO 
 RMS     Displacement     0.013135     0.001200     NO 
 Predicted change in Energy=-1.554017D-04
 Lowest energy point so far.  Saving SCF results.
 GradGradGradGradGradGradGradGradGradGradGradGradGradGradGradGradGradGrad

 Leave Link  103 at Wed May 12 11:56:02 2021, MaxMem=  2147483648 cpu:         0.1
 (Enter /opt/cluster/programs/g09_d.01/g09/l202.exe)
                          Input orientation:                          
 ---------------------------------------------------------------------
 Center     Atomic      Atomic             Coordinates (Angstroms)
 Number     Number       Type             X           Y           Z
 ---------------------------------------------------------------------
      1          6           0       -1.044322   -1.254008   -0.080896
      2          6           0       -0.466008   -0.059480   -0.058459
      3          6           0        0.905748    0.342968   -0.382130
      4          6           0        1.981945   -0.127205    0.256428
      5          1           0       -2.094016   -1.374514    0.154538
      6          1           0       -0.463466   -2.131412   -0.335504
      7          9           0       -1.283478    1.069416    0.215445
      8          1           0        1.002847    1.109000   -1.148035
      9          1           0        1.895464   -0.852828    1.059905
     10          1           0        2.981253    0.197724   -0.012140
 ---------------------------------------------------------------------
                    Distance matrix (angstroms):
                    1          2          3          4          5
     1  C    0.000000
     2  C    1.327346   0.000000
     3  C    2.538473   1.465756   0.000000
     4  C    3.246808   2.469051   1.336794   0.000000
     5  H    1.082501   2.103590   3.498048   4.263756   0.000000
     6  H    1.082616   2.090374   2.828334   3.216716   1.863257
     7  F    2.354423   1.420453   2.382758   3.478012   2.575553
     8  H    3.303558   2.170266   1.087587   2.111719   4.177930
     9  H    3.178791   2.730694   2.118709   1.086086   4.124050
    10  H    4.279896   3.457154   2.113223   1.084586   5.315832
                    6          7          8          9         10
     6  H    0.000000
     7  F    3.349815   0.000000
     8  H    3.648363   2.662316   0.000000
     9  H    3.024317   3.809699   3.085537   0.000000
    10  H    4.170795   4.358850   2.456578   1.852533   0.000000
 Stoichiometry    C4H5F
 Framework group  C1[X(C4H5F)]
 Deg. of freedom    24
 Full point group                 C1      NOp   1
 RotChk:  IX=0 Diff= 4.99D-03
 Largest Abelian subgroup         C1      NOp   1
 Largest concise Abelian subgroup C1      NOp   1
                         Standard orientation:                         
 ---------------------------------------------------------------------
 Center     Atomic      Atomic             Coordinates (Angstroms)
 Number     Number       Type             X           Y           Z
 ---------------------------------------------------------------------
      1          6           0       -1.044150    1.254502    0.083517
      2          6           0       -0.466708    0.059545    0.061510
      3          6           0        0.905731   -0.343251    0.381838
      4          6           0        1.980347    0.125049   -0.260746
      5          1           0       -2.094456    1.375297   -0.149023
      6          1           0       -0.461954    2.131967    0.334830
      7          9           0       -1.285743   -1.069286   -0.207948
      8          1           0        1.004583   -1.107976    1.148825
      9          1           0        1.891973    0.849291   -1.065262
     10          1           0        2.980228   -0.200075    0.005444
 ---------------------------------------------------------------------
 Rotational constants (GHZ):      8.9816139      3.9379481      2.9293518
 Leave Link  202 at Wed May 12 11:56:02 2021, MaxMem=  2147483648 cpu:         0.0
 (Enter /opt/cluster/programs/g09_d.01/g09/l301.exe)
 Standard basis: 6-31+G (6D, 7F)
 Ernie: Thresh=  0.10000D-02 Tol=  0.10000D-05 Strict=F.
 There are    75 symmetry adapted cartesian basis functions of A   symmetry.
 There are    75 symmetry adapted basis functions of A   symmetry.
    75 basis functions,   150 primitive gaussians,    75 cartesian basis functions
    19 alpha electrons       19 beta electrons
       nuclear repulsion energy       156.4879731743 Hartrees.
 IExCor= 4639 DFT=T Ex+Corr=wB97XD ExCW=0 ScaHFX=  1.000000
 ScaDFX=  1.000000  1.000000  1.000000  1.000000 ScalE2=  1.000000  1.000000
 IRadAn=      0 IRanWt=     -1 IRanGd=            0 ICorTp=0 IEmpDi=121
  HFx wShort=  0.000000 wLong=  0.200000 cFull=  0.222036 cShort=  0.000000 cLong=  0.777964
  DFx wShort=  0.000000 wLong=  0.200000 cFull=  0.000000 cShort=  0.000000 cLong=  1.000000
 NAtoms=   10 NActive=   10 NUniq=   10 SFac= 1.00D+00 NAtFMM=   60 NAOKFM=F Big=F
 Integral buffers will be    131072 words long.
 Raffenetti 2 integral format.
 Two-electron integral symmetry is turned on.
 R6Disp:  Grimme-D2 Dispersion energy=       -0.0030647481 Hartrees.
 Nuclear repulsion after empirical dispersion term =      156.4849084261 Hartrees.
 Leave Link  301 at Wed May 12 11:56:02 2021, MaxMem=  2147483648 cpu:         0.4
 (Enter /opt/cluster/programs/g09_d.01/g09/l302.exe)
 NPDir=0 NMtPBC=     1 NCelOv=     1 NCel=       1 NClECP=     1 NCelD=      1
         NCelK=      1 NCelE2=     1 NClLst=     1 CellRange=     0.0.
 One-electron integrals computed using PRISM.
 NBasis=    75 RedAO= T EigKep=  6.34D-05  NBF=    75
 NBsUse=    75 1.00D-06 EigRej= -1.00D+00 NBFU=    75
 Precomputing XC quadrature grid using
 IXCGrd= 4 IRadAn=           0 IRanWt=          -1 IRanGd=           0 AccXCQ= 0.00D+00.
 Generated NRdTot=       0 NPtTot=           0 NUsed=           0 NTot=          32
 NSgBfM=    75    75    75    75    75 MxSgAt=    10 MxSgA2=    10.
 Leave Link  302 at Wed May 12 11:56:02 2021, MaxMem=  2147483648 cpu:         1.0
 (Enter /opt/cluster/programs/g09_d.01/g09/l303.exe)
 DipDrv:  MaxL=1.
 Leave Link  303 at Wed May 12 11:56:02 2021, MaxMem=  2147483648 cpu:         0.3
 (Enter /opt/cluster/programs/g09_d.01/g09/l401.exe)
 Initial guess from the checkpoint file:  "/home/unibas/boittier/RDKit_G2/B.pdb/SCAN_1_2_3_4_S_17_20.0/6_SCAN_1_2_3_4_F/B.pdb.chk"
 B after Tr=     0.000000    0.000000    0.000000
         Rot=    1.000000   -0.000396   -0.000665    0.000536 Ang=  -0.11 deg.
 Guess basis will be translated and rotated to current coordinates.
 JPrj=2 DoOrth=T DoCkMO=T.
 Generating alternative initial guess.
 ExpMin= 4.38D-02 ExpMax= 7.00D+03 ExpMxC= 1.05D+03 IAcc=2 IRadAn=         4 AccDes= 0.00D+00
 Harris functional with IExCor= 4639 and IRadAn=       4 diagonalized for initial guess.
 HarFok:  IExCor= 4639 AccDes= 0.00D+00 IRadAn=         4 IDoV= 1 UseB2=F ITyADJ=14
 ICtDFT=  3500011 ScaDFX=  1.000000  1.000000  1.000000  1.000000
 FoFCou: FMM=F IPFlag=           0 FMFlag=      100000 FMFlg1=           0
         NFxFlg=           0 DoJE=T BraDBF=F KetDBF=T FulRan=T
         wScrn=  0.000000 ICntrl=     500 IOpCl=  0 I1Cent=   200000004 NGrid=           0
         NMat0=    1 NMatS0=      1 NMatT0=    0 NMatD0=    1 NMtDS0=    0 NMtDT0=    0
 Petite list used in FoFCou.
 Harris En= -244.783553614532    
 Leave Link  401 at Wed May 12 11:56:02 2021, MaxMem=  2147483648 cpu:         1.9
 (Enter /opt/cluster/programs/g09_d.01/g09/l502.exe)
 Closed shell SCF:
 Using DIIS extrapolation, IDIIS=  1040.
 Integral symmetry usage will be decided dynamically.
 Keep R1 ints in memory in canonical form, NReq=9056162.
 IVT=       36600 IEndB=       36600 NGot=  2147483648 MDV=  2139321699
 LenX=  2139321699 LenY=  2139315633
 Requested convergence on RMS density matrix=1.00D-08 within 128 cycles.
 Requested convergence on MAX density matrix=1.00D-06.
 Requested convergence on             energy=1.00D-06.
 No special actions if energy rises.
 FoFCou: FMM=F IPFlag=           0 FMFlag=           0 FMFlg1=           0
         NFxFlg=           0 DoJE=F BraDBF=F KetDBF=F FulRan=T
         wScrn=  0.000000 ICntrl=     600 IOpCl=  0 I1Cent=           0 NGrid=           0
         NMat0=    1 NMatS0=   2850 NMatT0=    0 NMatD0=    1 NMtDS0=    0 NMtDT0=    0
 Symmetry not used in FoFCou.

 Cycle   1  Pass 1  IDiag  1:
 E= -255.096558087957    
 DIIS: error= 6.78D-04 at cycle   1 NSaved=   1.
 NSaved= 1 IEnMin= 1 EnMin= -255.096558087957     IErMin= 1 ErrMin= 6.78D-04
 ErrMax= 6.78D-04  0.00D+00 EMaxC= 1.00D-01 BMatC= 7.50D-05 BMatP= 7.50D-05
 IDIUse=3 WtCom= 9.93D-01 WtEn= 6.78D-03
 Coeff-Com:  0.100D+01
 Coeff-En:   0.100D+01
 Coeff:      0.100D+01
 Gap=     0.587 Goal=   None    Shift=    0.000
 RMSDP=4.65D-04 MaxDP=8.68D-03              OVMax= 2.13D-03

 Cycle   2  Pass 1  IDiag  1:
 E= -255.096663285696     Delta-E=       -0.000105197739 Rises=F Damp=F
 DIIS: error= 1.82D-04 at cycle   2 NSaved=   2.
 NSaved= 2 IEnMin= 2 EnMin= -255.096663285696     IErMin= 2 ErrMin= 1.82D-04
 ErrMax= 1.82D-04  0.00D+00 EMaxC= 1.00D-01 BMatC= 4.45D-06 BMatP= 7.50D-05
 IDIUse=3 WtCom= 9.98D-01 WtEn= 1.82D-03
 Coeff-Com: -0.235D-02 0.100D+01
 Coeff-En:   0.000D+00 0.100D+01
 Coeff:     -0.235D-02 0.100D+01
 Gap=     0.372 Goal=   None    Shift=    0.000
 RMSDP=1.27D-04 MaxDP=3.25D-03 DE=-1.05D-04 OVMax= 9.40D-04

 Cycle   3  Pass 1  IDiag  1:
 E= -255.096670200988     Delta-E=       -0.000006915292 Rises=F Damp=F
 DIIS: error= 7.56D-05 at cycle   3 NSaved=   3.
 NSaved= 3 IEnMin= 3 EnMin= -255.096670200988     IErMin= 3 ErrMin= 7.56D-05
 ErrMax= 7.56D-05  0.00D+00 EMaxC= 1.00D-01 BMatC= 1.23D-06 BMatP= 4.45D-06
 IDIUse=1 WtCom= 1.00D+00 WtEn= 0.00D+00
 Coeff-Com: -0.630D-01 0.313D+00 0.750D+00
 Coeff:     -0.630D-01 0.313D+00 0.750D+00
 Gap=     0.372 Goal=   None    Shift=    0.000
 RMSDP=3.98D-05 MaxDP=5.49D-04 DE=-6.92D-06 OVMax= 4.30D-04

 Cycle   4  Pass 1  IDiag  1:
 E= -255.096671715155     Delta-E=       -0.000001514167 Rises=F Damp=F
 DIIS: error= 3.16D-05 at cycle   4 NSaved=   4.
 NSaved= 4 IEnMin= 4 EnMin= -255.096671715155     IErMin= 4 ErrMin= 3.16D-05
 ErrMax= 3.16D-05  0.00D+00 EMaxC= 1.00D-01 BMatC= 1.01D-07 BMatP= 1.23D-06
 IDIUse=1 WtCom= 1.00D+00 WtEn= 0.00D+00
 Coeff-Com: -0.166D-01 0.326D-01 0.221D+00 0.763D+00
 Coeff:     -0.166D-01 0.326D-01 0.221D+00 0.763D+00
 Gap=     0.372 Goal=   None    Shift=    0.000
 RMSDP=8.75D-06 MaxDP=1.01D-04 DE=-1.51D-06 OVMax= 1.96D-04

 Cycle   5  Pass 1  IDiag  1:
 E= -255.096671849517     Delta-E=       -0.000000134362 Rises=F Damp=F
 DIIS: error= 1.74D-05 at cycle   5 NSaved=   5.
 NSaved= 5 IEnMin= 5 EnMin= -255.096671849517     IErMin= 5 ErrMin= 1.74D-05
 ErrMax= 1.74D-05  0.00D+00 EMaxC= 1.00D-01 BMatC= 3.05D-08 BMatP= 1.01D-07
 IDIUse=1 WtCom= 1.00D+00 WtEn= 0.00D+00
 Coeff-Com:  0.621D-02-0.562D-01-0.696D-01 0.366D+00 0.754D+00
 Coeff:      0.621D-02-0.562D-01-0.696D-01 0.366D+00 0.754D+00
 Gap=     0.372 Goal=   None    Shift=    0.000
 RMSDP=5.95D-06 MaxDP=7.69D-05 DE=-1.34D-07 OVMax= 8.02D-05

 Cycle   6  Pass 1  IDiag  1:
 E= -255.096671893274     Delta-E=       -0.000000043757 Rises=F Damp=F
 DIIS: error= 2.95D-06 at cycle   6 NSaved=   6.
 NSaved= 6 IEnMin= 6 EnMin= -255.096671893274     IErMin= 6 ErrMin= 2.95D-06
 ErrMax= 2.95D-06  0.00D+00 EMaxC= 1.00D-01 BMatC= 4.77D-10 BMatP= 3.05D-08
 IDIUse=1 WtCom= 1.00D+00 WtEn= 0.00D+00
 Coeff-Com:  0.785D-03-0.507D-03-0.126D-01-0.422D-01-0.633D-01 0.112D+01
 Coeff:      0.785D-03-0.507D-03-0.126D-01-0.422D-01-0.633D-01 0.112D+01
 Gap=     0.372 Goal=   None    Shift=    0.000
 RMSDP=2.06D-06 MaxDP=3.78D-05 DE=-4.38D-08 OVMax= 2.30D-05

 Cycle   7  Pass 1  IDiag  1:
 E= -255.096671895015     Delta-E=       -0.000000001742 Rises=F Damp=F
 DIIS: error= 1.19D-06 at cycle   7 NSaved=   7.
 NSaved= 7 IEnMin= 7 EnMin= -255.096671895015     IErMin= 7 ErrMin= 1.19D-06
 ErrMax= 1.19D-06  0.00D+00 EMaxC= 1.00D-01 BMatC= 2.23D-10 BMatP= 4.77D-10
 IDIUse=1 WtCom= 1.00D+00 WtEn= 0.00D+00
 Coeff-Com: -0.274D-03 0.579D-02 0.118D-02-0.559D-01-0.106D+00 0.539D+00
 Coeff-Com:  0.616D+00
 Coeff:     -0.274D-03 0.579D-02 0.118D-02-0.559D-01-0.106D+00 0.539D+00
 Coeff:      0.616D+00
 Gap=     0.372 Goal=   None    Shift=    0.000
 RMSDP=6.02D-07 MaxDP=1.40D-05 DE=-1.74D-09 OVMax= 7.66D-06

 Cycle   8  Pass 1  IDiag  1:
 E= -255.096671895263     Delta-E=       -0.000000000248 Rises=F Damp=F
 DIIS: error= 2.32D-07 at cycle   8 NSaved=   8.
 NSaved= 8 IEnMin= 8 EnMin= -255.096671895263     IErMin= 8 ErrMin= 2.32D-07
 ErrMax= 2.32D-07  0.00D+00 EMaxC= 1.00D-01 BMatC= 7.19D-12 BMatP= 2.23D-10
 IDIUse=1 WtCom= 1.00D+00 WtEn= 0.00D+00
 Coeff-Com: -0.818D-04 0.348D-03 0.136D-02-0.330D-03-0.130D-02-0.705D-01
 Coeff-Com:  0.832D-01 0.987D+00
 Coeff:     -0.818D-04 0.348D-03 0.136D-02-0.330D-03-0.130D-02-0.705D-01
 Coeff:      0.832D-01 0.987D+00
 Gap=     0.372 Goal=   None    Shift=    0.000
 RMSDP=2.16D-07 MaxDP=2.73D-06 DE=-2.48D-10 OVMax= 2.72D-06

 Cycle   9  Pass 1  IDiag  1:
 E= -255.096671895279     Delta-E=       -0.000000000015 Rises=F Damp=F
 DIIS: error= 1.16D-07 at cycle   9 NSaved=   9.
 NSaved= 9 IEnMin= 9 EnMin= -255.096671895279     IErMin= 9 ErrMin= 1.16D-07
 ErrMax= 1.16D-07  0.00D+00 EMaxC= 1.00D-01 BMatC= 1.79D-12 BMatP= 7.19D-12
 IDIUse=1 WtCom= 1.00D+00 WtEn= 0.00D+00
 Coeff-Com: -0.241D-04-0.203D-03 0.600D-03 0.384D-02 0.668D-02-0.747D-01
 Coeff-Com: -0.338D-02 0.475D+00 0.592D+00
 Coeff:     -0.241D-04-0.203D-03 0.600D-03 0.384D-02 0.668D-02-0.747D-01
 Coeff:     -0.338D-02 0.475D+00 0.592D+00
 Gap=     0.372 Goal=   None    Shift=    0.000
 RMSDP=5.24D-08 MaxDP=8.47D-07 DE=-1.55D-11 OVMax= 6.64D-07

 Cycle  10  Pass 1  IDiag  1:
 E= -255.096671895280     Delta-E=       -0.000000000002 Rises=F Damp=F
 DIIS: error= 2.48D-08 at cycle  10 NSaved=  10.
 NSaved=10 IEnMin=10 EnMin= -255.096671895280     IErMin=10 ErrMin= 2.48D-08
 ErrMax= 2.48D-08  0.00D+00 EMaxC= 1.00D-01 BMatC= 7.23D-14 BMatP= 1.79D-12
 IDIUse=1 WtCom= 1.00D+00 WtEn= 0.00D+00
 Coeff-Com:  0.109D-04-0.128D-03-0.135D-03 0.114D-02 0.175D-02-0.466D-02
 Coeff-Com: -0.141D-01-0.704D-01 0.890D-01 0.997D+00
 Coeff:      0.109D-04-0.128D-03-0.135D-03 0.114D-02 0.175D-02-0.466D-02
 Coeff:     -0.141D-01-0.704D-01 0.890D-01 0.997D+00
 Gap=     0.372 Goal=   None    Shift=    0.000
 RMSDP=3.87D-08 MaxDP=7.83D-07 DE=-1.59D-12 OVMax= 4.38D-07

 Cycle  11  Pass 1  IDiag  1:
 E= -255.096671895279     Delta-E=        0.000000000001 Rises=F Damp=F
 DIIS: error= 5.78D-09 at cycle  11 NSaved=  11.
 NSaved=11 IEnMin=10 EnMin= -255.096671895280     IErMin=11 ErrMin= 5.78D-09
 ErrMax= 5.78D-09  0.00D+00 EMaxC= 1.00D-01 BMatC= 5.00D-15 BMatP= 7.23D-14
 IDIUse=1 WtCom= 1.00D+00 WtEn= 0.00D+00
 Coeff-Com:  0.214D-05-0.224D-05-0.453D-04-0.813D-04-0.166D-03 0.335D-02
 Coeff-Com: -0.601D-03-0.332D-01-0.269D-01 0.125D+00 0.933D+00
 Coeff:      0.214D-05-0.224D-05-0.453D-04-0.813D-04-0.166D-03 0.335D-02
 Coeff:     -0.601D-03-0.332D-01-0.269D-01 0.125D+00 0.933D+00
 Gap=     0.372 Goal=   None    Shift=    0.000
 RMSDP=7.51D-09 MaxDP=1.34D-07 DE= 9.09D-13 OVMax= 8.90D-08

 SCF Done:  E(RwB97XD) =  -255.096671895     A.U. after   11 cycles
            NFock= 11  Conv=0.75D-08     -V/T= 2.0056
 KE= 2.536688595636D+02 PE=-9.106367759194D+02 EE= 2.453863360344D+02
 Leave Link  502 at Wed May 12 11:56:04 2021, MaxMem=  2147483648 cpu:        11.7
 (Enter /opt/cluster/programs/g09_d.01/g09/l701.exe)
 Compute integral first derivatives.
 ... and contract with generalized density number  0.
 R6Disp: Adding Grimme-D2 dispersion energy 1st derivatives to the gradient.
 Leave Link  701 at Wed May 12 11:56:04 2021, MaxMem=  2147483648 cpu:         0.7
 (Enter /opt/cluster/programs/g09_d.01/g09/l702.exe)
 L702 exits ... SP integral derivatives will be done elsewhere.
 Leave Link  702 at Wed May 12 11:56:04 2021, MaxMem=  2147483648 cpu:         0.3
 (Enter /opt/cluster/programs/g09_d.01/g09/l703.exe)
 Compute integral first derivatives, UseDBF=F ICtDFT=           0.
 Integral derivatives from FoFJK, PRISM(SPDF).
 Calling FoFJK, ICntrl=      2127 FMM=F ISym2X=0 I1Cent= 0 IOpClX= 0 NMat=1 NMatS=1 NMatT=0.
 FoFJK:  IHMeth= 1 ICntrl=    2127 DoSepK=T KAlg= 0 I1Cent=   0 FoldK=F
 IRaf=         1 NMat=   1 IRICut=       1 DoRegI=T DoRafI=F ISym2E= 0.
 FoFCou: FMM=F IPFlag=           0 FMFlag=      100000 FMFlg1=         800
         NFxFlg=           0 DoJE=F BraDBF=F KetDBF=F FulRan=T
         wScrn=  0.000000 ICntrl=    2527 IOpCl=  0 I1Cent=           0 NGrid=           0
         NMat0=    1 NMatS0=      1 NMatT0=    0 NMatD0=    1 NMtDS0=    0 NMtDT0=    0
 Symmetry not used in FoFCou.
 Leave Link  703 at Wed May 12 11:56:04 2021, MaxMem=  2147483648 cpu:         3.4
 (Enter /opt/cluster/programs/g09_d.01/g09/l716.exe)
 Dipole        = 6.75483673D-01 6.51010187D-01 1.73955718D-01
 ***** Axes restored to original set *****
 -------------------------------------------------------------------
 Center     Atomic                   Forces (Hartrees/Bohr)
 Number     Number              X              Y              Z
 -------------------------------------------------------------------
      1        6           0.001139178   -0.002045277    0.003349051
      2        6          -0.003909566    0.002678518   -0.005972208
      3        6           0.000622509    0.003761218    0.004616258
      4        6           0.001022367   -0.002957081   -0.001820506
      5        1          -0.000009736   -0.000043077    0.000063122
      6        1          -0.000054899    0.000022850   -0.000073414
      7        9           0.001127793   -0.001339537   -0.000293234
      8        1          -0.000065278   -0.000071017   -0.000012101
      9        1          -0.000011433    0.000038586    0.000020440
     10        1           0.000139067   -0.000045183    0.000122591
 -------------------------------------------------------------------
 Cartesian Forces:  Max     0.005972208 RMS     0.002057396
 Leave Link  716 at Wed May 12 11:56:04 2021, MaxMem=  2147483648 cpu:         0.3
 (Enter /opt/cluster/programs/g09_d.01/g09/l103.exe)

 GradGradGradGradGradGradGradGradGradGradGradGradGradGradGradGradGradGrad
 Berny optimization.
 Using GEDIIS/GDIIS optimizer.
 FormGI is forming the generalized inverse of G from B-inverse, IUseBI=4.
 Internal  Forces:  Max     0.003464279 RMS     0.001023123
 Search for a local minimum.
 Step number   2 out of a maximum of   43
 All quantities printed in internal units (Hartrees-Bohrs-Radians)
 RMS Force = .55702D-03 SwitMx=.10000D-02 MixMth= 2
 Mixed Optimization -- En-DIIS/RFO-DIIS
 Update second derivatives using D2CorX and points    1    2
 DE= -1.62D-04 DEPred=-1.55D-04 R= 1.04D+00
 TightC=F SS=  1.41D+00  RLast= 3.69D-02 DXNew= 5.0454D-01 1.1076D-01
 Trust test= 1.04D+00 RLast= 3.69D-02 DXMaxT set to 3.00D-01
 ITU=  1  0
 Use linear search instead of GDIIS.
     Eigenvalues ---    0.01635   0.02117   0.02844   0.02855   0.02975
     Eigenvalues ---    0.02991   0.15868   0.15981   0.16000   0.16000
     Eigenvalues ---    0.16121   0.20659   0.23947   0.24946   0.34219
     Eigenvalues ---    0.35122   0.35252   0.35405   0.35610   0.35732
     Eigenvalues ---    0.37756   0.57558   0.714351000.000001000.00000
     Eigenvalues --- 1000.000001000.000001000.000001000.000001000.00000
     Eigenvalues --- 1000.000001000.000001000.00000
 RFO step:  Lambda=-2.95687241D-05 EMin= 1.63533495D-02
 Quartic linear search produced a step of  0.03742.
 Iteration  1 RMS(Cart)=  0.00468317 RMS(Int)=  0.00001169
 Iteration  2 RMS(Cart)=  0.00001332 RMS(Int)=  0.00000101
 Iteration  3 RMS(Cart)=  0.00000000 RMS(Int)=  0.00000101
 Iteration  1 RMS(Cart)=  0.00000039 RMS(Int)=  0.00000029
 ITry= 1 IFail=0 DXMaxC= 1.00D-02 DCOld= 1.00D+10 DXMaxT= 3.00D-01 DXLimC= 3.00D+00 Rises=F
 Variable       Old X    -DE/DX   Delta X   Delta X   Delta X     New X
                                 (Linear)    (Quad)   (Total)
    R1        2.50832   0.00134  -0.00040   0.00176   0.00136   2.50968
    R2        2.04563   0.00003  -0.00006  -0.00001  -0.00007   2.04556
    R3        2.04585  -0.00003  -0.00004  -0.00014  -0.00017   2.04567
    R4        2.76988   0.00115  -0.00010   0.00317   0.00307   2.77295
    R5        2.68427  -0.00177  -0.00062  -0.00542  -0.00604   2.67823
    R6        2.52617   0.00116  -0.00041   0.00149   0.00109   2.52726
    R7        2.05524  -0.00005  -0.00010  -0.00028  -0.00038   2.05486
    R8        2.05240  -0.00001  -0.00003  -0.00009  -0.00012   2.05228
    R9        2.04957   0.00009  -0.00006   0.00016   0.00010   2.04967
    A1        2.11647   0.00003  -0.00004   0.00015   0.00011   2.11658
    A2        2.09389   0.00001  -0.00012  -0.00014  -0.00026   2.09363
    A3        2.07282  -0.00004   0.00017  -0.00001   0.00016   2.07298
    A4        2.27984  -0.00114  -0.00017  -0.00506  -0.00523   2.27461
    A5        2.05753   0.00087   0.00011   0.00335   0.00345   2.06098
    A6        1.94224   0.00040   0.00008   0.00201   0.00209   1.94433
    A7        2.15481  -0.00015  -0.00034  -0.00134  -0.00168   2.15313
    A8        2.01800  -0.00001   0.00019   0.00027   0.00046   2.01846
    A9        2.10860   0.00026   0.00017   0.00117   0.00135   2.10994
   A10        2.12265  -0.00012  -0.00009  -0.00090  -0.00099   2.12166
   A11        2.11543   0.00022  -0.00006   0.00136   0.00130   2.11673
   A12        2.04509  -0.00010   0.00015  -0.00044  -0.00029   2.04480
    D1       -3.09908  -0.00098   0.00003  -0.00418  -0.00415  -3.10323
    D2       -0.05713   0.00085   0.00028   0.00018   0.00047  -0.05666
    D3        0.04559  -0.00098  -0.00008  -0.00438  -0.00446   0.04113
    D4        3.08754   0.00085   0.00018  -0.00002   0.00015   3.08770
    D5       -1.04700   0.00346   0.00000   0.00000   0.00000  -1.04701
    D6        2.15824   0.00176  -0.00035  -0.00198  -0.00233   2.15591
    D7        2.18909   0.00170  -0.00024  -0.00423  -0.00447   2.18462
    D8       -0.88885  -0.00001  -0.00059  -0.00621  -0.00680  -0.89565
    D9        0.00866  -0.00094  -0.00002  -0.00248  -0.00249   0.00617
   D10       -3.13926  -0.00086  -0.00005   0.00045   0.00040  -3.13886
   D11        3.08343   0.00085   0.00034  -0.00044  -0.00009   3.08334
   D12       -0.06450   0.00093   0.00031   0.00249   0.00281  -0.06169
         Item               Value     Threshold  Converged?
 Maximum Force            0.001772     0.000450     NO 
 RMS     Force            0.000557     0.000300     NO 
 Maximum Displacement     0.010040     0.001800     NO 
 RMS     Displacement     0.004685     0.001200     NO 
 Predicted change in Energy=-1.504832D-05
 Lowest energy point so far.  Saving SCF results.
 GradGradGradGradGradGradGradGradGradGradGradGradGradGradGradGradGradGrad

 Leave Link  103 at Wed May 12 11:56:04 2021, MaxMem=  2147483648 cpu:         0.0
 (Enter /opt/cluster/programs/g09_d.01/g09/l202.exe)
                          Input orientation:                          
 ---------------------------------------------------------------------
 Center     Atomic      Atomic             Coordinates (Angstroms)
 Number     Number       Type             X           Y           Z
 ---------------------------------------------------------------------
      1          6           0       -1.042779   -1.253409   -0.081141
      2          6           0       -0.468341   -0.056216   -0.058643
      3          6           0        0.905365    0.344162   -0.383973
      4          6           0        1.980328   -0.128116    0.256312
      5          1           0       -2.091166   -1.378175    0.157710
      6          1           0       -0.459577   -2.128019   -0.339577
      7          9           0       -1.283023    1.069617    0.219578
      8          1           0        1.003775    1.107134   -1.152478
      9          1           0        1.890151   -0.850634    1.062088
     10          1           0        2.981234    0.193317   -0.010725
 ---------------------------------------------------------------------
                    Distance matrix (angstroms):
                    1          2          3          4          5
     1  C    0.000000
     2  C    1.328066   0.000000
     3  C    2.537560   1.467382   0.000000
     4  C    3.243353   2.469887   1.337369   0.000000
     5  H    1.082465   2.104268   3.498437   4.260215   0.000000
     6  H    1.082523   2.090782   2.824308   3.210581   1.863235
     7  F    2.354698   1.417256   2.383191   3.476402   2.578490
     8  H    3.302774   2.171862   1.087387   2.112862   4.179954
     9  H    3.173528   2.729399   2.118592   1.086020   4.116683
    10  H    4.276758   3.458920   2.114545   1.084639   5.312927
                    6          7          8          9         10
     6  H    0.000000
     7  F    3.348969   0.000000
     8  H    3.642584   2.667094   0.000000
     9  H    3.019536   3.803448   3.085907   0.000000
    10  H    4.163643   4.359452   2.459473   1.852356   0.000000
 Stoichiometry    C4H5F
 Framework group  C1[X(C4H5F)]
 Deg. of freedom    24
 Full point group                 C1      NOp   1
 RotChk:  IX=0 Diff= 2.74D-03
 Largest Abelian subgroup         C1      NOp   1
 Largest concise Abelian subgroup C1      NOp   1
                         Standard orientation:                         
 ---------------------------------------------------------------------
 Center     Atomic      Atomic             Coordinates (Angstroms)
 Number     Number       Type             X           Y           Z
 ---------------------------------------------------------------------
      1          6           0       -1.041083    1.255572    0.083685
      2          6           0       -0.468652    0.057391    0.062664
      3          6           0        0.905701   -0.344174    0.383774
      4          6           0        1.978852    0.124360   -0.262274
      5          1           0       -2.090214    1.381274   -0.151376
      6          1           0       -0.455458    2.130049    0.337042
      7          9           0       -1.286234   -1.067998   -0.208764
      8          1           0        1.005959   -1.104887    1.154277
      9          1           0        1.886614    0.844489   -1.069953
     10          1           0        2.980302   -0.197843    0.001781
 ---------------------------------------------------------------------
 Rotational constants (GHZ):      8.9759865      3.9405280      2.9322385
 Leave Link  202 at Wed May 12 11:56:04 2021, MaxMem=  2147483648 cpu:         0.0
 (Enter /opt/cluster/programs/g09_d.01/g09/l301.exe)
 Standard basis: 6-31+G (6D, 7F)
 Ernie: Thresh=  0.10000D-02 Tol=  0.10000D-05 Strict=F.
 There are    75 symmetry adapted cartesian basis functions of A   symmetry.
 There are    75 symmetry adapted basis functions of A   symmetry.
    75 basis functions,   150 primitive gaussians,    75 cartesian basis functions
    19 alpha electrons       19 beta electrons
       nuclear repulsion energy       156.5131654397 Hartrees.
 IExCor= 4639 DFT=T Ex+Corr=wB97XD ExCW=0 ScaHFX=  1.000000
 ScaDFX=  1.000000  1.000000  1.000000  1.000000 ScalE2=  1.000000  1.000000
 IRadAn=      0 IRanWt=     -1 IRanGd=            0 ICorTp=0 IEmpDi=121
  HFx wShort=  0.000000 wLong=  0.200000 cFull=  0.222036 cShort=  0.000000 cLong=  0.777964
  DFx wShort=  0.000000 wLong=  0.200000 cFull=  0.000000 cShort=  0.000000 cLong=  1.000000
 NAtoms=   10 NActive=   10 NUniq=   10 SFac= 1.00D+00 NAtFMM=   60 NAOKFM=F Big=F
 Integral buffers will be    131072 words long.
 Raffenetti 2 integral format.
 Two-electron integral symmetry is turned on.
 R6Disp:  Grimme-D2 Dispersion energy=       -0.0030684776 Hartrees.
 Nuclear repulsion after empirical dispersion term =      156.5100969621 Hartrees.
 Leave Link  301 at Wed May 12 11:56:04 2021, MaxMem=  2147483648 cpu:         0.3
 (Enter /opt/cluster/programs/g09_d.01/g09/l302.exe)
 NPDir=0 NMtPBC=     1 NCelOv=     1 NCel=       1 NClECP=     1 NCelD=      1
         NCelK=      1 NCelE2=     1 NClLst=     1 CellRange=     0.0.
 One-electron integrals computed using PRISM.
 NBasis=    75 RedAO= T EigKep=  6.44D-05  NBF=    75
 NBsUse=    75 1.00D-06 EigRej= -1.00D+00 NBFU=    75
 Precomputing XC quadrature grid using
 IXCGrd= 4 IRadAn=           0 IRanWt=          -1 IRanGd=           0 AccXCQ= 0.00D+00.
 Generated NRdTot=       0 NPtTot=           0 NUsed=           0 NTot=          32
 NSgBfM=    75    75    75    75    75 MxSgAt=    10 MxSgA2=    10.
 Leave Link  302 at Wed May 12 11:56:05 2021, MaxMem=  2147483648 cpu:         1.0
 (Enter /opt/cluster/programs/g09_d.01/g09/l303.exe)
 DipDrv:  MaxL=1.
 Leave Link  303 at Wed May 12 11:56:05 2021, MaxMem=  2147483648 cpu:         0.3
 (Enter /opt/cluster/programs/g09_d.01/g09/l401.exe)
 Initial guess from the checkpoint file:  "/home/unibas/boittier/RDKit_G2/B.pdb/SCAN_1_2_3_4_S_17_20.0/6_SCAN_1_2_3_4_F/B.pdb.chk"
 B after Tr=     0.000000    0.000000    0.000000
         Rot=    1.000000    0.000103   -0.000175    0.000404 Ang=   0.05 deg.
 Guess basis will be translated and rotated to current coordinates.
 JPrj=2 DoOrth=T DoCkMO=T.
 Leave Link  401 at Wed May 12 11:56:05 2021, MaxMem=  2147483648 cpu:         0.7
 (Enter /opt/cluster/programs/g09_d.01/g09/l502.exe)
 Closed shell SCF:
 Using DIIS extrapolation, IDIIS=  1040.
 Integral symmetry usage will be decided dynamically.
 Keep R1 ints in memory in canonical form, NReq=9056162.
 IVT=       36600 IEndB=       36600 NGot=  2147483648 MDV=  2139321699
 LenX=  2139321699 LenY=  2139315633
 Requested convergence on RMS density matrix=1.00D-08 within 128 cycles.
 Requested convergence on MAX density matrix=1.00D-06.
 Requested convergence on             energy=1.00D-06.
 No special actions if energy rises.
 FoFCou: FMM=F IPFlag=           0 FMFlag=           0 FMFlg1=           0
         NFxFlg=           0 DoJE=F BraDBF=F KetDBF=F FulRan=T
         wScrn=  0.000000 ICntrl=     600 IOpCl=  0 I1Cent=           0 NGrid=           0
         NMat0=    1 NMatS0=   2850 NMatT0=    0 NMatD0=    1 NMtDS0=    0 NMtDT0=    0
 Symmetry not used in FoFCou.

 Cycle   1  Pass 1  IDiag  1:
 E= -255.096665550892    
 DIIS: error= 2.68D-04 at cycle   1 NSaved=   1.
 NSaved= 1 IEnMin= 1 EnMin= -255.096665550892     IErMin= 1 ErrMin= 2.68D-04
 ErrMax= 2.68D-04  0.00D+00 EMaxC= 1.00D-01 BMatC= 1.52D-05 BMatP= 1.52D-05
 IDIUse=3 WtCom= 9.97D-01 WtEn= 2.68D-03
 Coeff-Com:  0.100D+01
 Coeff-En:   0.100D+01
 Coeff:      0.100D+01
 Gap=     0.587 Goal=   None    Shift=    0.000
 RMSDP=1.60D-04 MaxDP=2.05D-03              OVMax= 1.38D-03

 Cycle   2  Pass 1  IDiag  1:
 E= -255.096688956221     Delta-E=       -0.000023405329 Rises=F Damp=F
 DIIS: error= 1.50D-04 at cycle   2 NSaved=   2.
 NSaved= 2 IEnMin= 2 EnMin= -255.096688956221     IErMin= 2 ErrMin= 1.50D-04
 ErrMax= 1.50D-04  0.00D+00 EMaxC= 1.00D-01 BMatC= 2.27D-06 BMatP= 1.52D-05
 IDIUse=3 WtCom= 9.99D-01 WtEn= 1.50D-03
 Coeff-Com:  0.934D-01 0.907D+00
 Coeff-En:   0.000D+00 0.100D+01
 Coeff:      0.933D-01 0.907D+00
 Gap=     0.372 Goal=   None    Shift=    0.000
 RMSDP=4.70D-05 MaxDP=9.25D-04 DE=-2.34D-05 OVMax= 5.06D-04

 Cycle   3  Pass 1  IDiag  1:
 E= -255.096690332354     Delta-E=       -0.000001376133 Rises=F Damp=F
 DIIS: error= 1.43D-04 at cycle   3 NSaved=   3.
 NSaved= 3 IEnMin= 3 EnMin= -255.096690332354     IErMin= 3 ErrMin= 1.43D-04
 ErrMax= 1.43D-04  0.00D+00 EMaxC= 1.00D-01 BMatC= 1.90D-06 BMatP= 2.27D-06
 IDIUse=3 WtCom= 9.99D-01 WtEn= 1.43D-03
 Coeff-Com: -0.105D+00 0.505D+00 0.600D+00
 Coeff-En:   0.000D+00 0.186D+00 0.814D+00
 Coeff:     -0.105D+00 0.505D+00 0.600D+00
 Gap=     0.372 Goal=   None    Shift=    0.000
 RMSDP=2.83D-05 MaxDP=5.22D-04 DE=-1.38D-06 OVMax= 2.67D-04

 Cycle   4  Pass 1  IDiag  1:
 E= -255.096691726503     Delta-E=       -0.000001394149 Rises=F Damp=F
 DIIS: error= 1.51D-05 at cycle   4 NSaved=   4.
 NSaved= 4 IEnMin= 4 EnMin= -255.096691726503     IErMin= 4 ErrMin= 1.51D-05
 ErrMax= 1.51D-05  0.00D+00 EMaxC= 1.00D-01 BMatC= 1.49D-08 BMatP= 1.90D-06
 IDIUse=1 WtCom= 1.00D+00 WtEn= 0.00D+00
 Coeff-Com:  0.744D-02-0.104D+00-0.447D-01 0.114D+01
 Coeff:      0.744D-02-0.104D+00-0.447D-01 0.114D+01
 Gap=     0.372 Goal=   None    Shift=    0.000
 RMSDP=7.15D-06 MaxDP=8.12D-05 DE=-1.39D-06 OVMax= 1.10D-04

 Cycle   5  Pass 1  IDiag  1:
 E= -255.096691770610     Delta-E=       -0.000000044106 Rises=F Damp=F
 DIIS: error= 4.33D-06 at cycle   5 NSaved=   5.
 NSaved= 5 IEnMin= 5 EnMin= -255.096691770610     IErMin= 5 ErrMin= 4.33D-06
 ErrMax= 4.33D-06  0.00D+00 EMaxC= 1.00D-01 BMatC= 1.87D-09 BMatP= 1.49D-08
 IDIUse=1 WtCom= 1.00D+00 WtEn= 0.00D+00
 Coeff-Com:  0.832D-02-0.590D-01-0.497D-01 0.326D+00 0.775D+00
 Coeff:      0.832D-02-0.590D-01-0.497D-01 0.326D+00 0.775D+00
 Gap=     0.372 Goal=   None    Shift=    0.000
 RMSDP=1.82D-06 MaxDP=2.14D-05 DE=-4.41D-08 OVMax= 2.54D-05

 Cycle   6  Pass 1  IDiag  1:
 E= -255.096691774152     Delta-E=       -0.000000003542 Rises=F Damp=F
 DIIS: error= 1.47D-06 at cycle   6 NSaved=   6.
 NSaved= 6 IEnMin= 6 EnMin= -255.096691774152     IErMin= 6 ErrMin= 1.47D-06
 ErrMax= 1.47D-06  0.00D+00 EMaxC= 1.00D-01 BMatC= 1.99D-10 BMatP= 1.87D-09
 IDIUse=1 WtCom= 1.00D+00 WtEn= 0.00D+00
 Coeff-Com:  0.675D-03 0.286D-02-0.562D-02-0.949D-01 0.156D+00 0.941D+00
 Coeff:      0.675D-03 0.286D-02-0.562D-02-0.949D-01 0.156D+00 0.941D+00
 Gap=     0.372 Goal=   None    Shift=    0.000
 RMSDP=8.06D-07 MaxDP=1.19D-05 DE=-3.54D-09 OVMax= 1.15D-05

 Cycle   7  Pass 1  IDiag  1:
 E= -255.096691774616     Delta-E=       -0.000000000464 Rises=F Damp=F
 DIIS: error= 7.41D-07 at cycle   7 NSaved=   7.
 NSaved= 7 IEnMin= 7 EnMin= -255.096691774616     IErMin= 7 ErrMin= 7.41D-07
 ErrMax= 7.41D-07  0.00D+00 EMaxC= 1.00D-01 BMatC= 4.40D-11 BMatP= 1.99D-10
 IDIUse=1 WtCom= 1.00D+00 WtEn= 0.00D+00
 Coeff-Com: -0.416D-03 0.624D-02 0.156D-02-0.703D-01 0.102D-01 0.431D+00
 Coeff-Com:  0.621D+00
 Coeff:     -0.416D-03 0.624D-02 0.156D-02-0.703D-01 0.102D-01 0.431D+00
 Coeff:      0.621D+00
 Gap=     0.372 Goal=   None    Shift=    0.000
 RMSDP=1.78D-07 MaxDP=1.77D-06 DE=-4.64D-10 OVMax= 4.04D-06

 Cycle   8  Pass 1  IDiag  1:
 E= -255.096691774673     Delta-E=       -0.000000000057 Rises=F Damp=F
 DIIS: error= 1.25D-07 at cycle   8 NSaved=   8.
 NSaved= 8 IEnMin= 8 EnMin= -255.096691774673     IErMin= 8 ErrMin= 1.25D-07
 ErrMax= 1.25D-07  0.00D+00 EMaxC= 1.00D-01 BMatC= 2.10D-12 BMatP= 4.40D-11
 IDIUse=1 WtCom= 1.00D+00 WtEn= 0.00D+00
 Coeff-Com: -0.132D-03 0.500D-03 0.103D-02 0.219D-02-0.201D-01-0.629D-01
 Coeff-Com:  0.121D+00 0.959D+00
 Coeff:     -0.132D-03 0.500D-03 0.103D-02 0.219D-02-0.201D-01-0.629D-01
 Coeff:      0.121D+00 0.959D+00
 Gap=     0.372 Goal=   None    Shift=    0.000
 RMSDP=1.04D-07 MaxDP=1.46D-06 DE=-5.68D-11 OVMax= 1.32D-06

 Cycle   9  Pass 1  IDiag  1:
 E= -255.096691774677     Delta-E=       -0.000000000004 Rises=F Damp=F
 DIIS: error= 3.31D-08 at cycle   9 NSaved=   9.
 NSaved= 9 IEnMin= 9 EnMin= -255.096691774677     IErMin= 9 ErrMin= 3.31D-08
 ErrMax= 3.31D-08  0.00D+00 EMaxC= 1.00D-01 BMatC= 1.25D-13 BMatP= 2.10D-12
 IDIUse=1 WtCom= 1.00D+00 WtEn= 0.00D+00
 Coeff-Com: -0.677D-05-0.244D-03 0.107D-03 0.437D-02-0.434D-02-0.364D-01
 Coeff-Com: -0.189D-01 0.168D+00 0.887D+00
 Coeff:     -0.677D-05-0.244D-03 0.107D-03 0.437D-02-0.434D-02-0.364D-01
 Coeff:     -0.189D-01 0.168D+00 0.887D+00
 Gap=     0.372 Goal=   None    Shift=    0.000
 RMSDP=3.21D-08 MaxDP=4.68D-07 DE=-3.69D-12 OVMax= 3.89D-07

 Cycle  10  Pass 1  IDiag  1:
 E= -255.096691774678     Delta-E=       -0.000000000001 Rises=F Damp=F
 DIIS: error= 1.27D-08 at cycle  10 NSaved=  10.
 NSaved=10 IEnMin=10 EnMin= -255.096691774678     IErMin=10 ErrMin= 1.27D-08
 ErrMax= 1.27D-08  0.00D+00 EMaxC= 1.00D-01 BMatC= 2.43D-14 BMatP= 1.25D-13
 IDIUse=1 WtCom= 1.00D+00 WtEn= 0.00D+00
 Coeff-Com:  0.144D-04-0.148D-03-0.958D-04 0.135D-02 0.880D-03-0.540D-02
 Coeff-Com: -0.205D-01-0.497D-01 0.313D+00 0.761D+00
 Coeff:      0.144D-04-0.148D-03-0.958D-04 0.135D-02 0.880D-03-0.540D-02
 Coeff:     -0.205D-01-0.497D-01 0.313D+00 0.761D+00
 Gap=     0.372 Goal=   None    Shift=    0.000
 RMSDP=1.17D-08 MaxDP=1.65D-07 DE=-1.19D-12 OVMax= 1.71D-07

 Cycle  11  Pass 1  IDiag  1:
 E= -255.096691774676     Delta-E=        0.000000000001 Rises=F Damp=F
 DIIS: error= 4.25D-09 at cycle  11 NSaved=  11.
 NSaved=11 IEnMin=10 EnMin= -255.096691774678     IErMin=11 ErrMin= 4.25D-09
 ErrMax= 4.25D-09  0.00D+00 EMaxC= 1.00D-01 BMatC= 2.43D-15 BMatP= 2.43D-14
 IDIUse=1 WtCom= 1.00D+00 WtEn= 0.00D+00
 Coeff-Com:  0.444D-05-0.152D-04-0.378D-04-0.736D-04 0.676D-03 0.203D-02
 Coeff-Com: -0.350D-02-0.318D-01-0.164D-01 0.204D+00 0.845D+00
 Coeff:      0.444D-05-0.152D-04-0.378D-04-0.736D-04 0.676D-03 0.203D-02
 Coeff:     -0.350D-02-0.318D-01-0.164D-01 0.204D+00 0.845D+00
 Gap=     0.372 Goal=   None    Shift=    0.000
 RMSDP=4.43D-09 MaxDP=7.05D-08 DE= 1.36D-12 OVMax= 4.56D-08

 SCF Done:  E(RwB97XD) =  -255.096691775     A.U. after   11 cycles
            NFock= 11  Conv=0.44D-08     -V/T= 2.0056
 KE= 2.536677139101D+02 PE=-9.106809337320D+02 EE= 2.454064310852D+02
 Leave Link  502 at Wed May 12 11:56:06 2021, MaxMem=  2147483648 cpu:        11.5
 (Enter /opt/cluster/programs/g09_d.01/g09/l701.exe)
 Compute integral first derivatives.
 ... and contract with generalized density number  0.
 R6Disp: Adding Grimme-D2 dispersion energy 1st derivatives to the gradient.
 Leave Link  701 at Wed May 12 11:56:06 2021, MaxMem=  2147483648 cpu:         0.7
 (Enter /opt/cluster/programs/g09_d.01/g09/l702.exe)
 L702 exits ... SP integral derivatives will be done elsewhere.
 Leave Link  702 at Wed May 12 11:56:06 2021, MaxMem=  2147483648 cpu:         0.3
 (Enter /opt/cluster/programs/g09_d.01/g09/l703.exe)
 Compute integral first derivatives, UseDBF=F ICtDFT=           0.
 Integral derivatives from FoFJK, PRISM(SPDF).
 Calling FoFJK, ICntrl=      2127 FMM=F ISym2X=0 I1Cent= 0 IOpClX= 0 NMat=1 NMatS=1 NMatT=0.
 FoFJK:  IHMeth= 1 ICntrl=    2127 DoSepK=T KAlg= 0 I1Cent=   0 FoldK=F
 IRaf=         1 NMat=   1 IRICut=       1 DoRegI=T DoRafI=F ISym2E= 0.
 FoFCou: FMM=F IPFlag=           0 FMFlag=      100000 FMFlg1=         800
         NFxFlg=           0 DoJE=F BraDBF=F KetDBF=F FulRan=T
         wScrn=  0.000000 ICntrl=    2527 IOpCl=  0 I1Cent=           0 NGrid=           0
         NMat0=    1 NMatS0=      1 NMatT0=    0 NMatD0=    1 NMtDS0=    0 NMtDT0=    0
 Symmetry not used in FoFCou.
 Leave Link  703 at Wed May 12 11:56:07 2021, MaxMem=  2147483648 cpu:         3.4
 (Enter /opt/cluster/programs/g09_d.01/g09/l716.exe)
 Dipole        = 6.72539972D-01 6.44725294D-01 1.72861348D-01
 ***** Axes restored to original set *****
 -------------------------------------------------------------------
 Center     Atomic                   Forces (Hartrees/Bohr)
 Number     Number              X              Y              Z
 -------------------------------------------------------------------
      1        6           0.001132506   -0.001167444    0.003360054
      2        6          -0.002194839    0.000856891   -0.006237379
      3        6           0.000374967    0.003203273    0.005017004
      4        6           0.000441734   -0.002493059   -0.002008523
      5        1          -0.000079440   -0.000055598    0.000026913
      6        1          -0.000025981    0.000008293   -0.000048146
      7        9           0.000257286   -0.000331838   -0.000097580
      8        1           0.000027691    0.000083018   -0.000032588
      9        1           0.000004019   -0.000054735    0.000015625
     10        1           0.000062056   -0.000048801    0.000004620
 -------------------------------------------------------------------
 Cartesian Forces:  Max     0.006237379 RMS     0.001867491
 Leave Link  716 at Wed May 12 11:56:07 2021, MaxMem=  2147483648 cpu:         0.3
 (Enter /opt/cluster/programs/g09_d.01/g09/l103.exe)

 GradGradGradGradGradGradGradGradGradGradGradGradGradGradGradGradGradGrad
 Berny optimization.
 Using GEDIIS/GDIIS optimizer.
 FormGI is forming the generalized inverse of G from B-inverse, IUseBI=4.
 Internal  Forces:  Max     0.003393304 RMS     0.000872645
 Search for a local minimum.
 Step number   3 out of a maximum of   43
 All quantities printed in internal units (Hartrees-Bohrs-Radians)
 RMS Force = .21670D-03 SwitMx=.10000D-02 MixMth= 2
 Mixed Optimization -- En-DIIS/RFO-DIIS
 Swapping is turned off.
 Update second derivatives using D2CorX and points    1    2    3
 DE= -1.99D-05 DEPred=-1.50D-05 R= 1.32D+00
[...]
 -------------------------------------------------------------------
 Center     Atomic                   Forces (Hartrees/Bohr)
 Number     Number              X              Y              Z
 -------------------------------------------------------------------
      1        6           0.000946751   -0.000521032    0.003432918
      2        6          -0.001335264   -0.000336690   -0.006607045
      3        6           0.000157448    0.003332794    0.005288218
      4        6           0.000246566   -0.002549401   -0.002210864
      5        1          -0.000004331   -0.000021366   -0.000008967
      6        1           0.000004692   -0.000000332    0.000002500
      7        9          -0.000050849    0.000036193    0.000035613
      8        1           0.000022332    0.000038419    0.000024356
      9        1           0.000009031    0.000019732    0.000033528
     10        1           0.000003624    0.000001682    0.000009744
 -------------------------------------------------------------------
 Cartesian Forces:  Max     0.006607045 RMS     0.001906636
 Leave Link  716 at Wed May 12 11:56:10 2021, MaxMem=  2147483648 cpu:         0.3
 (Enter /opt/cluster/programs/g09_d.01/g09/l103.exe)

 GradGradGradGradGradGradGradGradGradGradGradGradGradGradGradGradGradGrad
 Berny optimization.
 Using GEDIIS/GDIIS optimizer.
 FormGI is forming the generalized inverse of G from B-inverse, IUseBI=4.
 Internal  Forces:  Max     0.003400537 RMS     0.000848564
 Search for a local minimum.
 Step number   4 out of a maximum of   43
 All quantities printed in internal units (Hartrees-Bohrs-Radians)
 RMS Force = .31596D-04 SwitMx=.10000D-02 MixMth= 2
 Mixed Optimization -- En-DIIS/RFO-DIIS
 Swapping is turned off.
 Update second derivatives using D2CorX and points    1    2    3    4
 DE= -3.60D-06 DEPred=-3.86D-06 R= 9.33D-01
 TightC=F SS=  1.41D+00  RLast= 7.86D-03 DXNew= 5.0454D-01 2.3584D-02
 Trust test= 9.33D-01 RLast= 7.86D-03 DXMaxT set to 3.00D-01
 ITU=  1  1  1  0
     Eigenvalues ---    0.01683   0.02111   0.02842   0.02921   0.02973
     Eigenvalues ---    0.03032   0.13600   0.15990   0.16001   0.16027
     Eigenvalues ---    0.16162   0.16609   0.22245   0.25058   0.34956
     Eigenvalues ---    0.35203   0.35342   0.35465   0.35621   0.35871
     Eigenvalues ---    0.37853   0.57741   0.662371000.000001000.00000
     Eigenvalues --- 1000.000001000.000001000.000001000.000001000.00000
     Eigenvalues --- 1000.000001000.000001000.00000
 En-DIIS/RFO-DIIS IScMMF=        0 using points:     4    3    2
 RFO step:  Lambda=-8.28425170D-07.
 NNeg= 0 NP= 3 Switch=  2.50D-03 Rises=F DC=  1.99D-05 SmlDif=  1.00D-05
 RMS Error=  0.9232640356D-04 NUsed= 3 EDIIS=F
 DidBck=F Rises=F RFO-DIIS coefs:    0.94739    0.09250   -0.03990
 Iteration  1 RMS(Cart)=  0.00035147 RMS(Int)=  0.00000046
 Iteration  2 RMS(Cart)=  0.00000018 RMS(Int)=  0.00000042
 Iteration  1 RMS(Cart)=  0.00000024 RMS(Int)=  0.00000018
 ITry= 1 IFail=0 DXMaxC= 9.00D-04 DCOld= 1.00D+10 DXMaxT= 3.00D-01 DXLimC= 3.00D+00 Rises=F
 Variable       Old X    -DE/DX   Delta X   Delta X   Delta X     New X
                                 (Linear)    (Quad)   (Total)
    R1        2.51074   0.00003   0.00000   0.00007   0.00006   2.51080
    R2        2.04585   0.00000  -0.00002   0.00003   0.00002   2.04586
    R3        2.04558   0.00001   0.00000   0.00001   0.00001   2.04559
    R4        2.77463  -0.00006   0.00003  -0.00015  -0.00012   2.77452
    R5        2.67525   0.00006  -0.00008   0.00016   0.00007   2.67533
    R6        2.52771   0.00005   0.00002   0.00006   0.00008   2.52779
    R7        2.05506   0.00001  -0.00003   0.00007   0.00004   2.05511
    R8        2.05240   0.00000  -0.00001   0.00003   0.00001   2.05242
    R9        2.04978   0.00000   0.00000   0.00001   0.00001   2.04979
    A1        2.11707   0.00004  -0.00002   0.00026   0.00024   2.11731
    A2        2.09325  -0.00002   0.00001  -0.00016  -0.00015   2.09311
    A3        2.07286  -0.00002   0.00001  -0.00011  -0.00009   2.07276
    A4        2.27002  -0.00003   0.00003  -0.00036  -0.00033   2.26969
    A5        2.06344   0.00012   0.00001   0.00004   0.00004   2.06348
    A6        1.94648   0.00003  -0.00003   0.00033   0.00030   1.94679
    A7        2.15228   0.00008  -0.00002   0.00020   0.00018   2.15246
    A8        2.01903  -0.00003  -0.00001   0.00003   0.00001   2.01905
    A9        2.11022   0.00005   0.00004  -0.00026  -0.00022   2.11000
   A10        2.12124   0.00002  -0.00002   0.00014   0.00012   2.12136
   A11        2.11729  -0.00001   0.00002  -0.00009  -0.00006   2.11723
   A12        2.04463  -0.00001   0.00000  -0.00005  -0.00005   2.04458
    D1       -3.10442  -0.00088  -0.00010  -0.00016  -0.00027  -3.10469
    D2       -0.05747   0.00087   0.00006  -0.00001   0.00005  -0.05742
    D3        0.03908  -0.00086  -0.00007   0.00039   0.00032   0.03940
    D4        3.08604   0.00089   0.00009   0.00054   0.00063   3.08667
    D5       -1.04700   0.00340   0.00000   0.00000   0.00000  -1.04700
    D6        2.15602   0.00175  -0.00010   0.00056   0.00046   2.15648
    D7        2.18421   0.00174  -0.00016  -0.00013  -0.00029   2.18392
    D8       -0.89596   0.00009  -0.00025   0.00043   0.00017  -0.89579
    D9        0.00726  -0.00091  -0.00016  -0.00094  -0.00110   0.00616
   D10       -3.14011  -0.00086   0.00008   0.00043   0.00051  -3.13959
   D11        3.08433   0.00082  -0.00006  -0.00152  -0.00157   3.08275
   D12       -0.06304   0.00087   0.00018  -0.00014   0.00004  -0.06300
         Item               Value     Threshold  Converged?
 Maximum Force            0.000067     0.000450     YES
 RMS     Force            0.000032     0.000300     YES
 Maximum Displacement     0.000900     0.001800     YES
 RMS     Displacement     0.000352     0.001200     YES
 Predicted change in Energy=-1.347618D-07
 Optimization completed.
    -- Stationary point found.
                           ----------------------------
                           !   Optimized Parameters   !
                           ! (Angstroms and Degrees)  !
 --------------------------                            --------------------------
 ! Name  Definition              Value          Derivative Info.                !
 --------------------------------------------------------------------------------
 ! R1    R(1,2)                  1.3286         -DE/DX =    0.0                 !
 ! R2    R(1,5)                  1.0826         -DE/DX =    0.0                 !
 ! R3    R(1,6)                  1.0825         -DE/DX =    0.0                 !
 ! R4    R(2,3)                  1.4683         -DE/DX =   -0.0001              !
 ! R5    R(2,7)                  1.4157         -DE/DX =    0.0001              !
 ! R6    R(3,4)                  1.3376         -DE/DX =    0.0001              !
 ! R7    R(3,8)                  1.0875         -DE/DX =    0.0                 !
 ! R8    R(4,9)                  1.0861         -DE/DX =    0.0                 !
 ! R9    R(4,10)                 1.0847         -DE/DX =    0.0                 !
 ! A1    A(2,1,5)              121.2994         -DE/DX =    0.0                 !
 ! A2    A(2,1,6)              119.9346         -DE/DX =    0.0                 !
 ! A3    A(5,1,6)              118.7659         -DE/DX =    0.0                 !
 ! A4    A(1,2,3)              130.0625         -DE/DX =    0.0                 !
 ! A5    A(1,2,7)              118.2264         -DE/DX =    0.0001              !
 ! A6    A(3,2,7)              111.5251         -DE/DX =    0.0                 !
 ! A7    A(2,3,4)              123.3164         -DE/DX =    0.0001              !
 ! A8    A(2,3,8)              115.6822         -DE/DX =    0.0                 !
 ! A9    A(4,3,8)              120.9065         -DE/DX =    0.0                 !
 ! A10   A(3,4,9)              121.5384         -DE/DX =    0.0                 !
 ! A11   A(3,4,10)             121.3119         -DE/DX =    0.0                 !
 ! A12   A(9,4,10)             117.1489         -DE/DX =    0.0                 !
 ! D1    D(5,1,2,3)           -177.8704         -DE/DX =   -0.0009              !
 ! D2    D(5,1,2,7)             -3.2925         -DE/DX =    0.0009              !
 ! D3    D(6,1,2,3)              2.2394         -DE/DX =   -0.0009              !
 ! D4    D(6,1,2,7)            176.8173         -DE/DX =    0.0009              !
 ! D5    D(1,2,3,4)            -59.9889         -DE/DX =    0.0034              !
 ! D6    D(1,2,3,8)            123.5306         -DE/DX =    0.0018              !
 ! D7    D(7,2,3,4)            125.1458         -DE/DX =    0.0017              !
 ! D8    D(7,2,3,8)            -51.3347         -DE/DX =    0.0001              !
 ! D9    D(2,3,4,9)              0.4159         -DE/DX =   -0.0009              !
 ! D10   D(2,3,4,10)          -179.9148         -DE/DX =   -0.0009              !
 ! D11   D(8,3,4,9)            176.7189         -DE/DX =    0.0008              !
 ! D12   D(8,3,4,10)            -3.6119         -DE/DX =    0.0009              !
 --------------------------------------------------------------------------------
 Lowest energy point so far.  Saving SCF results.
 GradGradGradGradGradGradGradGradGradGradGradGradGradGradGradGradGradGrad

 Largest change from initial coordinates is atom    9       0.018 Angstoms.
 Leave Link  103 at Wed May 12 11:56:10 2021, MaxMem=  2147483648 cpu:         0.0
 (Enter /opt/cluster/programs/g09_d.01/g09/l202.exe)
                          Input orientation:                          
 ---------------------------------------------------------------------
 Center     Atomic      Atomic             Coordinates (Angstroms)
 Number     Number       Type             X           Y           Z
 ---------------------------------------------------------------------
      1          6           0       -1.041173   -1.252785   -0.080557
      2          6           0       -0.470090   -0.053368   -0.057926
      3          6           0        0.904843    0.344961   -0.384602
      4          6           0        1.978976   -0.128735    0.256521
      5          1           0       -2.089065   -1.381388    0.159107
      6          1           0       -0.455449   -2.125116   -0.340777
      7          9           0       -1.284422    1.070805    0.220024
      8          1           0        1.004559    1.106984   -1.154030
      9          1           0        1.886887   -0.850929    1.062459
     10          1           0        2.980902    0.189231   -0.011068
 ---------------------------------------------------------------------
                    Distance matrix (angstroms):
                    1          2          3          4          5
     1  C    0.000000
     2  C    1.328627   0.000000
     3  C    2.536181   1.468272   0.000000
     4  C    3.240125   2.470320   1.337605   0.000000
     5  H    1.082615   2.105189   3.498483   4.257650   0.000000
     6  H    1.082474   2.091019   2.820213   3.204486   1.863255
     7  F    2.355545   1.415683   2.384387   3.477067   2.581552
     8  H    3.302404   2.173119   1.087493   2.113325   4.181726
     9  H    3.168835   2.728866   2.118620   1.086085   4.111646
    10  H    4.273327   3.459826   2.115136   1.084694   5.310402
                    6          7          8          9         10
     6  H    0.000000
     7  F    3.348971   0.000000
     8  H    3.638609   2.669975   0.000000
     9  H    3.013165   3.802626   3.086219   0.000000
    10  H    4.156130   4.361601   2.460602   1.852366   0.000000
 Stoichiometry    C4H5F
 Framework group  C1[X(C4H5F)]
 Deg. of freedom    24
 Full point group                 C1      NOp   1
 RotChk:  IX=0 Diff= 9.56D-16
 Largest Abelian subgroup         C1      NOp   1
 Largest concise Abelian subgroup C1      NOp   1
                         Standard orientation:                         
 ---------------------------------------------------------------------
 Center     Atomic      Atomic             Coordinates (Angstroms)
 Number     Number       Type             X           Y           Z
 ---------------------------------------------------------------------
      1          6           0       -1.036714    1.257444    0.084065
      2          6           0       -0.469726    0.056068    0.062367
      3          6           0        0.905295   -0.345916    0.384162
      4          6           0        1.978174    0.122366   -0.263008
      5          1           0       -2.085213    1.388860   -0.151379
      6          1           0       -0.446957    2.128553    0.339222
      7          9           0       -1.289002   -1.066168   -0.208799
      8          1           0        1.005850   -1.106073    1.155323
      9          1           0        1.884955    0.842567   -1.070598
     10          1           0        2.980202   -0.198178    0.001103
 ---------------------------------------------------------------------
 Rotational constants (GHZ):      8.9732062      3.9413304      2.9328717
 Leave Link  202 at Wed May 12 11:56:10 2021, MaxMem=  2147483648 cpu:         0.0
 (Enter /opt/cluster/programs/g09_d.01/g09/l601.exe)
 Copying SCF densities to generalized density rwf, IOpCl= 0 IROHF=0.

 **********************************************************************

            Population analysis using the SCF density.

 **********************************************************************

 Orbital symmetries:
       Occupied  (A) (A) (A) (A) (A) (A) (A) (A) (A) (A) (A) (A)
                 (A) (A) (A) (A) (A) (A) (A)
       Virtual   (A) (A) (A) (A) (A) (A) (A) (A) (A) (A) (A) (A)
                 (A) (A) (A) (A) (A) (A) (A) (A) (A) (A) (A) (A)
                 (A) (A) (A) (A) (A) (A) (A) (A) (A) (A) (A) (A)
                 (A) (A) (A) (A) (A) (A) (A) (A) (A) (A) (A) (A)
                 (A) (A) (A) (A) (A) (A) (A) (A)
 The electronic state is 1-A.
 Alpha  occ. eigenvalues --  -24.82940 -10.40202 -10.33114 -10.32086 -10.30987
 Alpha  occ. eigenvalues --   -1.30842  -0.93069  -0.86015  -0.74163  -0.65310
 Alpha  occ. eigenvalues --   -0.61153  -0.57612  -0.56074  -0.52697  -0.50666
 Alpha  occ. eigenvalues --   -0.48498  -0.45301  -0.39271  -0.34291
 Alpha virt. eigenvalues --    0.02902   0.07053   0.07836   0.08543   0.09683
 Alpha virt. eigenvalues --    0.11206   0.12055   0.13304   0.13975   0.14811
 Alpha virt. eigenvalues --    0.16595   0.17445   0.18310   0.18909   0.19714
 Alpha virt. eigenvalues --    0.20025   0.22827   0.23924   0.25708   0.27803
 Alpha virt. eigenvalues --    0.29129   0.31326   0.32229   0.38907   0.41681
 Alpha virt. eigenvalues --    0.42713   0.45638   0.46221   0.47716   0.50372
 Alpha virt. eigenvalues --    0.51893   0.70519   0.71405   0.75065   0.77375
 Alpha virt. eigenvalues --    0.81164   0.82419   0.85210   0.89584   0.93356
 Alpha virt. eigenvalues --    0.97209   0.99981   1.04908   1.06703   1.13740
 Alpha virt. eigenvalues --    1.14400   1.15657   1.22607   1.25693   1.32217
 Alpha virt. eigenvalues --    1.39092   1.44335   1.67332   1.81659   1.85947
 Alpha virt. eigenvalues --    2.35760
          Condensed to atoms (all electrons):
               1          2          3          4          5          6
     1  C    6.350759  -0.152393  -0.405726   0.060211   0.397328   0.318234
     2  C   -0.152393   5.526802   0.314379   0.011060  -0.059095   0.007490
     3  C   -0.405726   0.314379   5.669466   0.335427   0.011403   0.005204
     4  C    0.060211   0.011060   0.335427   5.241817   0.000362   0.009108
     5  H    0.397328  -0.059095   0.011403   0.000362   0.455293  -0.019764
     6  H    0.318234   0.007490   0.005204   0.009108  -0.019764   0.463889
     7  F   -0.159741   0.284416  -0.137235  -0.018903  -0.002682   0.004082
     8  H    0.019517  -0.034909   0.307402   0.019749  -0.000083   0.000141
     9  H    0.010346   0.000819  -0.057594   0.390403  -0.000020   0.000109
    10  H    0.002138   0.008748  -0.038202   0.377075   0.000002  -0.000019
               7          8          9         10
     1  C   -0.159741   0.019517   0.010346   0.002138
     2  C    0.284416  -0.034909   0.000819   0.008748
     3  C   -0.137235   0.307402  -0.057594  -0.038202
     4  C   -0.018903   0.019749   0.390403   0.377075
     5  H   -0.002682  -0.000083  -0.000020   0.000002
     6  H    0.004082   0.000141   0.000109  -0.000019
     7  F    9.314548   0.000122   0.000417  -0.000276
     8  H    0.000122   0.458969   0.002579  -0.003096
     9  H    0.000417   0.002579   0.469912  -0.023266
    10  H   -0.000276  -0.003096  -0.023266   0.478015
 Mulliken charges:
               1
     1  C   -0.440673
     2  C    0.092684
     3  C   -0.004524
     4  C   -0.426308
     5  H    0.217257
     6  H    0.211526
     7  F   -0.284748
     8  H    0.229608
     9  H    0.206295
    10  H    0.198882
 Sum of Mulliken charges =   0.00000
 Mulliken charges with hydrogens summed into heavy atoms:
               1
     1  C   -0.011890
     2  C    0.092684
     3  C    0.225085
     4  C   -0.021131
     7  F   -0.284748
 Electronic spatial extent (au):  <R**2>=            431.6366
 Charge=              0.0000 electrons
 Dipole moment (field-independent basis, Debye):
    X=              1.7085    Y=              1.6300    Z=              0.4397  Tot=              2.4020
 Quadrupole moment (field-independent basis, Debye-Ang):
   XX=            -27.8323   YY=            -29.8935   ZZ=            -30.6520
   XY=             -3.0353   XZ=             -0.2100   YZ=             -1.8982
 Traceless Quadrupole moment (field-independent basis, Debye-Ang):
   XX=              1.6270   YY=             -0.4342   ZZ=             -1.1927
   XY=             -3.0353   XZ=             -0.2100   YZ=             -1.8982
 Octapole moment (field-independent basis, Debye-Ang**2):
  XXX=             -1.6733  YYY=             -2.0755  ZZZ=             -1.7053  XYY=             -2.2735
  XXY=              1.5966  XXZ=             -1.7849  XZZ=             -1.6250  YZZ=             -4.2877
  YYZ=              1.5565  XYZ=             -1.7865
 Hexadecapole moment (field-independent basis, Debye-Ang**3):
 XXXX=           -312.4930 YYYY=           -149.7560 ZZZZ=            -52.8153 XXXY=             -3.6614
 XXXZ=              2.7578 YYYX=              5.5027 YYYZ=              0.8399 ZZZX=              1.9657
 ZZZY=             -2.2120 XXYY=            -85.5037 XXZZ=            -69.0687 YYZZ=            -34.9429
 XXYZ=             -5.9796 YYXZ=              1.0226 ZZXY=              4.6920
 N-N= 1.565118736495D+02 E-N=-9.106795267107D+02  KE= 2.536655908424D+02
 No NMR shielding tensors so no spin-rotation constants.
 Leave Link  601 at Wed May 12 11:56:10 2021, MaxMem=  2147483648 cpu:         0.6
 (Enter /opt/cluster/programs/g09_d.01/g09/l9999.exe)
 1\1\GINC-NODE08\FOpt\RwB97XD\6-31+G\C4H5F1\BOITTIER\12-May-2021\0\\#p 
 wB97XD/6-31+G Opt=ModRedun\\B.pdb\\0,1\C,-1.0411732967,-1.2527849097,-
 0.0805571977\C,-0.4700898036,-0.0533678504,-0.0579262299\C,0.904842978
 7,0.3449614228,-0.3846016744\C,1.9789756474,-0.1287345213,0.2565214833
 \H,-2.0890652536,-1.3813875849,0.1591072106\H,-0.4554490335,-2.1251162
 437,-0.3407765882\F,-1.28442216,1.0708053858,0.2200235398\H,1.00455867
 27,1.1069835504,-1.1540296855\H,1.88688747,-0.8509290901,1.0624588606\
 H,2.9809017786,0.1892308411,-0.0110677188\\Version=ES64L-G09RevD.01\St
 ate=1-A\HF=-255.0966954\RMSD=5.753e-09\RMSF=1.907e-03\Dipole=0.6692765
 ,-0.6430363,-0.1777675\Quadrupole=1.2259514,-0.3297651,-0.8961862,2.24
 48796,0.1485877,-1.4200139\PG=C01 [X(C4H5F1)]\\@


 ALTHOUGH J.J. COULD DIAGNOSE THE FAULTS OF AN
 APPARATUS WITH UNCANNY ACCURACY, IT WAS JUST AS
 WELL NOT TO LET HIM HANDLE IT.
   -- GEORGE THOMPSON, ABOUT HIS FATHER
 Job cpu time:       0 days  0 hours  1 minutes 25.9 seconds.
 File lengths (MBytes):  RWF=      5 Int=      0 D2E=      0 Chk=      2 Scr=      1
 Normal termination of Gaussian 09 at Wed May 12 11:56:10 2021.
