B.pdb                                                                   
FOpt      RwB97XD                                                     6-31+G              
Number of atoms                            I               10
Info1-9                                    I   N=           9
          21          21           0           0           0         110
           2          18        -802
Charge                                     I                0
Multiplicity                               I                1
Number of electrons                        I               38
Number of alpha electrons                  I               19
Number of beta electrons                   I               19
Number of basis functions                  I               75
Number of independent functions            I               75
Number of point charges in /Mol/           I                0
Number of translation vectors              I                0
Atomic numbers                             I   N=          10
           6           6           6           6           1           1
           9           1           1           1
Nuclear charges                            R   N=          10
  6.00000000E+00  6.00000000E+00  6.00000000E+00  6.00000000E+00  1.00000000E+00
  1.00000000E+00  9.00000000E+00  1.00000000E+00  1.00000000E+00  1.00000000E+00
Current cartesian coordinates              R   N=          30
 -1.95910460E+00  2.37622495E+00  1.58860250E-01 -8.87652595E-01  1.05953847E-01
  1.17857261E-01  1.71075901E+00 -6.53685607E-01  7.25960508E-01  3.73820805E+00
  2.31238886E-01 -4.97013122E-01 -3.94048152E+00  2.62456555E+00 -2.86064119E-01
 -8.44625964E-01  4.02238244E+00  6.41037160E-01 -2.43586054E+00 -2.01476500E+00
 -3.94572776E-01  1.90078009E+00 -2.09017482E+00  2.18324439E+00  3.56204789E+00
  1.59222115E+00 -2.02313650E+00  5.63176517E+00 -3.74501799E-01  2.08466212E-03
Force Field                                I                0
Int Atom Types                             I   N=          10
           0           0           0           0           0           0
           0           0           0           0
MM charges                                 R   N=          10
  0.00000000E+00  0.00000000E+00  0.00000000E+00  0.00000000E+00  0.00000000E+00
  0.00000000E+00  0.00000000E+00  0.00000000E+00  0.00000000E+00  0.00000000E+00
Integer atomic weights                     I   N=          10
          12          12          12          12           1           1
          19           1           1           1
Real atomic weights                        R   N=          10
  1.20000000E+01  1.20000000E+01  1.20000000E+01  1.20000000E+01  1.00782504E+00
  1.00782504E+00  1.89984032E+01  1.00782504E+00  1.00782504E+00  1.00782504E+00
Atom fragment info                         I   N=          10
           0           0           0           0           0           0
           0           0           0           0
Atom residue num                           I   N=          10
           0           0           0           0           0           0
           0           0           0           0
Nuclear spins                              I   N=          10
           0           0           0           0           1           1
           1           1           1           1
Nuclear ZEff                               R   N=          10
 -3.60000000E+00 -3.60000000E+00 -3.60000000E+00 -3.60000000E+00 -1.00000000E+00
 -1.00000000E+00 -6.75000000E+00 -1.00000000E+00 -1.00000000E+00 -1.00000000E+00
Nuclear ZNuc                               R   N=          10
  6.00000000E+00  6.00000000E+00  6.00000000E+00  6.00000000E+00  1.00000000E+00
  1.00000000E+00  9.00000000E+00  1.00000000E+00  1.00000000E+00  1.00000000E+00
Nuclear QMom                               R   N=          10
  0.00000000E+00  0.00000000E+00  0.00000000E+00  0.00000000E+00  0.00000000E+00
  0.00000000E+00  0.00000000E+00  0.00000000E+00  0.00000000E+00  0.00000000E+00
Nuclear GFac                               R   N=          10
  0.00000000E+00  0.00000000E+00  0.00000000E+00  0.00000000E+00  2.79284600E+00
  2.79284600E+00  2.62886700E+00  2.79284600E+00  2.79284600E+00  2.79284600E+00
MicOpt                                     I   N=          10
          -1          -1          -1          -1          -1          -1
          -1          -1          -1          -1
Number of contracted shells                I               30
Number of primitive shells                 I               75
Pure/Cartesian d shells                    I                1
Pure/Cartesian f shells                    I                0
Highest angular momentum                   I                1
Largest degree of contraction              I                6
Shell types                                I   N=          30
           0          -1          -1          -1           0          -1
          -1          -1           0          -1          -1          -1
           0          -1          -1          -1           0           0
           0           0           0          -1          -1          -1
           0           0           0           0           0           0
Number of primitives per shell             I   N=          30
           6           3           1           1           6           3
           1           1           6           3           1           1
           6           3           1           1           3           1
           3           1           6           3           1           1
           3           1           3           1           3           1
Shell to atom map                          I   N=          30
           1           1           1           1           2           2
           2           2           3           3           3           3
           4           4           4           4           5           5
           6           6           7           7           7           7
           8           8           9           9          10          10
Primitive exponents                        R   N=          75
  3.04752488E+03  4.57369518E+02  1.03948685E+02  2.92101553E+01  9.28666296E+00
  3.16392696E+00  7.86827235E+00  1.88128854E+00  5.44249258E-01  1.68714478E-01
  4.38000000E-02  3.04752488E+03  4.57369518E+02  1.03948685E+02  2.92101553E+01
  9.28666296E+00  3.16392696E+00  7.86827235E+00  1.88128854E+00  5.44249258E-01
  1.68714478E-01  4.38000000E-02  3.04752488E+03  4.57369518E+02  1.03948685E+02
  2.92101553E+01  9.28666296E+00  3.16392696E+00  7.86827235E+00  1.88128854E+00
  5.44249258E-01  1.68714478E-01  4.38000000E-02  3.04752488E+03  4.57369518E+02
  1.03948685E+02  2.92101553E+01  9.28666296E+00  3.16392696E+00  7.86827235E+00
  1.88128854E+00  5.44249258E-01  1.68714478E-01  4.38000000E-02  1.87311370E+01
  2.82539436E+00  6.40121692E-01  1.61277759E-01  1.87311370E+01  2.82539436E+00
  6.40121692E-01  1.61277759E-01  7.00171309E+03  1.05136609E+03  2.39285690E+02
  6.73974453E+01  2.15199573E+01  7.40310130E+00  2.08479528E+01  4.80830834E+00
  1.34406986E+00  3.58151393E-01  1.07600000E-01  1.87311370E+01  2.82539436E+00
  6.40121692E-01  1.61277759E-01  1.87311370E+01  2.82539436E+00  6.40121692E-01
  1.61277759E-01  1.87311370E+01  2.82539436E+00  6.40121692E-01  1.61277759E-01
Contraction coefficients                   R   N=          75
  1.83473713E-03  1.40373228E-02  6.88426223E-02  2.32184443E-01  4.67941348E-01
  3.62311985E-01 -1.19332420E-01 -1.60854152E-01  1.14345644E+00  1.00000000E+00
  1.00000000E+00  1.83473713E-03  1.40373228E-02  6.88426223E-02  2.32184443E-01
  4.67941348E-01  3.62311985E-01 -1.19332420E-01 -1.60854152E-01  1.14345644E+00
  1.00000000E+00  1.00000000E+00  1.83473713E-03  1.40373228E-02  6.88426223E-02
  2.32184443E-01  4.67941348E-01  3.62311985E-01 -1.19332420E-01 -1.60854152E-01
  1.14345644E+00  1.00000000E+00  1.00000000E+00  1.83473713E-03  1.40373228E-02
  6.88426223E-02  2.32184443E-01  4.67941348E-01  3.62311985E-01 -1.19332420E-01
 -1.60854152E-01  1.14345644E+00  1.00000000E+00  1.00000000E+00  3.34946043E-02
  2.34726953E-01  8.13757326E-01  1.00000000E+00  3.34946043E-02  2.34726953E-01
  8.13757326E-01  1.00000000E+00  1.81961690E-03  1.39160796E-02  6.84053245E-02
  2.33185760E-01  4.71267439E-01  3.56618546E-01 -1.08506975E-01 -1.46451658E-01
  1.12868858E+00  1.00000000E+00  1.00000000E+00  3.34946043E-02  2.34726953E-01
  8.13757326E-01  1.00000000E+00  3.34946043E-02  2.34726953E-01  8.13757326E-01
  1.00000000E+00  3.34946043E-02  2.34726953E-01  8.13757326E-01  1.00000000E+00
P(S=P) Contraction coefficients            R   N=          75
  0.00000000E+00  0.00000000E+00  0.00000000E+00  0.00000000E+00  0.00000000E+00
  0.00000000E+00  6.89990666E-02  3.16423961E-01  7.44308291E-01  1.00000000E+00
  1.00000000E+00  0.00000000E+00  0.00000000E+00  0.00000000E+00  0.00000000E+00
  0.00000000E+00  0.00000000E+00  6.89990666E-02  3.16423961E-01  7.44308291E-01
  1.00000000E+00  1.00000000E+00  0.00000000E+00  0.00000000E+00  0.00000000E+00
  0.00000000E+00  0.00000000E+00  0.00000000E+00  6.89990666E-02  3.16423961E-01
  7.44308291E-01  1.00000000E+00  1.00000000E+00  0.00000000E+00  0.00000000E+00
  0.00000000E+00  0.00000000E+00  0.00000000E+00  0.00000000E+00  6.89990666E-02
  3.16423961E-01  7.44308291E-01  1.00000000E+00  1.00000000E+00  0.00000000E+00
  0.00000000E+00  0.00000000E+00  0.00000000E+00  0.00000000E+00  0.00000000E+00
  0.00000000E+00  0.00000000E+00  0.00000000E+00  0.00000000E+00  0.00000000E+00
  0.00000000E+00  0.00000000E+00  0.00000000E+00  7.16287242E-02  3.45912103E-01
  7.22469956E-01  1.00000000E+00  1.00000000E+00  0.00000000E+00  0.00000000E+00
  0.00000000E+00  0.00000000E+00  0.00000000E+00  0.00000000E+00  0.00000000E+00
  0.00000000E+00  0.00000000E+00  0.00000000E+00  0.00000000E+00  0.00000000E+00
Coordinates of each shell                  R   N=          90
 -1.95910460E+00  2.37622495E+00  1.58860250E-01 -1.95910460E+00  2.37622495E+00
  1.58860250E-01 -1.95910460E+00  2.37622495E+00  1.58860250E-01 -1.95910460E+00
  2.37622495E+00  1.58860250E-01 -8.87652595E-01  1.05953847E-01  1.17857261E-01
 -8.87652595E-01  1.05953847E-01  1.17857261E-01 -8.87652595E-01  1.05953847E-01
  1.17857261E-01 -8.87652595E-01  1.05953847E-01  1.17857261E-01  1.71075901E+00
 -6.53685607E-01  7.25960508E-01  1.71075901E+00 -6.53685607E-01  7.25960508E-01
  1.71075901E+00 -6.53685607E-01  7.25960508E-01  1.71075901E+00 -6.53685607E-01
  7.25960508E-01  3.73820805E+00  2.31238886E-01 -4.97013122E-01  3.73820805E+00
  2.31238886E-01 -4.97013122E-01  3.73820805E+00  2.31238886E-01 -4.97013122E-01
  3.73820805E+00  2.31238886E-01 -4.97013122E-01 -3.94048152E+00  2.62456555E+00
 -2.86064119E-01 -3.94048152E+00  2.62456555E+00 -2.86064119E-01 -8.44625964E-01
  4.02238244E+00  6.41037160E-01 -8.44625964E-01  4.02238244E+00  6.41037160E-01
 -2.43586054E+00 -2.01476500E+00 -3.94572776E-01 -2.43586054E+00 -2.01476500E+00
 -3.94572776E-01 -2.43586054E+00 -2.01476500E+00 -3.94572776E-01 -2.43586054E+00
 -2.01476500E+00 -3.94572776E-01  1.90078009E+00 -2.09017482E+00  2.18324439E+00
  1.90078009E+00 -2.09017482E+00  2.18324439E+00  3.56204789E+00  1.59222115E+00
 -2.02313650E+00  3.56204789E+00  1.59222115E+00 -2.02313650E+00  5.63176517E+00
 -3.74501799E-01  2.08466212E-03  5.63176517E+00 -3.74501799E-01  2.08466212E-03
Constraint Structure                       R   N=          30
 -1.99057288E+00  2.37876316E+00  1.55738199E-01 -8.82485078E-01  1.17097170E-01
  1.11977811E-01  1.71411378E+00 -6.43415968E-01  7.16877256E-01  3.76660972E+00
  2.37793235E-01 -4.86226335E-01 -3.97714555E+00  2.59957041E+00 -2.86716609E-01
 -9.03995202E-01  4.04730234E+00  6.29893162E-01 -2.43669635E+00 -2.03402319E+00
 -3.89631094E-01  1.89130183E+00 -2.10635882E+00  2.15319762E+00  3.62206479E+00
  1.61135204E+00 -2.00552268E+00  5.65204797E+00 -3.87082807E-01  2.56267750E-02
Num ILSW                                   I              100
ILSW                                       I   N=         100
           0           1           0           0           2           0
           0           0           0           0        4639          -1
           0           0           0           0           2           0
           0           0           0           0           1           0
           1           0           0           0           0           0
           0           0      100000           0          -1           0
           0           0           0           0           0           0
           0           0           0           1           0           0
           0           0           1           0           0           0
           0           0         121          41           0           0
           0           0          58           0           0           0
           0           0           0          10           0           0
           0           0           0           0           0           0
           0           0           0           0           0           0
           0           0           0           0           0           0
           0           0           0           0           0           0
           0           0           0           0
Num RLSW                                   I               41
RLSW                                       R   N=          41
  1.00000000E+00  1.00000000E+00  1.00000000E+00  1.00000000E+00  1.00000000E+00
  0.00000000E+00  2.00000000E-01  2.22036000E-01  0.00000000E+00  7.77964000E-01
  0.00000000E+00  2.00000000E-01  0.00000000E+00  0.00000000E+00  1.00000000E+00
  0.00000000E+00  0.00000000E+00  1.00000000E+00  0.00000000E+00  0.00000000E+00
  0.00000000E+00  0.00000000E+00  1.00000000E+00  0.00000000E+00  0.00000000E+00
  0.00000000E+00  0.00000000E+00  1.00000000E+00  0.00000000E+00  0.00000000E+00
  0.00000000E+00  0.00000000E+00  1.00000000E+00  0.00000000E+00  0.00000000E+00
  0.00000000E+00  0.00000000E+00  0.00000000E+00  1.00000000E+00  1.00000000E+00
  0.00000000E+00
MxBond                                     I                3
NBond                                      I   N=          10
           3           3           3           3           1           1
           1           1           1           1
IBond                                      I   N=          30
           2           5           6           1           3           7
           2           4           8           3           9          10
           1           0           0           1           0           0
           2           0           0           3           0           0
           4           0           0           4           0           0
RBond                                      R   N=          30
  2.00000000E+00  1.00000000E+00  1.00000000E+00  2.00000000E+00  1.00000000E+00
  1.00000000E+00  1.00000000E+00  2.00000000E+00  1.00000000E+00  2.00000000E+00
  1.00000000E+00  1.00000000E+00  1.00000000E+00  0.00000000E+00  0.00000000E+00
  1.00000000E+00  0.00000000E+00  0.00000000E+00  1.00000000E+00  0.00000000E+00
  0.00000000E+00  1.00000000E+00  0.00000000E+00  0.00000000E+00  1.00000000E+00
  0.00000000E+00  0.00000000E+00  1.00000000E+00  0.00000000E+00  0.00000000E+00
Virial Ratio                               R      2.005641697511688E+00
SCF Energy                                 R     -2.550966953751019E+02
Total Energy                               R     -2.550966953751019E+02
RMS Force                                  R      1.906635922691892E-03
RMS Density                                R      5.753477944521605E-09
External E-field                           R   N=          35
  0.00000000E+00  0.00000000E+00  0.00000000E+00  0.00000000E+00  0.00000000E+00
  0.00000000E+00  0.00000000E+00  0.00000000E+00  0.00000000E+00  0.00000000E+00
  0.00000000E+00  0.00000000E+00  0.00000000E+00  0.00000000E+00  0.00000000E+00
  0.00000000E+00  0.00000000E+00  0.00000000E+00  0.00000000E+00  0.00000000E+00
  0.00000000E+00  0.00000000E+00  0.00000000E+00  0.00000000E+00  0.00000000E+00
  0.00000000E+00  0.00000000E+00  0.00000000E+00  0.00000000E+00  0.00000000E+00
  0.00000000E+00  0.00000000E+00  0.00000000E+00  0.00000000E+00  0.00000000E+00
IOpCl                                      I                0
IROHF                                      I                0
Alpha Orbital Energies                     R   N=          75
 -2.48293970E+01 -1.04020177E+01 -1.03311441E+01 -1.03208552E+01 -1.03098731E+01
 -1.30841879E+00 -9.30685281E-01 -8.60154152E-01 -7.41629950E-01 -6.53104654E-01
 -6.11530056E-01 -5.76115072E-01 -5.60741242E-01 -5.26969625E-01 -5.06664199E-01
 -4.84976497E-01 -4.53005724E-01 -3.92711671E-01 -3.42913950E-01  2.90199469E-02
  7.05301062E-02  7.83639506E-02  8.54322742E-02  9.68333595E-02  1.12064301E-01
  1.20546523E-01  1.33036232E-01  1.39752409E-01  1.48113902E-01  1.65953096E-01
  1.74454503E-01  1.83099191E-01  1.89086069E-01  1.97142902E-01  2.00247559E-01
  2.28273707E-01  2.39244305E-01  2.57081790E-01  2.78026861E-01  2.91287742E-01
  3.13256993E-01  3.22288186E-01  3.89070875E-01  4.16806165E-01  4.27132765E-01
  4.56375899E-01  4.62211716E-01  4.77155648E-01  5.03717472E-01  5.18932722E-01
  7.05194725E-01  7.14045547E-01  7.50645093E-01  7.73751706E-01  8.11643073E-01
  8.24192094E-01  8.52096052E-01  8.95835489E-01  9.33562543E-01  9.72094497E-01
  9.99813367E-01  1.04908169E+00  1.06702769E+00  1.13739882E+00  1.14399699E+00
  1.15656850E+00  1.22606547E+00  1.25693419E+00  1.32216646E+00  1.39092366E+00
  1.44335464E+00  1.67331831E+00  1.81658658E+00  1.85946750E+00  2.35759707E+00
Alpha MO coefficients                      R   N=        5625
  5.68450217E-06 -1.25986406E-04 -1.12610970E-04  4.16811064E-05 -2.37424341E-05
  8.81059861E-04  2.69667447E-03  1.19492378E-03  6.43745141E-04  1.18561912E-02
  1.23180003E-03 -2.95951218E-03  4.35691364E-04 -2.47332409E-05  3.67554462E-04
 -2.88383422E-04 -4.59247305E-04 -1.32167966E-04  4.53755139E-04 -2.54034202E-03
 -2.58872072E-03 -5.11565506E-04 -2.60408065E-02 -3.59171928E-04  6.40268602E-04
 -1.46589564E-03 -6.24503116E-06 -2.30336048E-04  2.73068915E-05  6.79159113E-06
  3.71525521E-05  1.51288799E-03  6.34873952E-04  1.52163863E-03 -3.73729738E-04
 -3.84916307E-03 -6.62784313E-03 -1.44557683E-03  2.29174627E-03 -3.55285650E-06
 -4.08569834E-05  1.02279489E-04 -1.05702145E-06 -4.65573990E-05 -1.09901848E-03
 -4.91187636E-05 -1.93485671E-06 -3.55541828E-04  1.46843107E-02 -2.85207174E-03
 -1.48786802E-03  1.45605216E-03  3.14189273E-04  8.85477506E-04 -2.58928939E-04
 -1.61041964E-03  9.95027080E-01  2.75954592E-02  7.42992506E-04  1.01778839E-03
  2.58040454E-04 -1.53776775E-02 -1.23647653E-03 -1.71814246E-03 -4.36068253E-04
  8.80329864E-03  8.34592186E-04  9.36998568E-04  2.24617284E-04  1.26987383E-04
  3.92328491E-04 -2.19960966E-07  1.24162082E-05  5.44492782E-05  1.76925676E-04
  4.76991940E-03 -1.16976639E-03 -4.68591433E-04  7.62483149E-04 -9.35845738E-06
  8.67992014E-03  3.12037048E-03 -2.89943051E-03  4.59364618E-04 -1.74483561E-02
 -2.56540518E-03  4.47060730E-03 -7.99210183E-04  9.95498447E-01  3.63475545E-02
 -7.20801848E-04 -8.64296509E-04 -1.15468258E-04 -3.56319367E-02 -2.57428645E-04
 -4.48338624E-04 -6.80426851E-04  4.98802956E-02  7.20950572E-03  9.57289013E-04
  4.19536578E-03  2.06105884E-03 -3.69530154E-04  5.15241127E-04 -1.80949478E-04
  6.85539524E-05  4.38475826E-03 -3.90306165E-03  1.28477348E-03  2.62972985E-05
 -5.00848686E-03  1.51965165E-02  5.63042603E-04 -2.91424026E-03 -1.42199358E-04
 -5.81687106E-04  1.85360609E-04  1.83520679E-05  4.20699860E-05  1.65719380E-03
 -1.20550179E-03 -3.82338763E-04  4.43011490E-05 -2.64869670E-02  4.67555662E-03
  2.66813666E-03 -3.06208920E-03 -4.94401394E-05  4.87049448E-04 -2.83887714E-04
 -1.15073446E-03  3.99900725E-05  6.77165651E-04  3.19849052E-05  8.37080420E-05
  5.39905581E-06 -7.15187096E-04 -4.20401263E-04 -7.48235517E-04 -9.30401830E-05
  6.71371325E-03  2.48846558E-03  4.05412797E-03  8.82208209E-04 -1.48249496E-04
  9.89844864E-05 -2.52719910E-04  2.72659270E-04 -2.95524742E-05  1.00996166E-03
 -5.25108844E-04 -4.79106514E-04 -1.29987542E-04  6.98264267E-05 -6.52763101E-05
  1.44974738E-03 -9.00740952E-04 -1.01630531E-03 -5.38331063E-05 -2.39051250E-02
 -2.53448658E-03  5.36708614E-03 -1.57467461E-03 -1.96791428E-03 -4.68483217E-04
 -6.66747988E-04  2.29248143E-04 -1.70665547E-04  5.37644514E-03  6.89829541E-03
 -3.76088878E-04  1.01654769E-03 -1.84674371E-03 -9.87024428E-03  7.53452543E-03
  2.75692242E-03  9.94564897E-01  3.64822352E-02 -1.97351771E-04  2.91331086E-04
 -4.07709632E-04 -3.60464874E-02  1.60356121E-03 -3.45186618E-03  3.74699421E-03
  7.52154101E-02  3.94640418E-03  8.81682075E-03 -1.24119939E-02  4.11248969E-02
  1.93979885E-04  7.24857923E-04  3.24947703E-04 -4.26841766E-04  8.50550249E-03
 -4.82214615E-03 -5.93251652E-04  1.13251743E-03 -4.75846956E-02  9.61189084E-03
  3.48333909E-03 -4.64333998E-03 -1.32120739E-04 -7.93852838E-05 -3.85023438E-05
  4.21764950E-04 -3.77519947E-06 -2.07956645E-04 -1.17743161E-04 -1.24370196E-04
 -4.98762820E-05  3.11763454E-04  2.54576520E-04  7.28040209E-04  2.28961055E-04
  2.28063927E-03  5.40268277E-04  5.28962892E-04 -3.79539470E-05 -6.48166247E-04
  2.60072561E-03 -3.55559137E-04 -8.42421935E-04 -1.30625957E-04  1.15416914E-03
 -5.05425210E-04 -1.34476405E-04  7.86386585E-05 -1.81695683E-05  4.81725505E-05
  1.17487391E-04 -1.57012946E-03  1.97337451E-04 -4.63034177E-04 -2.69110636E-02
 -2.75135045E-03  5.45792069E-03 -7.76781149E-06  1.20088555E-04 -5.28353702E-04
 -1.58841001E-04 -3.97063040E-05  3.84464945E-06  2.06649423E-03  1.06952174E-03
  3.39314532E-04  6.63307296E-04 -1.35504637E-02 -1.35549035E-02  1.15367589E-02
 -1.38324799E-03 -4.13656416E-02 -2.66930649E-03 -9.19881450E-04 -4.89561534E-04
  6.39113453E-04  9.34270494E-03  5.43636582E-03  1.95262319E-03 -2.99943223E-03
  1.38523016E-02 -1.75821688E-02  7.49642324E-04 -1.73256502E-03  9.94480596E-01
  3.54129149E-02 -4.43592248E-04 -1.38848653E-04  2.83679310E-04 -3.14117942E-02
  3.53765299E-03  1.50646681E-03 -2.07829681E-03  2.78957107E-02 -6.04262706E-03
 -3.35359477E-03  5.29746443E-03 -1.46205624E-04 -7.69163929E-04  4.82196492E-05
  6.27777047E-04 -2.50764178E-06 -2.10196865E-05  1.90758979E-05 -1.60453334E-05
 -1.35443830E-05  1.43896588E-04 -2.07117853E-05  1.29917321E-04  3.35348417E-05
  5.84460069E-04 -6.31998142E-05 -2.39810097E-04  3.69760818E-05 -3.18111660E-05
 -5.87392763E-05 -6.16475744E-04  3.68600845E-03 -7.07255265E-04  4.10051793E-03
  9.95296420E-01  3.56613385E-02  4.07073343E-04 -6.09936592E-04 -2.03095998E-05
 -3.26672098E-02 -2.57582560E-03  4.49024133E-03 -1.39862605E-05  1.81364073E-02
  1.10299795E-03 -6.42651339E-03 -9.08348056E-04 -5.05085729E-03 -1.51458948E-03
  5.62146504E-04 -1.18715082E-03  1.13968179E-05  9.22254914E-03 -3.58967131E-03
  7.00423839E-03  8.08763067E-05  1.92607779E-02  1.40607606E-02 -4.09082862E-03
  3.88916522E-03  4.22551776E-04 -4.18786547E-04  1.06696455E-04 -1.68839892E-04
  8.47911785E-05  2.31908254E-03 -9.74421245E-04  3.82035273E-04 -1.29494439E-03
 -1.75934039E-02  1.27159303E-02 -1.70616692E-03 -1.68321445E-03  5.22515478E-04
 -9.58573064E-05 -8.06267126E-05  3.58117131E-06 -3.22813188E-05 -1.82228192E-05
  1.61919008E-03 -3.03946027E-04  4.19767013E-04 -1.83221702E-02  3.91096604E-03
  1.56697922E-03 -1.63781179E-03 -7.19784226E-04  3.91317699E-03 -5.98259370E-04
  3.91461343E-03 -2.11580541E-06 -1.66778156E-04 -7.09973695E-05 -1.13316720E-04
 -1.76739383E-05  2.33228371E-04  4.84193471E-04  2.36402308E-04  7.09094366E-05
  3.68961671E-04 -1.69671522E-04 -3.66476427E-04  9.04082740E-05 -8.17899065E-06
  8.06867502E-04  6.15640970E-05  3.55315260E-04 -1.43905094E-04 -7.69190592E-04
 -9.77157417E-03  1.93765968E-02  3.09333477E-03 -1.63184150E-02 -1.06555785E-03
 -4.46825433E-03 -3.14346236E-02 -1.18727804E-02 -7.68038177E-03 -1.19343715E-01
 -1.80292528E-02  2.55472557E-02 -1.95318181E-03 -5.89838612E-02  1.15475762E-01
 -5.61423170E-02 -7.53250129E-02 -1.74208527E-02  3.03611663E-02  3.53664081E-02
  3.57371666E-02  9.28273647E-03  2.12742120E-01  8.99997945E-03  1.57553489E-02
  7.47202488E-03 -8.88124683E-03  1.74987182E-02 -1.37074429E-02 -9.79533016E-04
 -3.64588385E-03 -7.20752531E-03 -4.95898786E-03 -1.74634840E-02  1.68220623E-03
 -4.85337321E-02  2.64256716E-02 -2.20209330E-03 -2.33608101E-03 -1.00535570E-03
  3.30052594E-03 -2.76449016E-03 -4.75769336E-04  6.16277660E-04  9.33413897E-03
  3.61921267E-03 -3.68596435E-04  4.45585709E-03 -2.86936959E-02  6.61567761E-03
  4.25132057E-03 -2.06837584E-03  8.62577854E-04 -1.19688597E-02  3.35313410E-03
  1.67816012E-02 -2.25713317E-01  4.78730911E-01  5.67519210E-02  7.72216846E-02
  1.94799526E-02  5.44545039E-01  4.49133939E-02  6.13872737E-02  1.57017304E-02
 -1.32642952E-02 -8.55544374E-03 -9.97727679E-03 -2.37711218E-03  1.69658023E-03
 -3.48196250E-03  1.07938602E-03 -1.30680863E-03 -2.18653666E-04 -5.02045658E-03
 -8.63644178E-02  1.66677050E-01  4.60317571E-02 -6.36011636E-02  1.83231529E-03
  1.21111531E-01 -4.86161179E-05 -8.58686739E-03 -1.58500530E-03  8.72520812E-02
  6.05321444E-03 -2.21509945E-02  2.49188488E-03 -1.21681230E-01  2.44254333E-01
  5.97669429E-02  6.06559992E-02  2.03866401E-02  1.75330744E-01  2.66056899E-02
 -4.55748605E-03  3.33248449E-03 -5.18477732E-02  2.75514629E-02 -1.78407643E-02
 -5.69990078E-03 -1.38919277E-01  2.70730804E-01 -5.08918243E-03  4.51700982E-02
 -4.41396899E-02  1.76662378E-01  1.49526293E-03  1.08447808E-03  2.76857467E-03
 -1.19189151E-01 -8.16491784E-03 -1.81857849E-02  2.21391111E-02 -9.87608174E-02
  1.90385433E-01 -7.32659374E-02 -2.27126773E-02  3.61827214E-02  1.33342023E-01
 -6.70010511E-03  2.47422270E-03 -3.69854019E-04  8.39032334E-02 -1.86930844E-02
 -4.38443847E-03  7.64422337E-03  3.55547947E-02 -2.62513575E-04  4.50446387E-02
  1.09437433E-02  4.56681623E-02 -1.03018452E-01  3.63126106E-02  4.23831750E-02
  1.16991444E-02 -1.27396267E-01  1.51449590E-02  2.02183363E-02  4.81207836E-03
 -1.88610418E-02 -8.67525910E-03 -4.65347968E-03 -8.09809096E-04  6.44745123E-02
  5.64475629E-03  4.87493507E-02  4.93328786E-03  4.39035468E-02  5.93430876E-03
 -1.40432007E-01  2.71487257E-01  3.10603652E-02 -7.90130504E-02 -1.71314445E-03
  2.17027068E-01  3.28641900E-03 -6.53893659E-04 -5.67093655E-04 -1.08548851E-01
 -7.15059676E-03  2.20385070E-02  2.41682152E-03 -8.71224472E-02  1.81217065E-01
 -1.04306278E-01  1.40973424E-01  6.53418554E-04  1.18861766E-01 -2.36408589E-02
  9.75139077E-03  3.37198079E-03 -7.53709570E-02 -6.48033588E-02  5.68747862E-02
 -1.22922233E-02  8.63834098E-02 -1.70851847E-01 -1.06573894E-01 -5.69462525E-03
  3.54046097E-02 -1.17859468E-01 -1.21239224E-02  1.77240580E-02 -9.92649545E-03
  1.06471149E-01 -8.00239531E-02  2.06170977E-03 -7.77474995E-03  1.15474609E-01
 -2.23943584E-01  4.75063115E-02  3.02344589E-02 -3.63124610E-02 -1.91899081E-01
  7.16384322E-03 -1.60924633E-03 -6.16990589E-05  7.66544935E-02 -9.66247753E-03
 -9.21437938E-03  1.54875050E-02  8.01193814E-02  1.52843200E-02  7.71260050E-02
  1.07664891E-02  2.91696755E-02 -6.63770259E-02  5.10512578E-03  6.68882707E-02
  8.78837083E-03 -8.60123025E-02  2.80985499E-03  3.38003348E-02  4.19174898E-03
 -1.56655089E-02 -3.77680927E-03 -4.07044587E-03 -2.34887854E-03 -5.11103747E-02
 -2.51314542E-03 -6.09079196E-02 -6.53392424E-03 -6.84579873E-02 -1.60910774E-02
 -8.75502736E-02  1.70666926E-01 -3.40556535E-02  2.96242625E-02 -1.16344023E-02
  1.51385185E-01 -1.08515234E-02  1.55685438E-02 -3.13966495E-03 -3.54423102E-02
  6.31854303E-04  1.27186962E-02 -3.10987048E-03  7.04855262E-02 -1.51395467E-01
 -1.51631776E-01  1.54132157E-01 -4.40617941E-02 -1.44909644E-01 -4.14570797E-02
  4.52940999E-02 -1.26814713E-02  5.87127609E-02 -1.47853967E-02  8.59840185E-04
  8.79713922E-03  7.14967837E-02 -1.46604793E-01  2.03086265E-01  4.41019528E-02
 -4.86361834E-02 -1.29435176E-01  4.12277845E-02  2.32402082E-02 -2.16824873E-02
  1.34680410E-01  5.61228144E-02  2.01661401E-02 -2.61385922E-02 -1.18602502E-01
  2.35985867E-01  5.96688190E-02  1.72822238E-02 -1.75687295E-02  2.15477664E-01
  2.63002896E-02  5.83888014E-03 -6.00404284E-03 -1.51280389E-01  2.76367251E-02
  1.43775078E-02 -1.97350859E-02  8.70187371E-02  3.11147173E-02  7.33946429E-02
  2.52756604E-02 -3.16608401E-02  7.29980995E-02 -1.32048837E-01 -4.91747011E-02
 -4.25714906E-02  9.59001168E-02 -7.20479319E-02 -2.37520865E-02 -2.31552143E-02
  3.18267321E-02  4.31365646E-03  6.17350812E-03  1.23823727E-03 -7.71394140E-02
 -2.10760383E-02  1.05377904E-01  4.04493479E-02  1.14988996E-01  3.98693595E-02
  6.18108489E-02 -1.21252323E-01  1.16507935E-02 -1.69177274E-01 -2.80126911E-02
 -1.55097650E-01 -1.70026525E-02 -5.32471128E-02 -1.44695135E-02 -1.58774022E-01
 -2.02200906E-02  1.75815570E-02 -3.63147162E-04 -7.71301919E-02  1.71503867E-01
 -1.25043884E-01 -7.74830772E-02 -6.34002952E-02  1.73353927E-01 -1.89665363E-02
 -1.07423738E-02 -1.42221764E-02  1.71016537E-01 -3.21208785E-03  6.80363960E-02
  1.55328832E-03  7.55439169E-02 -1.51576661E-01 -4.93602532E-02  6.04044947E-02
 -8.83037366E-02 -1.68130102E-01 -3.49236085E-03  2.28695063E-02 -4.18697237E-02
  1.10888352E-02 -4.37781332E-03 -1.27139462E-02 -1.02647783E-02 -5.39887245E-02
  1.09434960E-01  8.80785044E-02  7.57049276E-02 -1.05495297E-01  1.20614345E-01
  3.36506427E-02  2.24218910E-02 -3.33133154E-02 -2.40967618E-02  1.63874410E-02
  5.82304575E-03 -1.83715426E-03 -7.46543867E-02 -4.08075822E-02 -1.25529531E-01
 -5.30219971E-02  4.50828375E-02 -1.06413241E-01  1.59464144E-01  2.80604814E-01
  3.71162785E-02 -1.30556356E-01  9.22474051E-02  1.66073453E-01  2.10595733E-02
 -5.46688787E-02 -1.38971092E-03 -4.03835836E-03 -1.04260267E-03 -1.25197933E-01
 -5.04939973E-02  1.10316548E-01  5.05852943E-02  6.93284381E-02  2.83438949E-02