 Entering Gaussian System, Link 0=/opt/cluster/programs/g09_d.01/g09//g09
 Input=/home/unibas/boittier/RDKit_G2/L.pdb/SCAN_1_2_3_4_S_17_20.0/9_SCAN_1_2_3_4_F/9_SCAN_L.pdb.com
 Output=/scratch/boittier/9_SCAN_L.pdb/9_SCAN_L.pdb.out
 Initial command:
 /opt/cluster/programs/g09_d.01/g09/l1.exe "/scratch/boittier/9_SCAN_L.pdb/Gau-195960.inp" -scrdir="/scratch/boittier/9_SCAN_L.pdb/"
 Entering Link 1 = /opt/cluster/programs/g09_d.01/g09/l1.exe PID=    195961.
  
 Copyright (c) 1988,1990,1992,1993,1995,1998,2003,2009,2013,
            Gaussian, Inc.  All Rights Reserved.
  
 This is part of the Gaussian(R) 09 program.  It is based on
 the Gaussian(R) 03 system (copyright 2003, Gaussian, Inc.),
 the Gaussian(R) 98 system (copyright 1998, Gaussian, Inc.),
 the Gaussian(R) 94 system (copyright 1995, Gaussian, Inc.),
 the Gaussian 92(TM) system (copyright 1992, Gaussian, Inc.),
 the Gaussian 90(TM) system (copyright 1990, Gaussian, Inc.),
 the Gaussian 88(TM) system (copyright 1988, Gaussian, Inc.),
 the Gaussian 86(TM) system (copyright 1986, Carnegie Mellon
 University), and the Gaussian 82(TM) system (copyright 1983,
 Carnegie Mellon University). Gaussian is a federally registered
 trademark of Gaussian, Inc.
  
 This software contains proprietary and confidential information,
 including trade secrets, belonging to Gaussian, Inc.
  
 This software is provided under written license and may be
 used, copied, transmitted, or stored only in accord with that
 written license.
  
 The following legend is applicable only to US Government
 contracts under FAR:
  
                    RESTRICTED RIGHTS LEGEND
  
 Use, reproduction and disclosure by the US Government is
 subject to restrictions as set forth in subparagraphs (a)
 and (c) of the Commercial Computer Software - Restricted
 Rights clause in FAR 52.227-19.
  
 Gaussian, Inc.
 340 Quinnipiac St., Bldg. 40, Wallingford CT 06492
  
  
 ---------------------------------------------------------------
 Warning -- This program may not be used in any manner that
 competes with the business of Gaussian, Inc. or will provide
 assistance to any competitor of Gaussian, Inc.  The licensee
 of this program is prohibited from giving any competitor of
 Gaussian, Inc. access to this program.  By using this program,
 the user acknowledges that Gaussian, Inc. is engaged in the
 business of creating and licensing software in the field of
 computational chemistry and represents and warrants to the
 licensee that it is not a competitor of Gaussian, Inc. and that
 it will not use this program in any manner prohibited above.
 ---------------------------------------------------------------
  

 Cite this work as:
 Gaussian 09, Revision D.01,
 M. J. Frisch, G. W. Trucks, H. B. Schlegel, G. E. Scuseria, 
 M. A. Robb, J. R. Cheeseman, G. Scalmani, V. Barone, B. Mennucci, 
 G. A. Petersson, H. Nakatsuji, M. Caricato, X. Li, H. P. Hratchian, 
 A. F. Izmaylov, J. Bloino, G. Zheng, J. L. Sonnenberg, M. Hada, 
 M. Ehara, K. Toyota, R. Fukuda, J. Hasegawa, M. Ishida, T. Nakajima, 
 Y. Honda, O. Kitao, H. Nakai, T. Vreven, J. A. Montgomery, Jr., 
 J. E. Peralta, F. Ogliaro, M. Bearpark, J. J. Heyd, E. Brothers, 
 K. N. Kudin, V. N. Staroverov, T. Keith, R. Kobayashi, J. Normand, 
 K. Raghavachari, A. Rendell, J. C. Burant, S. S. Iyengar, J. Tomasi, 
 M. Cossi, N. Rega, J. M. Millam, M. Klene, J. E. Knox, J. B. Cross, 
 V. Bakken, C. Adamo, J. Jaramillo, R. Gomperts, R. E. Stratmann, 
 O. Yazyev, A. J. Austin, R. Cammi, C. Pomelli, J. W. Ochterski, 
 R. L. Martin, K. Morokuma, V. G. Zakrzewski, G. A. Voth, 
 P. Salvador, J. J. Dannenberg, S. Dapprich, A. D. Daniels, 
 O. Farkas, J. B. Foresman, J. V. Ortiz, J. Cioslowski, 
 and D. J. Fox, Gaussian, Inc., Wallingford CT, 2013.
 
 ******************************************
 Gaussian 09:  ES64L-G09RevD.01 24-Apr-2013
                12-May-2021 
 ******************************************
 %chk=/home/unibas/boittier/RDKit_G2/L.pdb/SCAN_1_2_3_4_S_17_20.0/9_SCAN_1_2_3_4_
 F/L.pdb.chk
 %nproc=8
 Will use up to    8 processors via shared memory.
 %mem=16GB
 -----------------------------
 #p wB97XD/6-31+G Opt=ModRedun
 -----------------------------
 1/14=-1,18=120,19=15,26=3,38=1/1,3;
 2/9=110,12=2,17=6,18=5,40=1/2;
 3/5=1,6=6,7=10,11=2,16=1,25=1,30=1,71=1,74=-58/1,2,3;
 4//1;
 5/5=2,38=5/2;
 6/7=2,8=2,9=2,10=2,28=1/1;
 7//1,2,3,16;
 1/14=-1,18=20,19=15,26=3/3(2);
 2/9=110/2;
 99//99;
 2/9=110/2;
 3/5=1,6=6,7=10,11=2,16=1,25=1,30=1,71=1,74=-58/1,2,3;
 4/5=5,16=3,69=1/1;
 5/5=2,38=5/2;
 7//1,2,3,16;
 1/14=-1,18=20,19=15,26=3/3(-5);
 2/9=110/2;
 6/7=2,8=2,9=2,10=2,19=2,28=1/1;
 99/9=1/99;
 Leave Link    1 at Wed May 12 11:58:23 2021, MaxMem=  2147483648 cpu:         0.2
 (Enter /opt/cluster/programs/g09_d.01/g09/l101.exe)
 -----
 L.pdb
 -----
 Symbolic Z-matrix:
 Charge =  0 Multiplicity = 1
 C                     1.48389   0.47125   0. 
 C                     0.66693  -0.59813  -0.00003 
 C                    -0.80476  -0.47687  -0.00001 
 O                    -1.42715   0.60169   0.00001 
 H                    -1.36569  -1.42614   0.00008 
 H                     2.56419   0.36651   0.00009 
 H                     1.07703   1.47901  -0.00004 
 H                     1.0653   -1.61043   0.00003 
 
 The following ModRedundant input section has been read:
 D       1       2       3       4 F                                           
 
 NAtoms=      8 NQM=        8 NQMF=       0 NMMI=      0 NMMIF=      0
                NMic=       0 NMicF=      0.
                    Isotopes and Nuclear Properties:
 (Nuclear quadrupole moments (NQMom) in fm**2, nuclear magnetic moments (NMagM)
  in nuclear magnetons)

  Atom         1           2           3           4           5           6           7           8
 IAtWgt=          12          12          12          16           1           1           1           1
 AtmWgt=  12.0000000  12.0000000  12.0000000  15.9949146   1.0078250   1.0078250   1.0078250   1.0078250
 NucSpn=           0           0           0           0           1           1           1           1
 AtZEff=   0.0000000   0.0000000   0.0000000   0.0000000   0.0000000   0.0000000   0.0000000   0.0000000
 NQMom=    0.0000000   0.0000000   0.0000000   0.0000000   0.0000000   0.0000000   0.0000000   0.0000000
 NMagM=    0.0000000   0.0000000   0.0000000   0.0000000   2.7928460   2.7928460   2.7928460   2.7928460
 AtZNuc=   6.0000000   6.0000000   6.0000000   8.0000000   1.0000000   1.0000000   1.0000000   1.0000000
 Leave Link  101 at Wed May 12 11:58:24 2021, MaxMem=  2147483648 cpu:         4.2
 (Enter /opt/cluster/programs/g09_d.01/g09/l103.exe)

 GradGradGradGradGradGradGradGradGradGradGradGradGradGradGradGradGradGrad
 Berny optimization.
 Initialization pass.
                           ----------------------------
                           !    Initial Parameters    !
                           ! (Angstroms and Degrees)  !
 --------------------------                            --------------------------
 ! Name  Definition              Value          Derivative Info.                !
 --------------------------------------------------------------------------------
 ! R1    R(1,2)                  1.3457         estimate D2E/DX2                !
 ! R2    R(1,6)                  1.0854         estimate D2E/DX2                !
 ! R3    R(1,7)                  1.0868         estimate D2E/DX2                !
 ! R4    R(2,3)                  1.4767         estimate D2E/DX2                !
 ! R5    R(2,8)                  1.0879         estimate D2E/DX2                !
 ! R6    R(3,4)                  1.2453         estimate D2E/DX2                !
 ! R7    R(3,5)                  1.1026         estimate D2E/DX2                !
 ! A1    A(2,1,6)              121.8408         estimate D2E/DX2                !
 ! A2    A(2,1,7)              120.6365         estimate D2E/DX2                !
 ! A3    A(6,1,7)              117.5227         estimate D2E/DX2                !
 ! A4    A(1,2,3)              122.6682         estimate D2E/DX2                !
 ! A5    A(1,2,8)              121.1404         estimate D2E/DX2                !
 ! A6    A(3,2,8)              116.1914         estimate D2E/DX2                !
 ! A7    A(2,3,4)              124.6973         estimate D2E/DX2                !
 ! A8    A(2,3,5)              115.8686         estimate D2E/DX2                !
 ! A9    A(4,3,5)              119.4342         estimate D2E/DX2                !
 ! D1    D(6,1,2,3)            179.994          estimate D2E/DX2                !
 ! D2    D(6,1,2,8)             -0.0006         estimate D2E/DX2                !
 ! D3    D(7,1,2,3)             -0.0049         estimate D2E/DX2                !
 ! D4    D(7,1,2,8)           -179.9995         estimate D2E/DX2                !
 ! D5    D(1,2,3,4)              0.001          Frozen                          !
 ! D6    D(1,2,3,5)           -179.9933         estimate D2E/DX2                !
 ! D7    D(8,2,3,4)            179.9958         estimate D2E/DX2                !
 ! D8    D(8,2,3,5)              0.0015         estimate D2E/DX2                !
 --------------------------------------------------------------------------------
 Trust Radius=3.00D-01 FncErr=1.00D-07 GrdErr=1.00D-06
 Number of steps in this run=     34 maximum allowed number of steps=    100.
 GradGradGradGradGradGradGradGradGradGradGradGradGradGradGradGradGradGrad

 Leave Link  103 at Wed May 12 11:58:24 2021, MaxMem=  2147483648 cpu:         0.1
 (Enter /opt/cluster/programs/g09_d.01/g09/l202.exe)
                          Input orientation:                          
 ---------------------------------------------------------------------
 Center     Atomic      Atomic             Coordinates (Angstroms)
 Number     Number       Type             X           Y           Z
 ---------------------------------------------------------------------
      1          6           0        1.483891    0.471247    0.000003
      2          6           0        0.666930   -0.598128   -0.000026
      3          6           0       -0.804764   -0.476868   -0.000013
      4          8           0       -1.427146    0.601693    0.000008
      5          1           0       -1.365690   -1.426144    0.000076
      6          1           0        2.564186    0.366510    0.000089
      7          1           0        1.077033    1.479013   -0.000042
      8          1           0        1.065302   -1.610431    0.000027
 ---------------------------------------------------------------------
                    Distance matrix (angstroms):
                    1          2          3          4          5
     1  C    0.000000
     2  C    1.345730   0.000000
     3  C    2.477269   1.476681   0.000000
     4  O    2.913958   2.413447   1.245252   0.000000
     5  H    3.423478   2.194802   1.102616   2.028768   0.000000
     6  H    1.085360   2.128405   3.472911   3.998255   4.319437
     7  H    1.086796   2.117239   2.714154   2.653413   3.795633
     8  H    2.123346   1.087868   2.186804   3.332535   2.437967
                    6          7          8
     6  H    0.000000
     7  H    1.857226   0.000000
     8  H    2.480917   3.089466   0.000000
 Stoichiometry    C3H4O
 Framework group  C1[X(C3H4O)]
 Deg. of freedom    18
 Full point group                 C1      NOp   1
 Largest Abelian subgroup         C1      NOp   1
 Largest concise Abelian subgroup C1      NOp   1
                         Standard orientation:                         
 ---------------------------------------------------------------------
 Center     Atomic      Atomic             Coordinates (Angstroms)
 Number     Number       Type             X           Y           Z
 ---------------------------------------------------------------------
      1          6           0       -1.483891   -0.471247    0.000003
      2          6           0       -0.666930    0.598128   -0.000026
      3          6           0        0.804764    0.476868   -0.000013
      4          8           0        1.427146   -0.601693    0.000008
      5          1           0        1.365690    1.426144    0.000076
      6          1           0       -2.564186   -0.366510    0.000089
      7          1           0       -1.077033   -1.479013   -0.000042
      8          1           0       -1.065302    1.610431    0.000027
 ---------------------------------------------------------------------
 Rotational constants (GHZ):     22.6238654      6.0997950      4.8044344
 Leave Link  202 at Wed May 12 11:58:24 2021, MaxMem=  2147483648 cpu:         0.0
 (Enter /opt/cluster/programs/g09_d.01/g09/l301.exe)
 Standard basis: 6-31+G (6D, 7F)
 Ernie: Thresh=  0.10000D-02 Tol=  0.10000D-05 Strict=F.
 There are    60 symmetry adapted cartesian basis functions of A   symmetry.
 There are    60 symmetry adapted basis functions of A   symmetry.
    60 basis functions,   120 primitive gaussians,    60 cartesian basis functions
    15 alpha electrons       15 beta electrons
       nuclear repulsion energy       103.5879035656 Hartrees.
 IExCor= 4639 DFT=T Ex+Corr=wB97XD ExCW=0 ScaHFX=  1.000000
 ScaDFX=  1.000000  1.000000  1.000000  1.000000 ScalE2=  1.000000  1.000000
 IRadAn=      0 IRanWt=     -1 IRanGd=            0 ICorTp=0 IEmpDi=121
  HFx wShort=  0.000000 wLong=  0.200000 cFull=  0.222036 cShort=  0.000000 cLong=  0.777964
  DFx wShort=  0.000000 wLong=  0.200000 cFull=  0.000000 cShort=  0.000000 cLong=  1.000000
 NAtoms=    8 NActive=    8 NUniq=    8 SFac= 1.00D+00 NAtFMM=   60 NAOKFM=F Big=F
 Integral buffers will be    131072 words long.
 Raffenetti 2 integral format.
 Two-electron integral symmetry is turned on.
 R6Disp:  Grimme-D2 Dispersion energy=       -0.0017698950 Hartrees.
 Nuclear repulsion after empirical dispersion term =      103.5861336706 Hartrees.
 Leave Link  301 at Wed May 12 11:58:24 2021, MaxMem=  2147483648 cpu:         0.3
 (Enter /opt/cluster/programs/g09_d.01/g09/l302.exe)
 NPDir=0 NMtPBC=     1 NCelOv=     1 NCel=       1 NClECP=     1 NCelD=      1
         NCelK=      1 NCelE2=     1 NClLst=     1 CellRange=     0.0.
 One-electron integrals computed using PRISM.
 NBasis=    60 RedAO= T EigKep=  1.28D-04  NBF=    60
 NBsUse=    60 1.00D-06 EigRej= -1.00D+00 NBFU=    60
 Precomputing XC quadrature grid using
 IXCGrd= 4 IRadAn=           0 IRanWt=          -1 IRanGd=           0 AccXCQ= 0.00D+00.
 Generated NRdTot=       0 NPtTot=           0 NUsed=           0 NTot=          32
 NSgBfM=    60    60    60    60    60 MxSgAt=     8 MxSgA2=     8.
 Leave Link  302 at Wed May 12 11:58:24 2021, MaxMem=  2147483648 cpu:         0.8
 (Enter /opt/cluster/programs/g09_d.01/g09/l303.exe)
 DipDrv:  MaxL=1.
 Leave Link  303 at Wed May 12 11:58:24 2021, MaxMem=  2147483648 cpu:         0.2
 (Enter /opt/cluster/programs/g09_d.01/g09/l401.exe)
 ExpMin= 4.38D-02 ExpMax= 5.48D+03 ExpMxC= 8.25D+02 IAcc=2 IRadAn=         4 AccDes= 0.00D+00
 Harris functional with IExCor= 4639 and IRadAn=       4 diagonalized for initial guess.
 HarFok:  IExCor= 4639 AccDes= 0.00D+00 IRadAn=         4 IDoV= 1 UseB2=F ITyADJ=14
 ICtDFT=  3500011 ScaDFX=  1.000000  1.000000  1.000000  1.000000
 FoFCou: FMM=F IPFlag=           0 FMFlag=      100000 FMFlg1=           0
         NFxFlg=           0 DoJE=T BraDBF=F KetDBF=T FulRan=T
         wScrn=  0.000000 ICntrl=     500 IOpCl=  0 I1Cent=   200000004 NGrid=           0
         NMat0=    1 NMatS0=      1 NMatT0=    0 NMatD0=    1 NMtDS0=    0 NMtDT0=    0
 Petite list used in FoFCou.
 Harris En= -183.747439539604    
 JPrj=0 DoOrth=F DoCkMO=F.
 Leave Link  401 at Wed May 12 11:58:24 2021, MaxMem=  2147483648 cpu:         1.0
 (Enter /opt/cluster/programs/g09_d.01/g09/l502.exe)
 Closed shell SCF:
 Using DIIS extrapolation, IDIIS=  1040.
 Integral symmetry usage will be decided dynamically.
 Keep R1 ints in memory in canonical form, NReq=4262490.
 IVT=       30290 IEndB=       30290 NGot=  2147483648 MDV=  2144102629
 LenX=  2144102629 LenY=  2144098588
 Requested convergence on RMS density matrix=1.00D-08 within 128 cycles.
 Requested convergence on MAX density matrix=1.00D-06.
 Requested convergence on             energy=1.00D-06.
 No special actions if energy rises.
 FoFCou: FMM=F IPFlag=           0 FMFlag=           0 FMFlg1=           0
         NFxFlg=           0 DoJE=F BraDBF=F KetDBF=F FulRan=T
         wScrn=  0.000000 ICntrl=     600 IOpCl=  0 I1Cent=           0 NGrid=           0
         NMat0=    1 NMatS0=   1830 NMatT0=    0 NMatD0=    1 NMtDS0=    0 NMtDT0=    0
 Symmetry not used in FoFCou.

 Cycle   1  Pass 1  IDiag  1:
 E= -191.754472288155    
 DIIS: error= 2.74D-02 at cycle   1 NSaved=   1.
 NSaved= 1 IEnMin= 1 EnMin= -191.754472288155     IErMin= 1 ErrMin= 2.74D-02
 ErrMax= 2.74D-02  0.00D+00 EMaxC= 1.00D-01 BMatC= 7.22D-02 BMatP= 7.22D-02
 IDIUse=3 WtCom= 7.26D-01 WtEn= 2.74D-01
 Coeff-Com:  0.100D+01
 Coeff-En:   0.100D+01
 Coeff:      0.100D+01
 Gap=     0.390 Goal=   None    Shift=    0.000
 GapD=    0.390 DampG=1.000 DampE=0.500 DampFc=0.5000 IDamp=-1.
 Damping current iteration by 5.00D-01
 RMSDP=2.89D-02 MaxDP=8.18D-01              OVMax= 1.04D-01

 Cycle   2  Pass 1  IDiag  1:
 E= -191.772267904680     Delta-E=       -0.017795616525 Rises=F Damp=T
 DIIS: error= 1.39D-02 at cycle   2 NSaved=   2.
 NSaved= 2 IEnMin= 2 EnMin= -191.772267904680     IErMin= 2 ErrMin= 1.39D-02
 ErrMax= 1.39D-02  0.00D+00 EMaxC= 1.00D-01 BMatC= 1.11D-02 BMatP= 7.22D-02
 IDIUse=3 WtCom= 8.61D-01 WtEn= 1.39D-01
 Coeff-Com: -0.189D+00 0.119D+01
 Coeff-En:   0.000D+00 0.100D+01
 Coeff:     -0.163D+00 0.116D+01
 Gap=     0.374 Goal=   None    Shift=    0.000
 RMSDP=1.23D-02 MaxDP=3.45D-01 DE=-1.78D-02 OVMax= 9.38D-02

 Cycle   3  Pass 1  IDiag  1:
 E= -191.787444965941     Delta-E=       -0.015177061261 Rises=F Damp=F
 DIIS: error= 1.37D-02 at cycle   3 NSaved=   3.
 NSaved= 3 IEnMin= 3 EnMin= -191.787444965941     IErMin= 3 ErrMin= 1.37D-02
 ErrMax= 1.37D-02  0.00D+00 EMaxC= 1.00D-01 BMatC= 7.22D-03 BMatP= 1.11D-02
 IDIUse=3 WtCom= 8.63D-01 WtEn= 1.37D-01
 Coeff-Com: -0.248D+00 0.615D+00 0.633D+00
 Coeff-En:   0.000D+00 0.000D+00 0.100D+01
 Coeff:     -0.214D+00 0.531D+00 0.683D+00
 Gap=     0.339 Goal=   None    Shift=    0.000
 RMSDP=4.26D-03 MaxDP=9.09D-02 DE=-1.52D-02 OVMax= 3.60D-02

 Cycle   4  Pass 1  IDiag  1:
 E= -191.792090319094     Delta-E=       -0.004645353153 Rises=F Damp=F
 DIIS: error= 5.47D-03 at cycle   4 NSaved=   4.
 NSaved= 4 IEnMin= 4 EnMin= -191.792090319094     IErMin= 4 ErrMin= 5.47D-03
 ErrMax= 5.47D-03  0.00D+00 EMaxC= 1.00D-01 BMatC= 1.27D-03 BMatP= 7.22D-03
 IDIUse=3 WtCom= 9.45D-01 WtEn= 5.47D-02
 Coeff-Com: -0.811D-01 0.155D+00 0.372D+00 0.554D+00
 Coeff-En:   0.000D+00 0.000D+00 0.145D+00 0.855D+00
 Coeff:     -0.767D-01 0.147D+00 0.359D+00 0.571D+00
 Gap=     0.334 Goal=   None    Shift=    0.000
 RMSDP=6.72D-04 MaxDP=7.96D-03 DE=-4.65D-03 OVMax= 1.21D-02

 Cycle   5  Pass 1  IDiag  1:
 E= -191.793101717258     Delta-E=       -0.001011398164 Rises=F Damp=F
 DIIS: error= 8.47D-04 at cycle   5 NSaved=   5.
 NSaved= 5 IEnMin= 5 EnMin= -191.793101717258     IErMin= 5 ErrMin= 8.47D-04
 ErrMax= 8.47D-04  0.00D+00 EMaxC= 1.00D-01 BMatC= 1.86D-05 BMatP= 1.27D-03
 IDIUse=3 WtCom= 9.92D-01 WtEn= 8.47D-03
 Coeff-Com: -0.206D-01 0.332D-01 0.118D+00 0.227D+00 0.642D+00
 Coeff-En:   0.000D+00 0.000D+00 0.000D+00 0.000D+00 0.100D+01
 Coeff:     -0.204D-01 0.329D-01 0.117D+00 0.225D+00 0.645D+00
 Gap=     0.334 Goal=   None    Shift=    0.000
 RMSDP=3.78D-04 MaxDP=8.02D-03 DE=-1.01D-03 OVMax= 2.22D-03

 Cycle   6  Pass 1  IDiag  1:
 E= -191.793123043177     Delta-E=       -0.000021325919 Rises=F Damp=F
 DIIS: error= 3.33D-04 at cycle   6 NSaved=   6.
 NSaved= 6 IEnMin= 6 EnMin= -191.793123043177     IErMin= 6 ErrMin= 3.33D-04
 ErrMax= 3.33D-04  0.00D+00 EMaxC= 1.00D-01 BMatC= 1.66D-06 BMatP= 1.86D-05
 IDIUse=3 WtCom= 9.97D-01 WtEn= 3.33D-03
 Coeff-Com:  0.107D-01-0.216D-01-0.398D-01-0.535D-01 0.160D+00 0.944D+00
 Coeff-En:   0.000D+00 0.000D+00 0.000D+00 0.000D+00 0.000D+00 0.100D+01
 Coeff:      0.106D-01-0.215D-01-0.396D-01-0.533D-01 0.159D+00 0.945D+00
 Gap=     0.334 Goal=   None    Shift=    0.000
 RMSDP=2.92D-04 MaxDP=6.04D-03 DE=-2.13D-05 OVMax= 1.32D-03

 Cycle   7  Pass 1  IDiag  1:
 E= -191.793126286677     Delta-E=       -0.000003243500 Rises=F Damp=F
 DIIS: error= 4.50D-05 at cycle   7 NSaved=   7.
 NSaved= 7 IEnMin= 7 EnMin= -191.793126286677     IErMin= 7 ErrMin= 4.50D-05
 ErrMax= 4.50D-05  0.00D+00 EMaxC= 1.00D-01 BMatC= 1.15D-07 BMatP= 1.66D-06
 IDIUse=1 WtCom= 1.00D+00 WtEn= 0.00D+00
 Coeff-Com:  0.405D-02-0.737D-02-0.200D-01-0.313D-01-0.629D-02 0.238D+00
 Coeff-Com:  0.823D+00
 Coeff:      0.405D-02-0.737D-02-0.200D-01-0.313D-01-0.629D-02 0.238D+00
 Coeff:      0.823D+00
 Gap=     0.334 Goal=   None    Shift=    0.000
 RMSDP=5.42D-05 MaxDP=1.09D-03 DE=-3.24D-06 OVMax= 2.47D-04

 Cycle   8  Pass 1  IDiag  1:
 E= -191.793126513462     Delta-E=       -0.000000226785 Rises=F Damp=F
 DIIS: error= 1.18D-05 at cycle   8 NSaved=   8.
 NSaved= 8 IEnMin= 8 EnMin= -191.793126513462     IErMin= 8 ErrMin= 1.18D-05
 ErrMax= 1.18D-05  0.00D+00 EMaxC= 1.00D-01 BMatC= 1.05D-08 BMatP= 1.15D-07
 IDIUse=1 WtCom= 1.00D+00 WtEn= 0.00D+00
 Coeff-Com: -0.125D-02 0.252D-02 0.331D-02 0.455D-02-0.134D-01-0.896D-01
 Coeff-Com:  0.867D-01 0.101D+01
 Coeff:     -0.125D-02 0.252D-02 0.331D-02 0.455D-02-0.134D-01-0.896D-01
 Coeff:      0.867D-01 0.101D+01
 Gap=     0.334 Goal=   None    Shift=    0.000
 RMSDP=9.67D-06 MaxDP=1.59D-04 DE=-2.27D-07 OVMax= 1.13D-04

 Cycle   9  Pass 1  IDiag  1:
 E= -191.793126537178     Delta-E=       -0.000000023716 Rises=F Damp=F
 DIIS: error= 3.51D-06 at cycle   9 NSaved=   9.
 NSaved= 9 IEnMin= 9 EnMin= -191.793126537178     IErMin= 9 ErrMin= 3.51D-06
 ErrMax= 3.51D-06  0.00D+00 EMaxC= 1.00D-01 BMatC= 4.32D-10 BMatP= 1.05D-08
 IDIUse=1 WtCom= 1.00D+00 WtEn= 0.00D+00
 Coeff-Com: -0.251D-03 0.462D-03 0.106D-02 0.159D-02 0.223D-02-0.156D-01
 Coeff-Com: -0.569D-01-0.442D-01 0.111D+01
 Coeff:     -0.251D-03 0.462D-03 0.106D-02 0.159D-02 0.223D-02-0.156D-01
 Coeff:     -0.569D-01-0.442D-01 0.111D+01
 Gap=     0.334 Goal=   None    Shift=    0.000
 RMSDP=1.71D-06 MaxDP=1.36D-05 DE=-2.37D-08 OVMax= 3.56D-05

 Cycle  10  Pass 1  IDiag  1:
 E= -191.793126538631     Delta-E=       -0.000000001453 Rises=F Damp=F
 DIIS: error= 6.99D-07 at cycle  10 NSaved=  10.
 NSaved=10 IEnMin=10 EnMin= -191.793126538631     IErMin=10 ErrMin= 6.99D-07
 ErrMax= 6.99D-07  0.00D+00 EMaxC= 1.00D-01 BMatC= 2.26D-11 BMatP= 4.32D-10
 IDIUse=1 WtCom= 1.00D+00 WtEn= 0.00D+00
 Coeff-Com:  0.693D-04-0.132D-03-0.306D-03-0.393D-03 0.280D-03 0.437D-02
 Coeff-Com:  0.679D-02-0.214D-01-0.208D+00 0.122D+01
 Coeff:      0.693D-04-0.132D-03-0.306D-03-0.393D-03 0.280D-03 0.437D-02
 Coeff:      0.679D-02-0.214D-01-0.208D+00 0.122D+01
 Gap=     0.334 Goal=   None    Shift=    0.000
 RMSDP=4.34D-07 MaxDP=4.98D-06 DE=-1.45D-09 OVMax= 5.99D-06

 Cycle  11  Pass 1  IDiag  1:
 E= -191.793126538678     Delta-E=       -0.000000000047 Rises=F Damp=F
 DIIS: error= 2.09D-07 at cycle  11 NSaved=  11.
 NSaved=11 IEnMin=11 EnMin= -191.793126538678     IErMin=11 ErrMin= 2.09D-07
 ErrMax= 2.09D-07  0.00D+00 EMaxC= 1.00D-01 BMatC= 8.07D-13 BMatP= 2.26D-11
 IDIUse=1 WtCom= 1.00D+00 WtEn= 0.00D+00
 Coeff-Com: -0.651D-05 0.129D-04 0.219D-04 0.313D-04 0.313D-04-0.542D-03
 Coeff-Com:  0.903D-03 0.490D-02 0.788D-02-0.234D+00 0.122D+01
 Coeff:     -0.651D-05 0.129D-04 0.219D-04 0.313D-04 0.313D-04-0.542D-03
 Coeff:      0.903D-03 0.490D-02 0.788D-02-0.234D+00 0.122D+01
 Gap=     0.334 Goal=   None    Shift=    0.000
 RMSDP=9.36D-08 MaxDP=1.27D-06 DE=-4.70D-11 OVMax= 6.32D-07

 Cycle  12  Pass 1  IDiag  1:
 E= -191.793126538679     Delta-E=       -0.000000000001 Rises=F Damp=F
 DIIS: error= 1.26D-08 at cycle  12 NSaved=  12.
 NSaved=12 IEnMin=12 EnMin= -191.793126538679     IErMin=12 ErrMin= 1.26D-08
 ErrMax= 1.26D-08  0.00D+00 EMaxC= 1.00D-01 BMatC= 5.41D-15 BMatP= 8.07D-13
 IDIUse=1 WtCom= 1.00D+00 WtEn= 0.00D+00
 Coeff-Com: -0.932D-06 0.171D-05 0.512D-05 0.647D-05-0.649D-05-0.718D-04
 Coeff-Com: -0.294D-03-0.115D-03 0.434D-02 0.109D-03-0.157D+00 0.115D+01
 Coeff:     -0.932D-06 0.171D-05 0.512D-05 0.647D-05-0.649D-05-0.718D-04
 Coeff:     -0.294D-03-0.115D-03 0.434D-02 0.109D-03-0.157D+00 0.115D+01
 Gap=     0.334 Goal=   None    Shift=    0.000
 RMSDP=1.98D-08 MaxDP=3.89D-07 DE=-1.25D-12 OVMax= 1.05D-07

 Cycle  13  Pass 1  IDiag  1:
 E= -191.793126538680     Delta-E=       -0.000000000001 Rises=F Damp=F
 DIIS: error= 1.82D-09 at cycle  13 NSaved=  13.
 NSaved=13 IEnMin=13 EnMin= -191.793126538680     IErMin=13 ErrMin= 1.82D-09
 ErrMax= 1.82D-09  0.00D+00 EMaxC= 1.00D-01 BMatC= 2.04D-16 BMatP= 5.41D-15
 IDIUse=1 WtCom= 1.00D+00 WtEn= 0.00D+00
 Coeff-Com:  0.177D-06-0.333D-06-0.844D-06-0.774D-06 0.300D-06 0.129D-04
 Coeff-Com:  0.259D-04-0.701D-04-0.639D-03 0.391D-02-0.128D-03-0.203D+00
 Coeff-Com:  0.120D+01
 Coeff:      0.177D-06-0.333D-06-0.844D-06-0.774D-06 0.300D-06 0.129D-04
 Coeff:      0.259D-04-0.701D-04-0.639D-03 0.391D-02-0.128D-03-0.203D+00
 Coeff:      0.120D+01
 Gap=     0.334 Goal=   None    Shift=    0.000
 RMSDP=3.61D-09 MaxDP=7.03D-08 DE=-7.39D-13 OVMax= 1.39D-08

 SCF Done:  E(RwB97XD) =  -191.793126539     A.U. after   13 cycles
            NFock= 13  Conv=0.36D-08     -V/T= 2.0061
 KE= 1.906376956402D+02 PE=-6.546618465299D+02 EE= 1.686448906805D+02
 Leave Link  502 at Wed May 12 11:58:25 2021, MaxMem=  2147483648 cpu:         8.6
 (Enter /opt/cluster/programs/g09_d.01/g09/l601.exe)
 Copying SCF densities to generalized density rwf, IOpCl= 0 IROHF=0.

 **********************************************************************

            Population analysis using the SCF density.

 **********************************************************************

 Orbital symmetries:
       Occupied  (A) (A) (A) (A) (A) (A) (A) (A) (A) (A) (A) (A)
                 (A) (A) (A)
       Virtual   (A) (A) (A) (A) (A) (A) (A) (A) (A) (A) (A) (A)
                 (A) (A) (A) (A) (A) (A) (A) (A) (A) (A) (A) (A)
                 (A) (A) (A) (A) (A) (A) (A) (A) (A) (A) (A) (A)
                 (A) (A) (A) (A) (A) (A) (A) (A) (A)
 The electronic state is 1-A.
 Alpha  occ. eigenvalues --  -19.28657 -10.40488 -10.33401 -10.32977  -1.16471
 Alpha  occ. eigenvalues --   -0.90903  -0.77105  -0.65077  -0.61426  -0.54461
 Alpha  occ. eigenvalues --   -0.52236  -0.49289  -0.47675  -0.37573  -0.35270
 Alpha virt. eigenvalues --   -0.01871   0.07003   0.08168   0.09888   0.10379
 Alpha virt. eigenvalues --    0.11973   0.12567   0.13027   0.15087   0.15978
 Alpha virt. eigenvalues --    0.17590   0.18170   0.20212   0.22150   0.25758
 Alpha virt. eigenvalues --    0.28073   0.32090   0.32573   0.33005   0.33594
 Alpha virt. eigenvalues --    0.36206   0.39862   0.41510   0.46168   0.54168
 Alpha virt. eigenvalues --    0.71476   0.73105   0.77132   0.78938   0.80616
 Alpha virt. eigenvalues --    0.82462   0.88454   0.99819   1.02527   1.05691
 Alpha virt. eigenvalues --    1.10596   1.14323   1.22834   1.25044   1.29864
 Alpha virt. eigenvalues --    1.30801   1.40134   1.41452   1.45858   1.93989
          Condensed to atoms (all electrons):
               1          2          3          4          5          6
     1  C    5.156660   0.337350   0.091705   0.059842   0.044819   0.356242
     2  C    0.337350   6.064296  -0.174293  -0.235155  -0.188683  -0.024986
     3  C    0.091705  -0.174293   5.230278   0.338034   0.411582   0.013341
     4  O    0.059842  -0.235155   0.338034   8.344060  -0.069424   0.000883
     5  H    0.044819  -0.188683   0.411582  -0.069424   0.622291  -0.000051
     6  H    0.356242  -0.024986   0.013341   0.000883  -0.000051   0.473558
     7  H    0.388260  -0.047853   0.004414   0.000401   0.000101  -0.022501
     8  H   -0.000712   0.296644   0.012452   0.004827   0.000807  -0.002706
               7          8
     1  C    0.388260  -0.000712
     2  C   -0.047853   0.296644
     3  C    0.004414   0.012452
     4  O    0.000401   0.004827
     5  H    0.000101   0.000807
     6  H   -0.022501  -0.002706
     7  H    0.438520   0.002436
     8  H    0.002436   0.474785
 Mulliken charges:
               1
     1  C   -0.434166
     2  C   -0.027321
     3  C    0.072486
     4  O   -0.443468
     5  H    0.178558
     6  H    0.206221
     7  H    0.236222
     8  H    0.211468
 Sum of Mulliken charges =   0.00000
 Mulliken charges with hydrogens summed into heavy atoms:
               1
     1  C    0.008276
     2  C    0.184147
     3  C    0.251045
     4  O   -0.443468
 Electronic spatial extent (au):  <R**2>=            273.5741
 Charge=              0.0000 electrons
 Dipole moment (field-independent basis, Debye):
    X=             -2.5974    Y=              1.9947    Z=              0.0001  Tot=              3.2749
 Quadrupole moment (field-independent basis, Debye-Ang):
   XX=            -24.8279   YY=            -22.4421   ZZ=            -25.3759
   XY=              3.7956   XZ=             -0.0002   YZ=              0.0001
 Traceless Quadrupole moment (field-independent basis, Debye-Ang):
   XX=             -0.6126   YY=              1.7732   ZZ=             -1.1606
   XY=              3.7956   XZ=             -0.0002   YZ=              0.0001
 Octapole moment (field-independent basis, Debye-Ang**2):
  XXX=             -9.6966  YYY=              0.2610  ZZZ=              0.0002  XYY=             -1.0848
  XXY=              3.4616  XXZ=              0.0006  XZZ=              3.6758  YZZ=             -0.9252
  YYZ=              0.0002  XYZ=              0.0000
 Hexadecapole moment (field-independent basis, Debye-Ang**3):
 XXXX=           -234.4019 YYYY=            -84.2338 ZZZZ=            -27.2966 XXXY=              7.6839
 XXXZ=             -0.0018 YYYX=              0.1752 YYYZ=              0.0005 ZZZX=             -0.0002
 ZZZY=              0.0000 XXYY=            -54.0954 XXZZ=            -47.3105 YYZZ=            -20.4900
 XXYZ=              0.0002 YYXZ=              0.0001 ZZXY=             -0.5201
 N-N= 1.035861336706D+02 E-N=-6.546618465447D+02  KE= 1.906376956402D+02
 No NMR shielding tensors so no spin-rotation constants.
 Leave Link  601 at Wed May 12 11:58:25 2021, MaxMem=  2147483648 cpu:         0.5
 (Enter /opt/cluster/programs/g09_d.01/g09/l701.exe)
 Compute integral first derivatives.
 ... and contract with generalized density number  0.
 R6Disp: Adding Grimme-D2 dispersion energy 1st derivatives to the gradient.
 Leave Link  701 at Wed May 12 11:58:25 2021, MaxMem=  2147483648 cpu:         0.6
 (Enter /opt/cluster/programs/g09_d.01/g09/l702.exe)
 L702 exits ... SP integral derivatives will be done elsewhere.
 Leave Link  702 at Wed May 12 11:58:25 2021, MaxMem=  2147483648 cpu:         0.2
 (Enter /opt/cluster/programs/g09_d.01/g09/l703.exe)
 Compute integral first derivatives, UseDBF=F ICtDFT=           0.
 Integral derivatives from FoFJK, PRISM(SPDF).
 Calling FoFJK, ICntrl=      2127 FMM=F ISym2X=0 I1Cent= 0 IOpClX= 0 NMat=1 NMatS=1 NMatT=0.
 FoFJK:  IHMeth= 1 ICntrl=    2127 DoSepK=T KAlg= 0 I1Cent=   0 FoldK=F
 IRaf=         1 NMat=   1 IRICut=       1 DoRegI=T DoRafI=F ISym2E= 0.
 FoFCou: FMM=F IPFlag=           0 FMFlag=      100000 FMFlg1=         800
         NFxFlg=           0 DoJE=F BraDBF=F KetDBF=F FulRan=T
         wScrn=  0.000000 ICntrl=    2527 IOpCl=  0 I1Cent=           0 NGrid=           0
         NMat0=    1 NMatS0=      1 NMatT0=    0 NMatD0=    1 NMtDS0=    0 NMtDT0=    0
 Symmetry not used in FoFCou.
 Leave Link  703 at Wed May 12 11:58:26 2021, MaxMem=  2147483648 cpu:         2.5
 (Enter /opt/cluster/programs/g09_d.01/g09/l716.exe)
 Dipole        =-1.02187688D+00 7.84756855D-01 3.49688940D-05
 ***** Axes restored to original set *****
 -------------------------------------------------------------------
 Center     Atomic                   Forces (Hartrees/Bohr)
 Number     Number              X              Y              Z
 -------------------------------------------------------------------
      1        6          -0.003803612   -0.003662087   -0.000000626
      2        6           0.003209345    0.003712137    0.000002730
      3        6          -0.004736058    0.006637169    0.000007516
      4        8           0.005722590   -0.008271263   -0.000003778
      5        1           0.000521603    0.001597845   -0.000003717
      6        1          -0.000588756   -0.000438746   -0.000001920
      7        1          -0.000329689   -0.000316296    0.000000840
      8        1           0.000004578    0.000741241   -0.000001045
 -------------------------------------------------------------------
 Cartesian Forces:  Max     0.008271263 RMS     0.003053174
 Leave Link  716 at Wed May 12 11:58:26 2021, MaxMem=  2147483648 cpu:         0.2
 (Enter /opt/cluster/programs/g09_d.01/g09/l103.exe)

 GradGradGradGradGradGradGradGradGradGradGradGradGradGradGradGradGradGrad
 Berny optimization.
 FormGI is forming the generalized inverse of G from B-inverse, IUseBI=4.
 Internal  Forces:  Max     0.010018276 RMS     0.002555206
 Search for a local minimum.
 Step number   1 out of a maximum of   34
 All quantities printed in internal units (Hartrees-Bohrs-Radians)
 RMS Force = .26102D-02 SwitMx=.10000D-02 MixMth= 1
 Mixed Optimization -- RFO/linear search
 Second derivative matrix not updated -- first step.
 ITU=  0
     Eigenvalues ---    0.01074   0.01807   0.02807   0.02807   0.16000
     Eigenvalues ---    0.16000   0.16000   0.16000   0.22000   0.22000
     Eigenvalues ---    0.33394   0.34952   0.35060   0.35186   0.35354
     Eigenvalues ---    0.55940   0.850161000.000001000.000001000.00000
     Eigenvalues --- 1000.000001000.000001000.000001000.00000
 RFO step:  Lambda=-2.54065950D-04 EMin= 1.07441115D-02
 Linear search not attempted -- first point.
 Iteration  1 RMS(Cart)=  0.01128299 RMS(Int)=  0.00003499
 Iteration  2 RMS(Cart)=  0.00004250 RMS(Int)=  0.00000004
 Iteration  3 RMS(Cart)=  0.00000000 RMS(Int)=  0.00000004
 Iteration  1 RMS(Cart)=  0.00000001 RMS(Int)=  0.00000001
 ITry= 1 IFail=0 DXMaxC= 3.53D-02 DCOld= 1.00D+10 DXMaxT= 3.00D-01 DXLimC= 3.00D+00 Rises=F
 Variable       Old X    -DE/DX   Delta X   Delta X   Delta X     New X
                                 (Linear)    (Quad)   (Total)
    R1        2.54306  -0.00638   0.00000  -0.01141  -0.01141   2.53165
    R2        2.05103  -0.00054   0.00000  -0.00153  -0.00153   2.04951
    R3        2.05375  -0.00018   0.00000  -0.00050  -0.00050   2.05325
    R4        2.79052  -0.00150   0.00000  -0.00429  -0.00429   2.78623
    R5        2.05577  -0.00069   0.00000  -0.00196  -0.00196   2.05381
    R6        2.35319  -0.01002   0.00000  -0.01178  -0.01178   2.34141
    R7        2.08364  -0.00165   0.00000  -0.00492  -0.00492   2.07872
    A1        2.12652  -0.00040   0.00000  -0.00251  -0.00251   2.12401
    A2        2.10550  -0.00023   0.00000  -0.00142  -0.00142   2.10408
    A3        2.05116   0.00063   0.00000   0.00393   0.00393   2.05509
    A4        2.14096  -0.00184   0.00000  -0.00837  -0.00837   2.13259
    A5        2.11430   0.00065   0.00000   0.00247   0.00247   2.11677
    A6        2.02792   0.00120   0.00000   0.00590   0.00590   2.03383
    A7        2.17638  -0.00156   0.00000  -0.00709  -0.00709   2.16929
    A8        2.02229   0.00117   0.00000   0.00597   0.00597   2.02826
    A9        2.08452   0.00039   0.00000   0.00112   0.00112   2.08564
    D1        3.14149   0.00000   0.00000   0.00014   0.00014  -3.14155
    D2       -0.00001   0.00000   0.00000  -0.00003  -0.00003  -0.00004
    D3       -0.00009   0.00000   0.00000   0.00011   0.00011   0.00003
    D4       -3.14158   0.00000   0.00000  -0.00006  -0.00006   3.14154
    D5        0.00002   0.00000   0.00000   0.00000   0.00000   0.00002
    D6       -3.14148   0.00000   0.00000  -0.00039  -0.00039   3.14132
    D7        3.14152   0.00000   0.00000   0.00016   0.00016  -3.14150
    D8        0.00003   0.00000   0.00000  -0.00022  -0.00022  -0.00020
         Item               Value     Threshold  Converged?
 Maximum Force            0.010018     0.000450     NO 
 RMS     Force            0.002610     0.000300     NO 
 Maximum Displacement     0.035252     0.001800     NO 
 RMS     Displacement     0.011276     0.001200     NO 
 Predicted change in Energy=-1.271016D-04
 Lowest energy point so far.  Saving SCF results.
 GradGradGradGradGradGradGradGradGradGradGradGradGradGradGradGradGradGrad

 Leave Link  103 at Wed May 12 11:58:26 2021, MaxMem=  2147483648 cpu:         0.0
 (Enter /opt/cluster/programs/g09_d.01/g09/l202.exe)
                          Input orientation:                          
 ---------------------------------------------------------------------
 Center     Atomic      Atomic             Coordinates (Angstroms)
 Number     Number       Type             X           Y           Z
 ---------------------------------------------------------------------
      1          6           0        1.476581    0.468411    0.000008
      2          6           0        0.669335   -0.600762    0.000091
      3          6           0       -0.799765   -0.475718    0.000095
      4          8           0       -1.408491    0.603457    0.000007
      5          1           0       -1.367563   -1.417860   -0.000099
      6          1           0        2.556397    0.367162   -0.000032
      7          1           0        1.062686    1.473022   -0.000034
      8          1           0        1.070563   -1.610820    0.000087
 ---------------------------------------------------------------------
                    Distance matrix (angstroms):
                    1          2          3          4          5
     1  C    0.000000
     2  C    1.339694   0.000000
     3  C    2.464373   1.474412   0.000000
     4  O    2.888231   2.401563   1.239018   0.000000
     5  H    3.412795   2.194675   1.100011   2.021731   0.000000
     6  H    1.084552   2.120821   3.460386   3.971923   4.310888
     7  H    1.086532   2.110760   2.695610   2.619706   3.776679
     8  H    2.118503   1.086831   2.187827   3.323964   2.445750
                    6          7          8
     6  H    0.000000
     7  H    1.858520   0.000000
     8  H    2.473887   3.083852   0.000000
 Stoichiometry    C3H4O
 Framework group  C1[X(C3H4O)]
 Deg. of freedom    18
 Full point group                 C1      NOp   1
 RotChk:  IX=2 Diff= 2.75D-03
 Largest Abelian subgroup         C1      NOp   1
 Largest concise Abelian subgroup C1      NOp   1
                         Standard orientation:                         
 ---------------------------------------------------------------------
 Center     Atomic      Atomic             Coordinates (Angstroms)
 Number     Number       Type             X           Y           Z
 ---------------------------------------------------------------------
      1          6           0       -1.471299   -0.471579   -0.000030
      2          6           0       -0.666131    0.599161    0.000053
      3          6           0        0.803209    0.476971    0.000057
      4          8           0        1.414030   -0.601020   -0.000031
      5          1           0        1.369175    1.420214   -0.000136
      6          1           0       -2.551310   -0.372427   -0.000070
      7          1           0       -1.055454   -1.475383   -0.000071
      8          1           0       -1.069321    1.608438    0.000049
 ---------------------------------------------------------------------
 Rotational constants (GHZ):     22.6462998      6.1876559      4.8598088
 Leave Link  202 at Wed May 12 11:58:26 2021, MaxMem=  2147483648 cpu:         0.0
 (Enter /opt/cluster/programs/g09_d.01/g09/l301.exe)
 Standard basis: 6-31+G (6D, 7F)
 Ernie: Thresh=  0.10000D-02 Tol=  0.10000D-05 Strict=F.
 There are    60 symmetry adapted cartesian basis functions of A   symmetry.
 There are    60 symmetry adapted basis functions of A   symmetry.
    60 basis functions,   120 primitive gaussians,    60 cartesian basis functions
    15 alpha electrons       15 beta electrons
       nuclear repulsion energy       104.0227120760 Hartrees.
 IExCor= 4639 DFT=T Ex+Corr=wB97XD ExCW=0 ScaHFX=  1.000000
 ScaDFX=  1.000000  1.000000  1.000000  1.000000 ScalE2=  1.000000  1.000000
 IRadAn=      0 IRanWt=     -1 IRanGd=            0 ICorTp=0 IEmpDi=121
  HFx wShort=  0.000000 wLong=  0.200000 cFull=  0.222036 cShort=  0.000000 cLong=  0.777964
  DFx wShort=  0.000000 wLong=  0.200000 cFull=  0.000000 cShort=  0.000000 cLong=  1.000000
 NAtoms=    8 NActive=    8 NUniq=    8 SFac= 1.00D+00 NAtFMM=   60 NAOKFM=F Big=F
 Integral buffers will be    131072 words long.
 Raffenetti 2 integral format.
 Two-electron integral symmetry is turned on.
 R6Disp:  Grimme-D2 Dispersion energy=       -0.0017608014 Hartrees.
 Nuclear repulsion after empirical dispersion term =      104.0209512746 Hartrees.
 Leave Link  301 at Wed May 12 11:58:26 2021, MaxMem=  2147483648 cpu:         0.3
 (Enter /opt/cluster/programs/g09_d.01/g09/l302.exe)
 NPDir=0 NMtPBC=     1 NCelOv=     1 NCel=       1 NClECP=     1 NCelD=      1
         NCelK=      1 NCelE2=     1 NClLst=     1 CellRange=     0.0.
 One-electron integrals computed using PRISM.
 NBasis=    60 RedAO= T EigKep=  1.25D-04  NBF=    60
 NBsUse=    60 1.00D-06 EigRej= -1.00D+00 NBFU=    60
 Precomputing XC quadrature grid using
 IXCGrd= 4 IRadAn=           0 IRanWt=          -1 IRanGd=           0 AccXCQ= 0.00D+00.
 Generated NRdTot=       0 NPtTot=           0 NUsed=           0 NTot=          32
 NSgBfM=    60    60    60    60    60 MxSgAt=     8 MxSgA2=     8.
 Leave Link  302 at Wed May 12 11:58:26 2021, MaxMem=  2147483648 cpu:         0.8
 (Enter /opt/cluster/programs/g09_d.01/g09/l303.exe)
 DipDrv:  MaxL=1.
 Leave Link  303 at Wed May 12 11:58:26 2021, MaxMem=  2147483648 cpu:         0.2
 (Enter /opt/cluster/programs/g09_d.01/g09/l401.exe)
 Initial guess from the checkpoint file:  "/home/unibas/boittier/RDKit_G2/L.pdb/SCAN_1_2_3_4_S_17_20.0/9_SCAN_1_2_3_4_F/L.pdb.chk"
 B after Tr=     0.000000    0.000000    0.000000
         Rot=    1.000000   -0.000020    0.000000   -0.000200 Ang=  -0.02 deg.
 Guess basis will be translated and rotated to current coordinates.
 JPrj=2 DoOrth=T DoCkMO=T.
 Generating alternative initial guess.
 ExpMin= 4.38D-02 ExpMax= 5.48D+03 ExpMxC= 8.25D+02 IAcc=2 IRadAn=         4 AccDes= 0.00D+00
 Harris functional with IExCor= 4639 and IRadAn=       4 diagonalized for initial guess.
 HarFok:  IExCor= 4639 AccDes= 0.00D+00 IRadAn=         4 IDoV= 1 UseB2=F ITyADJ=14
 ICtDFT=  3500011 ScaDFX=  1.000000  1.000000  1.000000  1.000000
 FoFCou: FMM=F IPFlag=           0 FMFlag=      100000 FMFlg1=           0
         NFxFlg=           0 DoJE=T BraDBF=F KetDBF=T FulRan=T
         wScrn=  0.000000 ICntrl=     500 IOpCl=  0 I1Cent=   200000004 NGrid=           0
         NMat0=    1 NMatS0=      1 NMatT0=    0 NMatD0=    1 NMtDS0=    0 NMtDT0=    0
 Petite list used in FoFCou.
 Harris En= -183.744886686655    
 Leave Link  401 at Wed May 12 11:58:26 2021, MaxMem=  2147483648 cpu:         1.4
 (Enter /opt/cluster/programs/g09_d.01/g09/l502.exe)
 Closed shell SCF:
 Using DIIS extrapolation, IDIIS=  1040.
 Integral symmetry usage will be decided dynamically.
 Keep R1 ints in memory in canonical form, NReq=4262490.
 IVT=       30290 IEndB=       30290 NGot=  2147483648 MDV=  2144102629
 LenX=  2144102629 LenY=  2144098588
 Requested convergence on RMS density matrix=1.00D-08 within 128 cycles.
 Requested convergence on MAX density matrix=1.00D-06.
 Requested convergence on             energy=1.00D-06.
 No special actions if energy rises.
 FoFCou: FMM=F IPFlag=           0 FMFlag=           0 FMFlg1=           0
         NFxFlg=           0 DoJE=F BraDBF=F KetDBF=F FulRan=T
         wScrn=  0.000000 ICntrl=     600 IOpCl=  0 I1Cent=           0 NGrid=           0
         NMat0=    1 NMatS0=   1830 NMatT0=    0 NMatD0=    1 NMtDS0=    0 NMtDT0=    0
 Symmetry not used in FoFCou.

 Cycle   1  Pass 1  IDiag  1:
 E= -191.793159249545    
 DIIS: error= 1.09D-03 at cycle   1 NSaved=   1.
 NSaved= 1 IEnMin= 1 EnMin= -191.793159249545     IErMin= 1 ErrMin= 1.09D-03
 ErrMax= 1.09D-03  0.00D+00 EMaxC= 1.00D-01 BMatC= 6.03D-05 BMatP= 6.03D-05
 IDIUse=3 WtCom= 9.89D-01 WtEn= 1.09D-02
 Coeff-Com:  0.100D+01
 Coeff-En:   0.100D+01
 Coeff:      0.100D+01
 Gap=     0.616 Goal=   None    Shift=    0.000
 GapD=    0.616 DampG=2.000 DampE=1.000 DampFc=2.0000 IDamp=-1.
 RMSDP=3.21D-04 MaxDP=4.52D-03              OVMax= 2.59D-03

 Cycle   2  Pass 1  IDiag  1:
 E= -191.793245222042     Delta-E=       -0.000085972497 Rises=F Damp=F
 DIIS: error= 2.00D-04 at cycle   2 NSaved=   2.
 NSaved= 2 IEnMin= 2 EnMin= -191.793245222042     IErMin= 2 ErrMin= 2.00D-04
 ErrMax= 2.00D-04  0.00D+00 EMaxC= 1.00D-01 BMatC= 3.74D-06 BMatP= 6.03D-05
 IDIUse=3 WtCom= 9.98D-01 WtEn= 2.00D-03
 Coeff-Com:  0.981D-04 0.100D+01
 Coeff-En:   0.000D+00 0.100D+01
 Coeff:      0.979D-04 0.100D+01
 Gap=     0.335 Goal=   None    Shift=    0.000
 RMSDP=9.32D-05 MaxDP=1.39D-03 DE=-8.60D-05 OVMax= 7.94D-04

 Cycle   3  Pass 1  IDiag  1:
 E= -191.793249858548     Delta-E=       -0.000004636506 Rises=F Damp=F
 DIIS: error= 1.12D-04 at cycle   3 NSaved=   3.
 NSaved= 3 IEnMin= 3 EnMin= -191.793249858548     IErMin= 3 ErrMin= 1.12D-04
 ErrMax= 1.12D-04  0.00D+00 EMaxC= 1.00D-01 BMatC= 1.06D-06 BMatP= 3.74D-06
 IDIUse=3 WtCom= 9.99D-01 WtEn= 1.12D-03
 Coeff-Com: -0.653D-01 0.327D+00 0.738D+00
 Coeff-En:   0.000D+00 0.000D+00 0.100D+01
 Coeff:     -0.652D-01 0.327D+00 0.738D+00
 Gap=     0.335 Goal=   None    Shift=    0.000
 RMSDP=2.61D-05 MaxDP=2.66D-04 DE=-4.64D-06 OVMax= 4.05D-04

 Cycle   4  Pass 1  IDiag  1:
 E= -191.793251015296     Delta-E=       -0.000001156748 Rises=F Damp=F
 DIIS: error= 5.23D-05 at cycle   4 NSaved=   4.
 NSaved= 4 IEnMin= 4 EnMin= -191.793251015296     IErMin= 4 ErrMin= 5.23D-05
 ErrMax= 5.23D-05  0.00D+00 EMaxC= 1.00D-01 BMatC= 9.53D-08 BMatP= 1.06D-06
 IDIUse=1 WtCom= 1.00D+00 WtEn= 0.00D+00
 Coeff-Com: -0.273D-01 0.103D+00 0.308D+00 0.617D+00
 Coeff:     -0.273D-01 0.103D+00 0.308D+00 0.617D+00
 Gap=     0.335 Goal=   None    Shift=    0.000
 RMSDP=7.39D-06 MaxDP=6.87D-05 DE=-1.16D-06 OVMax= 1.23D-04

 Cycle   5  Pass 1  IDiag  1:
 E= -191.793251098711     Delta-E=       -0.000000083414 Rises=F Damp=F
 DIIS: error= 2.36D-05 at cycle   5 NSaved=   5.
 NSaved= 5 IEnMin= 5 EnMin= -191.793251098711     IErMin= 5 ErrMin= 2.36D-05
 ErrMax= 2.36D-05  0.00D+00 EMaxC= 1.00D-01 BMatC= 1.67D-08 BMatP= 9.53D-08
 IDIUse=1 WtCom= 1.00D+00 WtEn= 0.00D+00
 Coeff-Com:  0.195D-02-0.260D-01-0.184D-01 0.283D+00 0.759D+00
 Coeff:      0.195D-02-0.260D-01-0.184D-01 0.283D+00 0.759D+00
 Gap=     0.335 Goal=   None    Shift=    0.000
 RMSDP=4.86D-06 MaxDP=6.24D-05 DE=-8.34D-08 OVMax= 4.73D-05

 Cycle   6  Pass 1  IDiag  1:
 E= -191.793251112924     Delta-E=       -0.000000014213 Rises=F Damp=F
 DIIS: error= 8.88D-06 at cycle   6 NSaved=   6.
 NSaved= 6 IEnMin= 6 EnMin= -191.793251112924     IErMin= 6 ErrMin= 8.88D-06
 ErrMax= 8.88D-06  0.00D+00 EMaxC= 1.00D-01 BMatC= 3.01D-09 BMatP= 1.67D-08
 IDIUse=1 WtCom= 1.00D+00 WtEn= 0.00D+00
 Coeff-Com:  0.299D-02-0.214D-01-0.334D-01 0.115D+00 0.436D+00 0.501D+00
 Coeff:      0.299D-02-0.214D-01-0.334D-01 0.115D+00 0.436D+00 0.501D+00
 Gap=     0.335 Goal=   None    Shift=    0.000
 RMSDP=1.21D-06 MaxDP=1.48D-05 DE=-1.42D-08 OVMax= 1.64D-05

 Cycle   7  Pass 1  IDiag  1:
 E= -191.793251115559     Delta-E=       -0.000000002636 Rises=F Damp=F
 DIIS: error= 8.19D-07 at cycle   7 NSaved=   7.
 NSaved= 7 IEnMin= 7 EnMin= -191.793251115559     IErMin= 7 ErrMin= 8.19D-07
 ErrMax= 8.19D-07  0.00D+00 EMaxC= 1.00D-01 BMatC= 3.23D-11 BMatP= 3.01D-09
 IDIUse=1 WtCom= 1.00D+00 WtEn= 0.00D+00
 Coeff-Com:  0.691D-04 0.127D-02-0.163D-02-0.259D-01-0.561D-01-0.287D-02
 Coeff-Com:  0.109D+01
 Coeff:      0.691D-04 0.127D-02-0.163D-02-0.259D-01-0.561D-01-0.287D-02
 Coeff:      0.109D+01
 Gap=     0.335 Goal=   None    Shift=    0.000
 RMSDP=6.39D-07 MaxDP=7.57D-06 DE=-2.64D-09 OVMax= 7.94D-06

 Cycle   8  Pass 1  IDiag  1:
 E= -191.793251115692     Delta-E=       -0.000000000132 Rises=F Damp=F
 DIIS: error= 2.96D-07 at cycle   8 NSaved=   8.
 NSaved= 8 IEnMin= 8 EnMin= -191.793251115692     IErMin= 8 ErrMin= 2.96D-07
 ErrMax= 2.96D-07  0.00D+00 EMaxC= 1.00D-01 BMatC= 6.12D-12 BMatP= 3.23D-11
 IDIUse=1 WtCom= 1.00D+00 WtEn= 0.00D+00
 Coeff-Com: -0.165D-03 0.165D-02 0.147D-02-0.131D-01-0.434D-01-0.349D-01
 Coeff-Com:  0.293D+00 0.795D+00
 Coeff:     -0.165D-03 0.165D-02 0.147D-02-0.131D-01-0.434D-01-0.349D-01
 Coeff:      0.293D+00 0.795D+00
 Gap=     0.335 Goal=   None    Shift=    0.000
 RMSDP=1.64D-07 MaxDP=2.03D-06 DE=-1.32D-10 OVMax= 2.35D-06

 Cycle   9  Pass 1  IDiag  1:
 E= -191.793251115705     Delta-E=       -0.000000000014 Rises=F Damp=F
 DIIS: error= 1.75D-07 at cycle   9 NSaved=   9.
 NSaved= 9 IEnMin= 9 EnMin= -191.793251115705     IErMin= 9 ErrMin= 1.75D-07
 ErrMax= 1.75D-07  0.00D+00 EMaxC= 1.00D-01 BMatC= 5.66D-13 BMatP= 6.12D-12
 IDIUse=1 WtCom= 1.00D+00 WtEn= 0.00D+00
 Coeff-Com: -0.142D-04-0.865D-04 0.265D-03 0.342D-02 0.458D-02-0.242D-02
 Coeff-Com: -0.131D+00 0.742D-01 0.105D+01
 Coeff:     -0.142D-04-0.865D-04 0.265D-03 0.342D-02 0.458D-02-0.242D-02
 Coeff:     -0.131D+00 0.742D-01 0.105D+01
 Gap=     0.335 Goal=   None    Shift=    0.000
 RMSDP=8.11D-08 MaxDP=9.03D-07 DE=-1.38D-11 OVMax= 1.61D-06

 Cycle  10  Pass 1  IDiag  1:
 E= -191.793251115707     Delta-E=       -0.000000000002 Rises=F Damp=F
 DIIS: error= 8.86D-08 at cycle  10 NSaved=  10.
 NSaved=10 IEnMin=10 EnMin= -191.793251115707     IErMin=10 ErrMin= 8.86D-08
 ErrMax= 8.86D-08  0.00D+00 EMaxC= 1.00D-01 BMatC= 6.13D-14 BMatP= 5.66D-13
 IDIUse=1 WtCom= 1.00D+00 WtEn= 0.00D+00
 Coeff-Com:  0.151D-04-0.101D-03-0.172D-03 0.208D-03 0.242D-02 0.177D-02
 Coeff-Com:  0.736D-02-0.896D-01-0.223D+00 0.130D+01
 Coeff:      0.151D-04-0.101D-03-0.172D-03 0.208D-03 0.242D-02 0.177D-02
 Coeff:      0.736D-02-0.896D-01-0.223D+00 0.130D+01
 Gap=     0.335 Goal=   None    Shift=    0.000
 RMSDP=3.23D-08 MaxDP=3.50D-07 DE=-1.93D-12 OVMax= 9.22D-07

 Cycle  11  Pass 1  IDiag  1:
 E= -191.793251115710     Delta-E=       -0.000000000003 Rises=F Damp=F
 DIIS: error= 3.58D-08 at cycle  11 NSaved=  11.
 NSaved=11 IEnMin=11 EnMin= -191.793251115710     IErMin=11 ErrMin= 3.58D-08
 ErrMax= 3.58D-08  0.00D+00 EMaxC= 1.00D-01 BMatC= 8.49D-15 BMatP= 6.13D-14
 IDIUse=1 WtCom= 1.00D+00 WtEn= 0.00D+00
 Coeff-Com: -0.503D-05 0.587D-04 0.430D-04-0.598D-03-0.184D-02-0.430D-03
 Coeff-Com:  0.170D-01 0.325D-01-0.702D-01-0.569D+00 0.159D+01
 Coeff:     -0.503D-05 0.587D-04 0.430D-04-0.598D-03-0.184D-02-0.430D-03
 Coeff:      0.170D-01 0.325D-01-0.702D-01-0.569D+00 0.159D+01
 Gap=     0.335 Goal=   None    Shift=    0.000
 RMSDP=1.35D-08 MaxDP=1.26D-07 DE=-2.90D-12 OVMax= 5.26D-07

 Cycle  12  Pass 1  IDiag  1:
 E= -191.793251115710     Delta-E=        0.000000000000 Rises=F Damp=F
 DIIS: error= 5.56D-09 at cycle  12 NSaved=  12.
 NSaved=12 IEnMin=11 EnMin= -191.793251115710     IErMin=12 ErrMin= 5.56D-09
 ErrMax= 5.56D-09  0.00D+00 EMaxC= 1.00D-01 BMatC= 4.23D-16 BMatP= 8.49D-15
 IDIUse=1 WtCom= 1.00D+00 WtEn= 0.00D+00
 Coeff-Com:  0.487D-06-0.108D-04 0.662D-06 0.145D-03 0.416D-03 0.149D-03
 Coeff-Com: -0.609D-02-0.286D-02 0.339D-01 0.103D+00-0.535D+00 0.141D+01
 Coeff:      0.487D-06-0.108D-04 0.662D-06 0.145D-03 0.416D-03 0.149D-03
 Coeff:     -0.609D-02-0.286D-02 0.339D-01 0.103D+00-0.535D+00 0.141D+01
 Gap=     0.335 Goal=   None    Shift=    0.000
 RMSDP=3.64D-09 MaxDP=3.42D-08 DE= 1.71D-13 OVMax= 9.30D-08

 SCF Done:  E(RwB97XD) =  -191.793251116     A.U. after   12 cycles
            NFock= 12  Conv=0.36D-08     -V/T= 2.0058
 KE= 1.906914469197D+02 PE=-6.555747345598D+02 EE= 1.690690852499D+02
 Leave Link  502 at Wed May 12 11:58:27 2021, MaxMem=  2147483648 cpu:         8.1
 (Enter /opt/cluster/programs/g09_d.01/g09/l701.exe)
 Compute integral first derivatives.
 ... and contract with generalized density number  0.
 R6Disp: Adding Grimme-D2 dispersion energy 1st derivatives to the gradient.
 Leave Link  701 at Wed May 12 11:58:27 2021, MaxMem=  2147483648 cpu:         0.6
 (Enter /opt/cluster/programs/g09_d.01/g09/l702.exe)
 L702 exits ... SP integral derivatives will be done elsewhere.
 Leave Link  702 at Wed May 12 11:58:27 2021, MaxMem=  2147483648 cpu:         0.2
 (Enter /opt/cluster/programs/g09_d.01/g09/l703.exe)
 Compute integral first derivatives, UseDBF=F ICtDFT=           0.
 Integral derivatives from FoFJK, PRISM(SPDF).
 Calling FoFJK, ICntrl=      2127 FMM=F ISym2X=0 I1Cent= 0 IOpClX= 0 NMat=1 NMatS=1 NMatT=0.
 FoFJK:  IHMeth= 1 ICntrl=    2127 DoSepK=T KAlg= 0 I1Cent=   0 FoldK=F
 IRaf=         1 NMat=   1 IRICut=       1 DoRegI=T DoRafI=F ISym2E= 0.
 FoFCou: FMM=F IPFlag=           0 FMFlag=      100000 FMFlg1=         800
         NFxFlg=           0 DoJE=F BraDBF=F KetDBF=F FulRan=T
         wScrn=  0.000000 ICntrl=    2527 IOpCl=  0 I1Cent=           0 NGrid=           0
         NMat0=    1 NMatS0=      1 NMatT0=    0 NMatD0=    1 NMtDS0=    0 NMtDT0=    0
 Symmetry not used in FoFCou.
 Leave Link  703 at Wed May 12 11:58:27 2021, MaxMem=  2147483648 cpu:         2.5
 (Enter /opt/cluster/programs/g09_d.01/g09/l716.exe)
 Dipole        =-1.00059866D+00 7.83258186D-01-1.71254776D-05
 ***** Axes restored to original set *****
 -------------------------------------------------------------------
 Center     Atomic                   Forces (Hartrees/Bohr)
 Number     Number              X              Y              Z
 -------------------------------------------------------------------
      1        6           0.000610395    0.000829812    0.000000914
      2        6           0.000612278   -0.001224566    0.000005248
      3        6          -0.001536834    0.001147659   -0.000031355
      4        8           0.000330801   -0.000684823    0.000011098
      5        1          -0.000062531   -0.000180188    0.000011661
      6        1           0.000058583    0.000082994   -0.000000725
      7        1          -0.000061388   -0.000017215    0.000000966
      8        1           0.000048696    0.000046328    0.000002193
 -------------------------------------------------------------------
 Cartesian Forces:  Max     0.001536834 RMS     0.000549605
 Leave Link  716 at Wed May 12 11:58:28 2021, MaxMem=  2147483648 cpu:         0.2
 (Enter /opt/cluster/programs/g09_d.01/g09/l103.exe)

 GradGradGradGradGradGradGradGradGradGradGradGradGradGradGradGradGradGrad
 Berny optimization.
 Using GEDIIS/GDIIS optimizer.
 FormGI is forming the generalized inverse of G from B-inverse, IUseBI=4.
 Internal  Forces:  Max     0.001296390 RMS     0.000385955
 Search for a local minimum.
 Step number   2 out of a maximum of   34
 All quantities printed in internal units (Hartrees-Bohrs-Radians)
 RMS Force = .39425D-03 SwitMx=.10000D-02 MixMth= 2
 Mixed Optimization -- En-DIIS/RFO-DIIS
 Update second derivatives using D2CorX and points    1    2
 DE= -1.25D-04 DEPred=-1.27D-04 R= 9.80D-01
 TightC=F SS=  1.41D+00  RLast= 2.32D-02 DXNew= 5.0454D-01 6.9735D-02
 Trust test= 9.80D-01 RLast= 2.32D-02 DXMaxT set to 3.00D-01
 ITU=  1  0
 Use linear search instead of GDIIS.
     Eigenvalues ---    0.01074   0.01806   0.02807   0.02807   0.15906
     Eigenvalues ---    0.16000   0.16000   0.16071   0.21241   0.22109
     Eigenvalues ---    0.33328   0.34975   0.35182   0.35318   0.36485
     Eigenvalues ---    0.61748   0.789371000.000001000.000001000.00000
     Eigenvalues --- 1000.000001000.000001000.000001000.00000
 RFO step:  Lambda=-7.69916440D-06 EMin= 1.07446326D-02
 Quartic linear search produced a step of -0.02849.
 Iteration  1 RMS(Cart)=  0.00135371 RMS(Int)=  0.00000083
 Iteration  2 RMS(Cart)=  0.00000115 RMS(Int)=  0.00000006
 Iteration  3 RMS(Cart)=  0.00000000 RMS(Int)=  0.00000006
 Iteration  1 RMS(Cart)=  0.00000000 RMS(Int)=  0.00000000
 ITry= 1 IFail=0 DXMaxC= 3.20D-03 DCOld= 1.00D+10 DXMaxT= 3.00D-01 DXLimC= 3.00D+00 Rises=F
 Variable       Old X    -DE/DX   Delta X   Delta X   Delta X     New X
                                 (Linear)    (Quad)   (Total)
    R1        2.53165   0.00107   0.00033   0.00118   0.00151   2.53316
    R2        2.04951   0.00006   0.00004   0.00006   0.00010   2.04961
    R3        2.05325   0.00000   0.00001  -0.00003  -0.00002   2.05323
    R4        2.78623   0.00130   0.00012   0.00335   0.00347   2.78970
    R5        2.05381  -0.00002   0.00006  -0.00019  -0.00013   2.05368
    R6        2.34141  -0.00075   0.00034  -0.00156  -0.00122   2.34018
    R7        2.07872   0.00018   0.00014   0.00023   0.00037   2.07909
    A1        2.12401   0.00014   0.00007   0.00069   0.00076   2.12477
    A2        2.10408  -0.00013   0.00004  -0.00085  -0.00081   2.10327
    A3        2.05509  -0.00001  -0.00011   0.00016   0.00005   2.05514
    A4        2.13259  -0.00025   0.00024  -0.00162  -0.00138   2.13121
    A5        2.11677   0.00007  -0.00007   0.00038   0.00031   2.11708
    A6        2.03383   0.00018  -0.00017   0.00124   0.00107   2.03490
    A7        2.16929   0.00008   0.00020  -0.00009   0.00011   2.16940
    A8        2.02826  -0.00007  -0.00017   0.00003  -0.00014   2.02812
    A9        2.08564  -0.00001  -0.00003   0.00006   0.00003   2.08566
    D1       -3.14155   0.00000   0.00000  -0.00011  -0.00012   3.14152
    D2       -0.00004   0.00000   0.00000   0.00016   0.00016   0.00013
    D3        0.00003   0.00000   0.00000  -0.00011  -0.00011  -0.00008
    D4        3.14154   0.00000   0.00000   0.00017   0.00017  -3.14147
    D5        0.00002  -0.00001   0.00000   0.00000   0.00000   0.00002
    D6        3.14132   0.00001   0.00001   0.00109   0.00110  -3.14076
    D7       -3.14150  -0.00001   0.00000  -0.00026  -0.00027   3.14142
    D8       -0.00020   0.00001   0.00001   0.00082   0.00083   0.00063
         Item               Value     Threshold  Converged?
 Maximum Force            0.001296     0.000450     NO 
 RMS     Force            0.000394     0.000300     NO 
 Maximum Displacement     0.003199     0.001800     NO 
 RMS     Displacement     0.001354     0.001200     NO 
 Predicted change in Energy=-3.957363D-06
 Lowest energy point so far.  Saving SCF results.
 GradGradGradGradGradGradGradGradGradGradGradGradGradGradGradGradGradGrad

 Leave Link  103 at Wed May 12 11:58:28 2021, MaxMem=  2147483648 cpu:         0.0
 (Enter /opt/cluster/programs/g09_d.01/g09/l202.exe)
                          Input orientation:                          
 ---------------------------------------------------------------------
 Center     Atomic      Atomic             Coordinates (Angstroms)
 Number     Number       Type             X           Y           Z
 ---------------------------------------------------------------------
      1          6           0        1.477227    0.468449    0.000039
      2          6           0        0.670107   -0.601818   -0.000157
      3          6           0       -0.800719   -0.475417   -0.000221
      4          8           0       -1.408367    0.603624   -0.000121
      5          1           0       -1.369255   -1.417341    0.000433
      6          1           0        2.557231    0.368626    0.000155
      7          1           0        1.061953    1.472480    0.000080
      8          1           0        1.071566   -1.611711   -0.000087
 ---------------------------------------------------------------------
                    Distance matrix (angstroms):
                    1          2          3          4          5
     1  C    0.000000
     2  C    1.340490   0.000000
     3  C    2.465749   1.476247   0.000000
     4  O    2.888758   2.402737   1.238372   0.000000
     5  H    3.414479   2.196378   1.100207   2.021344   0.000000
     6  H    1.084608   2.122027   3.462403   3.972554   4.313580
     7  H    1.086522   2.110985   2.695153   2.618662   3.776486
     8  H    2.119346   1.086762   2.190117   3.325323   2.448548
                    6          7          8
     6  H    0.000000
     7  H    1.858588   0.000000
     8  H    2.475668   3.084206   0.000000
 Stoichiometry    C3H4O
 Framework group  C1[X(C3H4O)]
 Deg. of freedom    18
 Full point group                 C1      NOp   1
 RotChk:  IX=0 Diff= 1.48D-04
 Largest Abelian subgroup         C1      NOp   1
 Largest concise Abelian subgroup C1      NOp   1
                         Standard orientation:                         
 ---------------------------------------------------------------------
 Center     Atomic      Atomic             Coordinates (Angstroms)
 Number     Number       Type             X           Y           Z
 ---------------------------------------------------------------------
      1          6           0       -1.471789   -0.471852    0.000119
      2          6           0       -0.666862    0.600065   -0.000076
      3          6           0        0.804220    0.476676   -0.000140
      4          8           0        1.414075   -0.601119   -0.000040
      5          1           0        1.370826    1.419762    0.000513
      6          1           0       -2.551995   -0.374241    0.000236
      7          1           0       -1.054460   -1.475031    0.000161
      8          1           0       -1.070388    1.609134   -0.000006
 ---------------------------------------------------------------------
 Rotational constants (GHZ):     22.6302269      6.1831868      4.8563118
 Leave Link  202 at Wed May 12 11:58:28 2021, MaxMem=  2147483648 cpu:         0.0
 (Enter /opt/cluster/programs/g09_d.01/g09/l301.exe)
 Standard basis: 6-31+G (6D, 7F)
 Ernie: Thresh=  0.10000D-02 Tol=  0.10000D-05 Strict=F.
 There are    60 symmetry adapted cartesian basis functions of A   symmetry.
 There are    60 symmetry adapted basis functions of A   symmetry.
    60 basis functions,   120 primitive gaussians,    60 cartesian basis functions
    15 alpha electrons       15 beta electrons
       nuclear repulsion energy       103.9921660762 Hartrees.
 IExCor= 4639 DFT=T Ex+Corr=wB97XD ExCW=0 ScaHFX=  1.000000
 ScaDFX=  1.000000  1.000000  1.000000  1.000000 ScalE2=  1.000000  1.000000
 IRadAn=      0 IRanWt=     -1 IRanGd=            0 ICorTp=0 IEmpDi=121
  HFx wShort=  0.000000 wLong=  0.200000 cFull=  0.222036 cShort=  0.000000 cLong=  0.777964
  DFx wShort=  0.000000 wLong=  0.200000 cFull=  0.000000 cShort=  0.000000 cLong=  1.000000
 NAtoms=    8 NActive=    8 NUniq=    8 SFac= 1.00D+00 NAtFMM=   60 NAOKFM=F Big=F
 Integral buffers will be    131072 words long.
 Raffenetti 2 integral format.
 Two-electron integral symmetry is turned on.
 R6Disp:  Grimme-D2 Dispersion energy=       -0.0017608202 Hartrees.
 Nuclear repulsion after empirical dispersion term =      103.9904052560 Hartrees.
 Leave Link  301 at Wed May 12 11:58:28 2021, MaxMem=  2147483648 cpu:         0.3
 (Enter /opt/cluster/programs/g09_d.01/g09/l302.exe)
 NPDir=0 NMtPBC=     1 NCelOv=     1 NCel=       1 NClECP=     1 NCelD=      1
         NCelK=      1 NCelE2=     1 NClLst=     1 CellRange=     0.0.
 One-electron integrals computed using PRISM.
 NBasis=    60 RedAO= T EigKep=  1.26D-04  NBF=    60
 NBsUse=    60 1.00D-06 EigRej= -1.00D+00 NBFU=    60
 Precomputing XC quadrature grid using
 IXCGrd= 4 IRadAn=           0 IRanWt=          -1 IRanGd=           0 AccXCQ= 0.00D+00.
 Generated NRdTot=       0 NPtTot=           0 NUsed=           0 NTot=          32
 NSgBfM=    60    60    60    60    60 MxSgAt=     8 MxSgA2=     8.
 Leave Link  302 at Wed May 12 11:58:28 2021, MaxMem=  2147483648 cpu:         0.8
 (Enter /opt/cluster/programs/g09_d.01/g09/l303.exe)
 DipDrv:  MaxL=1.
 Leave Link  303 at Wed May 12 11:58:28 2021, MaxMem=  2147483648 cpu:         0.2
 (Enter /opt/cluster/programs/g09_d.01/g09/l401.exe)
 Initial guess from the checkpoint file:  "/home/unibas/boittier/RDKit_G2/L.pdb/SCAN_1_2_3_4_S_17_20.0/9_SCAN_1_2_3_4_F/L.pdb.chk"
 B after Tr=     0.000000    0.000000    0.000000
         Rot=    1.000000    0.000035   -0.000021    0.000014 Ang=   0.00 deg.
 Guess basis will be translated and rotated to current coordinates.
 JPrj=2 DoOrth=T DoCkMO=T.
 Leave Link  401 at Wed May 12 11:58:28 2021, MaxMem=  2147483648 cpu:         0.6
 (Enter /opt/cluster/programs/g09_d.01/g09/l502.exe)
 Closed shell SCF:
 Using DIIS extrapolation, IDIIS=  1040.
 Integral symmetry usage will be decided dynamically.
 Keep R1 ints in memory in canonical form, NReq=4262490.
 IVT=       30290 IEndB=       30290 NGot=  2147483648 MDV=  2144102629
 LenX=  2144102629 LenY=  2144098588
 Requested convergence on RMS density matrix=1.00D-08 within 128 cycles.
 Requested convergence on MAX density matrix=1.00D-06.
 Requested convergence on             energy=1.00D-06.
 No special actions if energy rises.
 FoFCou: FMM=F IPFlag=           0 FMFlag=           0 FMFlg1=           0
         NFxFlg=           0 DoJE=F BraDBF=F KetDBF=F FulRan=T
         wScrn=  0.000000 ICntrl=     600 IOpCl=  0 I1Cent=           0 NGrid=           0
         NMat0=    1 NMatS0=   1830 NMatT0=    0 NMatD0=    1 NMtDS0=    0 NMtDT0=    0
 Symmetry not used in FoFCou.

 Cycle   1  Pass 1  IDiag  1:
 E= -191.793253366693    
 DIIS: error= 1.02D-04 at cycle   1 NSaved=   1.
 NSaved= 1 IEnMin= 1 EnMin= -191.793253366693     IErMin= 1 ErrMin= 1.02D-04
 ErrMax= 1.02D-04  0.00D+00 EMaxC= 1.00D-01 BMatC= 1.53D-06 BMatP= 1.53D-06
 IDIUse=3 WtCom= 9.99D-01 WtEn= 1.02D-03
 Coeff-Com:  0.100D+01
 Coeff-En:   0.100D+01
 Coeff:      0.100D+01
 Gap=     0.617 Goal=   None    Shift=    0.000
 RMSDP=8.04D-05 MaxDP=1.42D-03              OVMax= 4.88D-04

 Cycle   2  Pass 1  IDiag  1:
 E= -191.793255142727     Delta-E=       -0.000001776034 Rises=F Damp=F
 DIIS: error= 1.30D-04 at cycle   2 NSaved=   2.
 NSaved= 2 IEnMin= 2 EnMin= -191.793255142727     IErMin= 1 ErrMin= 1.02D-04
 ErrMax= 1.30D-04  0.00D+00 EMaxC= 1.00D-01 BMatC= 5.78D-07 BMatP= 1.53D-06
 IDIUse=3 WtCom= 9.99D-01 WtEn= 1.30D-03
 Coeff-Com:  0.312D+00 0.688D+00
 Coeff-En:   0.000D+00 0.100D+01
 Coeff:      0.311D+00 0.689D+00
 Gap=     0.335 Goal=   None    Shift=    0.000
 RMSDP=2.15D-05 MaxDP=2.71D-04 DE=-1.78D-06 OVMax= 3.33D-04

 Cycle   3  Pass 1  IDiag  1:
 E= -191.793255406242     Delta-E=       -0.000000263516 Rises=F Damp=F
 DIIS: error= 7.37D-05 at cycle   3 NSaved=   3.
 NSaved= 3 IEnMin= 3 EnMin= -191.793255406242     IErMin= 3 ErrMin= 7.37D-05
 ErrMax= 7.37D-05  0.00D+00 EMaxC= 1.00D-01 BMatC= 3.29D-07 BMatP= 5.78D-07
 IDIUse=1 WtCom= 1.00D+00 WtEn= 0.00D+00
 Coeff-Com: -0.742D-01 0.433D+00 0.641D+00
 Coeff:     -0.742D-01 0.433D+00 0.641D+00
 Gap=     0.336 Goal=   None    Shift=    0.000
 RMSDP=1.52D-05 MaxDP=2.51D-04 DE=-2.64D-07 OVMax= 2.05D-04

 Cycle   4  Pass 1  IDiag  1:
 E= -191.793255670547     Delta-E=       -0.000000264305 Rises=F Damp=F
 DIIS: error= 8.57D-06 at cycle   4 NSaved=   4.
 NSaved= 4 IEnMin= 4 EnMin= -191.793255670547     IErMin= 4 ErrMin= 8.57D-06
 ErrMax= 8.57D-06  0.00D+00 EMaxC= 1.00D-01 BMatC= 7.24D-09 BMatP= 3.29D-07
 IDIUse=1 WtCom= 1.00D+00 WtEn= 0.00D+00
 Coeff-Com: -0.423D-01 0.132D+00 0.247D+00 0.663D+00
 Coeff:     -0.423D-01 0.132D+00 0.247D+00 0.663D+00
 Gap=     0.336 Goal=   None    Shift=    0.000
 RMSDP=2.00D-06 MaxDP=2.07D-05 DE=-2.64D-07 OVMax= 3.42D-05

 Cycle   5  Pass 1  IDiag  1:
 E= -191.793255678792     Delta-E=       -0.000000008244 Rises=F Damp=F
 DIIS: error= 3.89D-06 at cycle   5 NSaved=   5.
 NSaved= 5 IEnMin= 5 EnMin= -191.793255678792     IErMin= 5 ErrMin= 3.89D-06
 ErrMax= 3.89D-06  0.00D+00 EMaxC= 1.00D-01 BMatC= 4.71D-10 BMatP= 7.24D-09
 IDIUse=1 WtCom= 1.00D+00 WtEn= 0.00D+00
 Coeff-Com:  0.200D-02-0.307D-01-0.287D-01 0.107D+00 0.950D+00
 Coeff:      0.200D-02-0.307D-01-0.287D-01 0.107D+00 0.950D+00
 Gap=     0.336 Goal=   None    Shift=    0.000
 RMSDP=9.41D-07 MaxDP=5.34D-06 DE=-8.24D-09 OVMax= 2.45D-05

 Cycle   6  Pass 1  IDiag  1:
 E= -191.793255680022     Delta-E=       -0.000000001231 Rises=F Damp=F
 DIIS: error= 1.89D-06 at cycle   6 NSaved=   6.
 NSaved= 6 IEnMin= 6 EnMin= -191.793255680022     IErMin= 6 ErrMin= 1.89D-06
 ErrMax= 1.89D-06  0.00D+00 EMaxC= 1.00D-01 BMatC= 1.08D-10 BMatP= 4.71D-10
 IDIUse=1 WtCom= 1.00D+00 WtEn= 0.00D+00
 Coeff-Com:  0.537D-02-0.260D-01-0.370D-01-0.267D-01 0.374D+00 0.710D+00
 Coeff:      0.537D-02-0.260D-01-0.370D-01-0.267D-01 0.374D+00 0.710D+00
 Gap=     0.336 Goal=   None    Shift=    0.000
 RMSDP=3.70D-07 MaxDP=3.53D-06 DE=-1.23D-09 OVMax= 1.15D-05

 Cycle   7  Pass 1  IDiag  1:
 E= -191.793255680320     Delta-E=       -0.000000000298 Rises=F Damp=F
 DIIS: error= 1.21D-06 at cycle   7 NSaved=   7.
 NSaved= 7 IEnMin= 7 EnMin= -191.793255680320     IErMin= 7 ErrMin= 1.21D-06
 ErrMax= 1.21D-06  0.00D+00 EMaxC= 1.00D-01 BMatC= 1.60D-11 BMatP= 1.08D-10
 IDIUse=1 WtCom= 1.00D+00 WtEn= 0.00D+00
 Coeff-Com: -0.845D-03 0.834D-02 0.749D-02-0.200D-01-0.245D+00 0.336D-03
 Coeff-Com:  0.125D+01
 Coeff:     -0.845D-03 0.834D-02 0.749D-02-0.200D-01-0.245D+00 0.336D-03
 Coeff:      0.125D+01
 Gap=     0.336 Goal=   None    Shift=    0.000
 RMSDP=3.85D-07 MaxDP=2.99D-06 DE=-2.98D-10 OVMax= 1.30D-05

 Cycle   8  Pass 1  IDiag  1:
 E= -191.793255680435     Delta-E=       -0.000000000115 Rises=F Damp=F
 DIIS: error= 4.50D-07 at cycle   8 NSaved=   8.
 NSaved= 8 IEnMin= 8 EnMin= -191.793255680435     IErMin= 8 ErrMin= 4.50D-07
 ErrMax= 4.50D-07  0.00D+00 EMaxC= 1.00D-01 BMatC= 2.10D-12 BMatP= 1.60D-11
 IDIUse=1 WtCom= 1.00D+00 WtEn= 0.00D+00
 Coeff-Com: -0.865D-03 0.513D-02 0.639D-02 0.725D-03-0.927D-01-0.921D-01
 Coeff-Com:  0.231D+00 0.942D+00
 Coeff:     -0.865D-03 0.513D-02 0.639D-02 0.725D-03-0.927D-01-0.921D-01
 Coeff:      0.231D+00 0.942D+00
 Gap=     0.336 Goal=   None    Shift=    0.000
 RMSDP=1.16D-07 MaxDP=1.06D-06 DE=-1.15D-10 OVMax= 4.47D-06

 Cycle   9  Pass 1  IDiag  1:
 E= -191.793255680449     Delta-E=       -0.000000000014 Rises=F Damp=F
 DIIS: error= 1.92D-07 at cycle   9 NSaved=   9.
 NSaved= 9 IEnMin= 9 EnMin= -191.793255680449     IErMin= 9 ErrMin= 1.92D-07
 ErrMax= 1.92D-07  0.00D+00 EMaxC= 1.00D-01 BMatC= 3.48D-13 BMatP= 2.10D-12
 IDIUse=1 WtCom= 1.00D+00 WtEn= 0.00D+00
 Coeff-Com:  0.170D-03-0.201D-02-0.161D-02 0.508D-02 0.611D-01-0.134D-01
 Coeff-Com: -0.304D+00-0.353D-01 0.129D+01
 Coeff:      0.170D-03-0.201D-02-0.161D-02 0.508D-02 0.611D-01-0.134D-01
 Coeff:     -0.304D+00-0.353D-01 0.129D+01
 Gap=     0.336 Goal=   None    Shift=    0.000
 RMSDP=7.69D-08 MaxDP=7.23D-07 DE=-1.40D-11 OVMax= 2.99D-06

 Cycle  10  Pass 1  IDiag  1:
 E= -191.793255680453     Delta-E=       -0.000000000004 Rises=F Damp=F
 DIIS: error= 2.15D-08 at cycle  10 NSaved=  10.
 NSaved=10 IEnMin=10 EnMin= -191.793255680453     IErMin=10 ErrMin= 2.15D-08
 ErrMax= 2.15D-08  0.00D+00 EMaxC= 1.00D-01 BMatC= 1.57D-14 BMatP= 3.48D-13
 IDIUse=1 WtCom= 1.00D+00 WtEn= 0.00D+00
 Coeff-Com: -0.172D-05 0.243D-03 0.611D-04-0.138D-02-0.955D-02 0.265D-02
 Coeff-Com:  0.757D-01-0.592D-01-0.315D+00 0.131D+01
 Coeff:     -0.172D-05 0.243D-03 0.611D-04-0.138D-02-0.955D-02 0.265D-02
 Coeff:      0.757D-01-0.592D-01-0.315D+00 0.131D+01
 Gap=     0.336 Goal=   None    Shift=    0.000
 RMSDP=2.01D-08 MaxDP=2.83D-07 DE=-4.04D-12 OVMax= 3.69D-07

 Cycle  11  Pass 1  IDiag  1:
 E= -191.793255680453     Delta-E=        0.000000000000 Rises=F Damp=F
 DIIS: error= 2.79D-09 at cycle  11 NSaved=  11.
 NSaved=11 IEnMin=10 EnMin= -191.793255680453     IErMin=11 ErrMin= 2.79D-09
 ErrMax= 2.79D-09  0.00D+00 EMaxC= 1.00D-01 BMatC= 5.79D-16 BMatP= 1.57D-14
 IDIUse=1 WtCom= 1.00D+00 WtEn= 0.00D+00
 Coeff-Com: -0.675D-05 0.511D-04 0.752D-04-0.118D-03-0.144D-02-0.366D-03
 Coeff-Com:  0.672D-02 0.465D-02-0.241D-01-0.106D+00 0.112D+01
 Coeff:     -0.675D-05 0.511D-04 0.752D-04-0.118D-03-0.144D-02-0.366D-03
 Coeff:      0.672D-02 0.465D-02-0.241D-01-0.106D+00 0.112D+01
 Gap=     0.336 Goal=   None    Shift=    0.000
 RMSDP=4.37D-09 MaxDP=7.24D-08 DE= 5.68D-14 OVMax= 3.40D-08

 SCF Done:  E(RwB97XD) =  -191.793255680     A.U. after   11 cycles
            NFock= 11  Conv=0.44D-08     -V/T= 2.0058
 KE= 1.906875110998D+02 PE=-6.555098347733D+02 EE= 1.690386627371D+02
 Leave Link  502 at Wed May 12 11:58:29 2021, MaxMem=  2147483648 cpu:         7.5
 (Enter /opt/cluster/programs/g09_d.01/g09/l701.exe)
 Compute integral first derivatives.
 ... and contract with generalized density number  0.
 R6Disp: Adding Grimme-D2 dispersion energy 1st derivatives to the gradient.
 Leave Link  701 at Wed May 12 11:58:29 2021, MaxMem=  2147483648 cpu:         0.6
 (Enter /opt/cluster/programs/g09_d.01/g09/l702.exe)
 L702 exits ... SP integral derivatives will be done elsewhere.
 Leave Link  702 at Wed May 12 11:58:29 2021, MaxMem=  2147483648 cpu:         0.2
 (Enter /opt/cluster/programs/g09_d.01/g09/l703.exe)
 Compute integral first derivatives, UseDBF=F ICtDFT=           0.
 Integral derivatives from FoFJK, PRISM(SPDF).
 Calling FoFJK, ICntrl=      2127 FMM=F ISym2X=0 I1Cent= 0 IOpClX= 0 NMat=1 NMatS=1 NMatT=0.
 FoFJK:  IHMeth= 1 ICntrl=    2127 DoSepK=T KAlg= 0 I1Cent=   0 FoldK=F
 IRaf=         1 NMat=   1 IRICut=       1 DoRegI=T DoRafI=F ISym2E= 0.
 FoFCou: FMM=F IPFlag=           0 FMFlag=      100000 FMFlg1=         800
         NFxFlg=           0 DoJE=F BraDBF=F KetDBF=F FulRan=T
         wScrn=  0.000000 ICntrl=    2527 IOpCl=  0 I1Cent=           0 NGrid=           0
         NMat0=    1 NMatS0=      1 NMatT0=    0 NMatD0=    1 NMtDS0=    0 NMtDT0=    0
 Symmetry not used in FoFCou.
 Leave Link  703 at Wed May 12 11:58:29 2021, MaxMem=  2147483648 cpu:         2.5
 (Enter /opt/cluster/programs/g09_d.01/g09/l716.exe)
 Dipole        =-9.97779323D-01 7.82936883D-01 1.68540637D-04
 ***** Axes restored to original set *****
 -------------------------------------------------------------------
 Center     Atomic                   Forces (Hartrees/Bohr)
 Number     Number              X              Y              Z
 -------------------------------------------------------------------
      1        6           0.000003183    0.000081373   -0.000005665
      2        6           0.000254025   -0.000200265   -0.000015462
      3        6          -0.000308637    0.000223210    0.000089685
      4        8           0.000056285   -0.000009614   -0.000031105
      5        1           0.000054375   -0.000133528   -0.000033513
      6        1           0.000002035    0.000022462    0.000003581
      7        1          -0.000041379    0.000011346   -0.000002020
      8        1          -0.000019886    0.000005015   -0.000005501
 -------------------------------------------------------------------
 Cartesian Forces:  Max     0.000308637 RMS     0.000110607
 Leave Link  716 at Wed May 12 11:58:29 2021, MaxMem=  2147483648 cpu:         0.2
 (Enter /opt/cluster/programs/g09_d.01/g09/l103.exe)

 GradGradGradGradGradGradGradGradGradGradGradGradGradGradGradGradGradGrad
 Berny optimization.
 Using GEDIIS/GDIIS optimizer.
 FormGI is forming the generalized inverse of G from B-inverse, IUseBI=4.
 Internal  Forces:  Max     0.000212672 RMS     0.000069777
 Search for a local minimum.
 Step number   3 out of a maximum of   34
 All quantities printed in internal units (Hartrees-Bohrs-Radians)
 RMS Force = .70876D-04 SwitMx=.10000D-02 MixMth= 2
 Mixed Optimization -- En-DIIS/RFO-DIIS
 Swapping is turned off.
 Update second derivatives using D2CorX and points    1    2    3
 DE= -4.56D-06 DEPred=-3.96D-06 R= 1.15D+00
 TightC=F SS=  1.41D+00  RLast= 4.73D-03 DXNew= 5.0454D-01 1.4205D-02
 Trust test= 1.15D+00 RLast= 4.73D-03 DXMaxT set to 3.00D-01
 ITU=  1  1  0
     Eigenvalues ---    0.01094   0.01811   0.02807   0.02807   0.14990
     Eigenvalues ---    0.16000   0.16019   0.16311   0.19304   0.22096
     Eigenvalues ---    0.33288   0.33862   0.35131   0.35223   0.35420
     Eigenvalues ---    0.61993   0.804541000.000001000.000001000.00000
     Eigenvalues --- 1000.000001000.000001000.000001000.00000
 En-DIIS/RFO-DIIS IScMMF=        0 using points:     3    2
 RFO step:  Lambda=-2.87131834D-07.
 NNeg= 0 NP= 2 Switch=  2.50D-03 Rises=F DC=  4.56D-06 SmlDif=  1.00D-05
 RMS Error=  0.1924579419D-03 NUsed= 2 EDIIS=F
 DidBck=F Rises=F RFO-DIIS coefs:    1.17235   -0.17235
 Iteration  1 RMS(Cart)=  0.00117467 RMS(Int)=  0.00000188
 Iteration  2 RMS(Cart)=  0.00000188 RMS(Int)=  0.00000073
 Iteration  3 RMS(Cart)=  0.00000000 RMS(Int)=  0.00000073
 Iteration  1 RMS(Cart)=  0.00000001 RMS(Int)=  0.00000001
 ITry= 1 IFail=0 DXMaxC= 3.47D-03 DCOld= 1.00D+10 DXMaxT= 3.00D-01 DXLimC= 3.00D+00 Rises=F
 Variable       Old X    -DE/DX   Delta X   Delta X   Delta X     New X
                                 (Linear)    (Quad)   (Total)
    R1        2.53316   0.00006   0.00026  -0.00009   0.00017   2.53333
    R2        2.04961   0.00000   0.00002   0.00000   0.00001   2.04962
    R3        2.05323   0.00002   0.00000   0.00006   0.00005   2.05328
    R4        2.78970   0.00021   0.00060   0.00039   0.00099   2.79069
    R5        2.05368  -0.00001  -0.00002  -0.00004  -0.00007   2.05362
    R6        2.34018  -0.00003  -0.00021  -0.00003  -0.00024   2.33995
    R7        2.07909   0.00008   0.00006   0.00021   0.00028   2.07937
    A1        2.12477   0.00003   0.00013   0.00013   0.00026   2.12502
    A2        2.10327  -0.00004  -0.00014  -0.00024  -0.00038   2.10289
    A3        2.05514   0.00001   0.00001   0.00011   0.00012   2.05527
    A4        2.13121  -0.00014  -0.00024  -0.00070  -0.00094   2.13027
    A5        2.11708   0.00010   0.00005   0.00058   0.00063   2.11771
    A6        2.03490   0.00004   0.00018   0.00012   0.00031   2.03520
    A7        2.16940  -0.00002   0.00002  -0.00015  -0.00013   2.16927
    A8        2.02812  -0.00010  -0.00002  -0.00068  -0.00070   2.02742
    A9        2.08566   0.00011   0.00000   0.00083   0.00083   2.08649
    D1        3.14152   0.00000  -0.00002   0.00036   0.00034  -3.14133
    D2        0.00013   0.00000   0.00003  -0.00062  -0.00059  -0.00046
    D3       -0.00008   0.00000  -0.00002   0.00041   0.00039   0.00031
    D4       -3.14147   0.00000   0.00003  -0.00057  -0.00054   3.14118
    D5        0.00002   0.00003   0.00000   0.00000   0.00000   0.00002
    D6       -3.14076  -0.00003   0.00019  -0.00398  -0.00379   3.13863
    D7        3.14142   0.00003  -0.00005   0.00094   0.00089  -3.14088
    D8        0.00063  -0.00003   0.00014  -0.00304  -0.00290  -0.00227
         Item               Value     Threshold  Converged?
 Maximum Force            0.000213     0.000450     YES
 RMS     Force            0.000071     0.000300     YES
 Maximum Displacement     0.003465     0.001800     NO 
 RMS     Displacement     0.001175     0.001200     YES
 Predicted change in Energy=-4.444511D-07
 Lowest energy point so far.  Saving SCF results.
 GradGradGradGradGradGradGradGradGradGradGradGradGradGradGradGradGradGrad

 Leave Link  103 at Wed May 12 11:58:29 2021, MaxMem=  2147483648 cpu:         0.0
 (Enter /opt/cluster/programs/g09_d.01/g09/l202.exe)
                          Input orientation:                          
 ---------------------------------------------------------------------
 Center     Atomic      Atomic             Coordinates (Angstroms)
 Number     Number       Type             X           Y           Z
 ---------------------------------------------------------------------
      1          6           0        1.477167    0.468343   -0.000093
      2          6           0        0.670436   -0.602331    0.000678
      3          6           0       -0.800843   -0.475112    0.000869
      4          8           0       -1.407723    0.604217    0.000331
      5          1           0       -1.369288   -1.417260   -0.001401
      6          1           0        2.557244    0.369242   -0.000472
      7          1           0        1.061086    1.472070   -0.000312
      8          1           0        1.071663   -1.612278    0.000521
 ---------------------------------------------------------------------
                    Distance matrix (angstroms):
                    1          2          3          4          5
     1  C    0.000000
     2  C    1.340581   0.000000
[...]
 Coeff:      0.797D+00
 Gap=     0.336 Goal=   None    Shift=    0.000
 RMSDP=1.42D-07 MaxDP=1.33D-06 DE=-8.04D-11 OVMax= 4.91D-06

 Cycle   8  Pass 1  IDiag  1:
 E= -191.793256101787     Delta-E=       -0.000000000018 Rises=F Damp=F
 DIIS: error= 8.26D-08 at cycle   8 NSaved=   8.
 NSaved= 8 IEnMin= 8 EnMin= -191.793256101787     IErMin= 8 ErrMin= 8.26D-08
 ErrMax= 8.26D-08  0.00D+00 EMaxC= 1.00D-01 BMatC= 9.47D-14 BMatP= 6.66D-12
 IDIUse=1 WtCom= 1.00D+00 WtEn= 0.00D+00
 Coeff-Com:  0.169D-03-0.181D-02 0.310D-02 0.763D-02-0.129D-01-0.534D-01
 Coeff-Com: -0.224D-02 0.106D+01
 Coeff:      0.169D-03-0.181D-02 0.310D-02 0.763D-02-0.129D-01-0.534D-01
 Coeff:     -0.224D-02 0.106D+01
 Gap=     0.336 Goal=   None    Shift=    0.000
 RMSDP=1.75D-08 MaxDP=1.66D-07 DE=-1.80D-11 OVMax= 4.38D-07

 Cycle   9  Pass 1  IDiag  1:
 E= -191.793256101786     Delta-E=        0.000000000000 Rises=F Damp=F
 DIIS: error= 1.89D-08 at cycle   9 NSaved=   9.
 NSaved= 9 IEnMin= 8 EnMin= -191.793256101787     IErMin= 9 ErrMin= 1.89D-08
 ErrMax= 1.89D-08  0.00D+00 EMaxC= 1.00D-01 BMatC= 1.47D-14 BMatP= 9.47D-14
 IDIUse=1 WtCom= 1.00D+00 WtEn= 0.00D+00
 Coeff-Com:  0.201D-03-0.829D-03-0.162D-02-0.115D-02 0.234D-01-0.544D-01
 Coeff-Com: -0.692D-01 0.301D+00 0.803D+00
 Coeff:      0.201D-03-0.829D-03-0.162D-02-0.115D-02 0.234D-01-0.544D-01
 Coeff:     -0.692D-01 0.301D+00 0.803D+00
 Gap=     0.336 Goal=   None    Shift=    0.000
 RMSDP=5.78D-09 MaxDP=6.05D-08 DE= 2.84D-13 OVMax= 9.76D-08

 SCF Done:  E(RwB97XD) =  -191.793256102     A.U. after    9 cycles
            NFock=  9  Conv=0.58D-08     -V/T= 2.0058
 KE= 1.906864741705D+02 PE=-6.555042673868D+02 EE= 1.690365031569D+02
 Leave Link  502 at Wed May 12 11:58:34 2021, MaxMem=  2147483648 cpu:         6.3
 (Enter /opt/cluster/programs/g09_d.01/g09/l701.exe)
 Compute integral first derivatives.
 ... and contract with generalized density number  0.
 R6Disp: Adding Grimme-D2 dispersion energy 1st derivatives to the gradient.
 Leave Link  701 at Wed May 12 11:58:34 2021, MaxMem=  2147483648 cpu:         0.6
 (Enter /opt/cluster/programs/g09_d.01/g09/l702.exe)
 L702 exits ... SP integral derivatives will be done elsewhere.
 Leave Link  702 at Wed May 12 11:58:34 2021, MaxMem=  2147483648 cpu:         0.2
 (Enter /opt/cluster/programs/g09_d.01/g09/l703.exe)
 Compute integral first derivatives, UseDBF=F ICtDFT=           0.
 Integral derivatives from FoFJK, PRISM(SPDF).
 Calling FoFJK, ICntrl=      2127 FMM=F ISym2X=0 I1Cent= 0 IOpClX= 0 NMat=1 NMatS=1 NMatT=0.
 FoFJK:  IHMeth= 1 ICntrl=    2127 DoSepK=T KAlg= 0 I1Cent=   0 FoldK=F
 IRaf=         1 NMat=   1 IRICut=       1 DoRegI=T DoRafI=F ISym2E= 0.
 FoFCou: FMM=F IPFlag=           0 FMFlag=      100000 FMFlg1=         800
         NFxFlg=           0 DoJE=F BraDBF=F KetDBF=F FulRan=T
         wScrn=  0.000000 ICntrl=    2527 IOpCl=  0 I1Cent=           0 NGrid=           0
         NMat0=    1 NMatS0=      1 NMatT0=    0 NMatD0=    1 NMtDS0=    0 NMtDT0=    0
 Symmetry not used in FoFCou.
 Leave Link  703 at Wed May 12 11:58:34 2021, MaxMem=  2147483648 cpu:         2.5
 (Enter /opt/cluster/programs/g09_d.01/g09/l716.exe)
 Dipole        =-9.96663687D-01 7.82899165D-01 1.09733757D-04
 ***** Axes restored to original set *****
 -------------------------------------------------------------------
 Center     Atomic                   Forces (Hartrees/Bohr)
 Number     Number              X              Y              Z
 -------------------------------------------------------------------
      1        6          -0.000017890   -0.000030860   -0.000004277
      2        6          -0.000021758    0.000070277   -0.000009115
      3        6           0.000098722   -0.000089220    0.000053530
      4        8          -0.000040950    0.000017748   -0.000018535
      5        1           0.000001104    0.000012630   -0.000020071
      6        1          -0.000005106    0.000016571    0.000002363
      7        1          -0.000010420    0.000001190   -0.000000796
      8        1          -0.000003703    0.000001665   -0.000003098
 -------------------------------------------------------------------
 Cartesian Forces:  Max     0.000098722 RMS     0.000035765
 Leave Link  716 at Wed May 12 11:58:34 2021, MaxMem=  2147483648 cpu:         0.2
 (Enter /opt/cluster/programs/g09_d.01/g09/l103.exe)

 GradGradGradGradGradGradGradGradGradGradGradGradGradGradGradGradGradGrad
 Berny optimization.
 Using GEDIIS/GDIIS optimizer.
 FormGI is forming the generalized inverse of G from B-inverse, IUseBI=4.
 Internal  Forces:  Max     0.000055072 RMS     0.000021312
 Search for a local minimum.
 Step number   5 out of a maximum of   34
 All quantities printed in internal units (Hartrees-Bohrs-Radians)
 RMS Force = .21298D-04 SwitMx=.10000D-02 MixMth= 2
 Mixed Optimization -- En-DIIS/RFO-DIIS
 Swapping is turned off.
 Update second derivatives using D2CorX and points    1    2    3    4    5
 DE= -3.50D-07 DEPred=-4.71D-07 R= 7.42D-01
 Trust test= 7.42D-01 RLast= 4.53D-03 DXMaxT set to 3.00D-01
 ITU=  0  0  1  1  0
     Eigenvalues ---    0.01627   0.02781   0.02807   0.04888   0.13937
     Eigenvalues ---    0.15931   0.16063   0.16508   0.19559   0.22149
     Eigenvalues ---    0.32595   0.33460   0.35180   0.35191   0.35403
     Eigenvalues ---    0.61645   0.784041000.000001000.000001000.00000
     Eigenvalues --- 1000.000001000.000001000.000001000.00000
 En-DIIS/RFO-DIIS IScMMF=        0 using points:     5    4    3    2
 RFO step:  Lambda=-2.17437026D-08.
 NNeg= 0 NP= 4 Switch=  2.50D-03 Rises=F DC=  4.56D-06 SmlDif=  1.00D-05
 RMS Error=  0.4735733221D-04 NUsed= 4 EDIIS=F
 DidBck=F Rises=F RFO-DIIS coefs:    0.74305    0.14148    0.09140    0.02407
 Iteration  1 RMS(Cart)=  0.00017512 RMS(Int)=  0.00000008
 Iteration  2 RMS(Cart)=  0.00000003 RMS(Int)=  0.00000007
 Iteration  1 RMS(Cart)=  0.00000000 RMS(Int)=  0.00000000
 ITry= 1 IFail=0 DXMaxC= 4.40D-04 DCOld= 1.00D+10 DXMaxT= 3.00D-01 DXLimC= 3.00D+00 Rises=F
 Variable       Old X    -DE/DX   Delta X   Delta X   Delta X     New X
                                 (Linear)    (Quad)   (Total)
    R1        2.53331  -0.00004  -0.00005  -0.00001  -0.00006   2.53325
    R2        2.04962   0.00000   0.00000   0.00000   0.00000   2.04962
    R3        2.05329   0.00000  -0.00001   0.00000  -0.00001   2.05328
    R4        2.79081  -0.00006  -0.00023   0.00002  -0.00021   2.79060
    R5        2.05360   0.00000   0.00002  -0.00001   0.00000   2.05360
    R6        2.33993   0.00004   0.00006   0.00002   0.00008   2.34001
    R7        2.07941  -0.00002  -0.00005   0.00000  -0.00005   2.07935
    A1        2.12508   0.00000  -0.00006   0.00006  -0.00001   2.12507
    A2        2.10281   0.00000   0.00008  -0.00006   0.00002   2.10284
    A3        2.05530   0.00000  -0.00002   0.00000  -0.00002   2.05528
    A4        2.13011   0.00003   0.00018   0.00000   0.00019   2.13030
    A5        2.11787   0.00000  -0.00012   0.00009  -0.00003   2.11784
    A6        2.03521  -0.00003  -0.00006  -0.00010  -0.00016   2.03505
    A7        2.16926   0.00001   0.00002   0.00005   0.00006   2.16932
    A8        2.02729   0.00001   0.00012   0.00000   0.00012   2.02741
    A9        2.08663  -0.00003  -0.00013  -0.00005  -0.00018   2.08645
    D1        3.14155   0.00000   0.00004   0.00000   0.00004   3.14159
    D2        0.00008   0.00000  -0.00008   0.00000  -0.00008   0.00000
    D3       -0.00006   0.00000   0.00005   0.00000   0.00006   0.00000
    D4       -3.14153   0.00000  -0.00007   0.00001  -0.00006  -3.14159
    D5        0.00002   0.00002   0.00000   0.00000   0.00000   0.00002
    D6       -3.14109  -0.00002  -0.00048   0.00000  -0.00048  -3.14157
    D7        3.14149   0.00002   0.00011   0.00000   0.00011  -3.14158
    D8        0.00039  -0.00002  -0.00037  -0.00001  -0.00037   0.00001
         Item               Value     Threshold  Converged?
 Maximum Force            0.000055     0.000450     YES
 RMS     Force            0.000021     0.000300     YES
 Maximum Displacement     0.000440     0.001800     YES
 RMS     Displacement     0.000175     0.001200     YES
 Predicted change in Energy=-2.688474D-08
 Optimization completed.
    -- Stationary point found.
                           ----------------------------
                           !   Optimized Parameters   !
                           ! (Angstroms and Degrees)  !
 --------------------------                            --------------------------
 ! Name  Definition              Value          Derivative Info.                !
 --------------------------------------------------------------------------------
 ! R1    R(1,2)                  1.3406         -DE/DX =    0.0                 !
 ! R2    R(1,6)                  1.0846         -DE/DX =    0.0                 !
 ! R3    R(1,7)                  1.0866         -DE/DX =    0.0                 !
 ! R4    R(2,3)                  1.4768         -DE/DX =   -0.0001              !
 ! R5    R(2,8)                  1.0867         -DE/DX =    0.0                 !
 ! R6    R(3,4)                  1.2382         -DE/DX =    0.0                 !
 ! R7    R(3,5)                  1.1004         -DE/DX =    0.0                 !
 ! A1    A(2,1,6)              121.7579         -DE/DX =    0.0                 !
 ! A2    A(2,1,7)              120.4823         -DE/DX =    0.0                 !
 ! A3    A(6,1,7)              117.7597         -DE/DX =    0.0                 !
 ! A4    A(1,2,3)              122.0464         -DE/DX =    0.0                 !
 ! A5    A(1,2,8)              121.3449         -DE/DX =    0.0                 !
 ! A6    A(3,2,8)              116.6087         -DE/DX =    0.0                 !
 ! A7    A(2,3,4)              124.2892         -DE/DX =    0.0                 !
 ! A8    A(2,3,5)              116.1554         -DE/DX =    0.0                 !
 ! A9    A(4,3,5)              119.5553         -DE/DX =    0.0                 !
 ! D1    D(6,1,2,3)            179.9976         -DE/DX =    0.0                 !
 ! D2    D(6,1,2,8)              0.0045         -DE/DX =    0.0                 !
 ! D3    D(7,1,2,3)             -0.0032         -DE/DX =    0.0                 !
 ! D4    D(7,1,2,8)           -179.9963         -DE/DX =    0.0                 !
 ! D5    D(1,2,3,4)              0.001          -DE/DX =    0.0                 !
 ! D6    D(1,2,3,5)           -179.9713         -DE/DX =    0.0                 !
 ! D7    D(8,2,3,4)           -180.0057         -DE/DX =    0.0                 !
 ! D8    D(8,2,3,5)              0.0221         -DE/DX =    0.0                 !
 --------------------------------------------------------------------------------
 Lowest energy point so far.  Saving SCF results.
 GradGradGradGradGradGradGradGradGradGradGradGradGradGradGradGradGradGrad

 Largest change from initial coordinates is atom    7       0.006 Angstoms.
 Leave Link  103 at Wed May 12 11:58:34 2021, MaxMem=  2147483648 cpu:         0.0
 (Enter /opt/cluster/programs/g09_d.01/g09/l202.exe)
                          Input orientation:                          
 ---------------------------------------------------------------------
 Center     Atomic      Atomic             Coordinates (Angstroms)
 Number     Number       Type             X           Y           Z
 ---------------------------------------------------------------------
      1          6           0        1.477148    0.468316    0.000031
      2          6           0        0.670496   -0.602406   -0.000083
      3          6           0       -0.800833   -0.475054   -0.000127
      4          8           0       -1.407601    0.604326   -0.000080
      5          1           0       -1.369252   -1.417245    0.000273
      6          1           0        2.557237    0.369348    0.000102
      7          1           0        1.060914    1.471986    0.000042
      8          1           0        1.071634   -1.612380   -0.000036
 ---------------------------------------------------------------------
                    Distance matrix (angstroms):
                    1          2          3          4          5
     1  C    0.000000
     2  C    1.340572   0.000000
     3  C    2.465592   1.476831   0.000000
     4  O    2.887954   2.403059   1.238237   0.000000
     5  H    3.414283   2.196483   1.100374   2.021935   0.000000
     6  H    1.084614   2.122286   3.462608   3.971796   4.313842
     7  H    1.086556   2.110812   2.693895   2.616563   3.775362
     8  H    2.119844   1.086719   2.190808   3.325717   2.448673
                    6          7          8
     6  H    0.000000
     7  H    1.858708   0.000000
     8  H    2.476744   3.084384   0.000000
 Stoichiometry    C3H4O
 Framework group  C1[X(C3H4O)]
 Deg. of freedom    18
 Full point group                 C1      NOp   1
 RotChk:  IX=0 Diff= 5.55D-16
 Largest Abelian subgroup         C1      NOp   1
 Largest concise Abelian subgroup C1      NOp   1
                         Standard orientation:                         
 ---------------------------------------------------------------------
 Center     Atomic      Atomic             Coordinates (Angstroms)
 Number     Number       Type             X           Y           Z
 ---------------------------------------------------------------------
      1          6           0       -1.471319   -0.472177    0.000076
      2          6           0       -0.667271    0.600502   -0.000039
      3          6           0        0.804364    0.476725   -0.000082
      4          8           0        1.413752   -0.601178   -0.000036
      5          1           0        1.370492    1.420294    0.000318
      6          1           0       -2.551646   -0.375833    0.000146
      7          1           0       -1.052648   -1.474833    0.000087
      8          1           0       -1.070861    1.609498    0.000008
 ---------------------------------------------------------------------
 Rotational constants (GHZ):     22.6151358      6.1852428      4.8568843
 Leave Link  202 at Wed May 12 11:58:34 2021, MaxMem=  2147483648 cpu:         0.0
 (Enter /opt/cluster/programs/g09_d.01/g09/l601.exe)
 Copying SCF densities to generalized density rwf, IOpCl= 0 IROHF=0.

 **********************************************************************

            Population analysis using the SCF density.

 **********************************************************************

 Orbital symmetries:
       Occupied  (A) (A) (A) (A) (A) (A) (A) (A) (A) (A) (A) (A)
                 (A) (A) (A)
       Virtual   (A) (A) (A) (A) (A) (A) (A) (A) (A) (A) (A) (A)
                 (A) (A) (A) (A) (A) (A) (A) (A) (A) (A) (A) (A)
                 (A) (A) (A) (A) (A) (A) (A) (A) (A) (A) (A) (A)
                 (A) (A) (A) (A) (A) (A) (A) (A) (A)
 The electronic state is 1-A.
 Alpha  occ. eigenvalues --  -19.28621 -10.40395 -10.33215 -10.32803  -1.16897
 Alpha  occ. eigenvalues --   -0.90958  -0.76980  -0.65049  -0.61550  -0.54483
 Alpha  occ. eigenvalues --   -0.52270  -0.49499  -0.47651  -0.37615  -0.35258
 Alpha virt. eigenvalues --   -0.01691   0.07031   0.08193   0.09877   0.10436
 Alpha virt. eigenvalues --    0.12003   0.12606   0.13042   0.15097   0.15964
 Alpha virt. eigenvalues --    0.17593   0.18222   0.20247   0.22178   0.25891
 Alpha virt. eigenvalues --    0.28128   0.32122   0.32711   0.33074   0.33579
 Alpha virt. eigenvalues --    0.36441   0.39961   0.41619   0.46282   0.54445
 Alpha virt. eigenvalues --    0.71618   0.73128   0.77152   0.79343   0.80652
 Alpha virt. eigenvalues --    0.82744   0.88812   0.99766   1.02637   1.05681
 Alpha virt. eigenvalues --    1.10722   1.14526   1.23019   1.25196   1.29944
 Alpha virt. eigenvalues --    1.30781   1.40082   1.41397   1.46064   1.94049
          Condensed to atoms (all electrons):
               1          2          3          4          5          6
     1  C    5.150874   0.341409   0.095175   0.059360   0.044221   0.357321
     2  C    0.341409   6.069776  -0.178348  -0.236475  -0.191716  -0.026268
     3  C    0.095175  -0.178348   5.229465   0.334517   0.415752   0.013481
     4  O    0.059360  -0.236475   0.334517   8.350085  -0.071085   0.000969
     5  H    0.044221  -0.191716   0.415752  -0.071085   0.623882  -0.000050
     6  H    0.357321  -0.026268   0.013481   0.000969  -0.000050   0.473638
     7  H    0.389024  -0.048945   0.004606   0.000384   0.000118  -0.022217
     8  H    0.000066   0.296197   0.012297   0.004860   0.000854  -0.002716
               7          8
     1  C    0.389024   0.000066
     2  C   -0.048945   0.296197
     3  C    0.004606   0.012297
     4  O    0.000384   0.004860
     5  H    0.000118   0.000854
     6  H   -0.022217  -0.002716
     7  H    0.438011   0.002465
     8  H    0.002465   0.473755
 Mulliken charges:
               1
     1  C   -0.437452
     2  C   -0.025630
     3  C    0.073055
     4  O   -0.442614
     5  H    0.178023
     6  H    0.205842
     7  H    0.236554
     8  H    0.212222
 Sum of Mulliken charges =   0.00000
 Mulliken charges with hydrogens summed into heavy atoms:
               1
     1  C    0.004944
     2  C    0.186592
     3  C    0.251078
     4  O   -0.442614
 Electronic spatial extent (au):  <R**2>=            271.2794
 Charge=              0.0000 electrons
 Dipole moment (field-independent basis, Debye):
    X=             -2.5333    Y=              1.9899    Z=              0.0003  Tot=              3.2214
 Quadrupole moment (field-independent basis, Debye-Ang):
   XX=            -24.7840   YY=            -22.4588   ZZ=            -25.3332
   XY=              3.7452   XZ=             -0.0001   YZ=              0.0000
 Traceless Quadrupole moment (field-independent basis, Debye-Ang):
   XX=             -0.5920   YY=              1.7332   ZZ=             -1.1412
   XY=              3.7452   XZ=             -0.0001   YZ=              0.0000
 Octapole moment (field-independent basis, Debye-Ang**2):
  XXX=             -9.2822  YYY=              0.2468  ZZZ=             -0.0001  XYY=             -1.0595
  XXY=              3.4828  XXZ=              0.0011  XZZ=              3.6754  YZZ=             -0.9221
  YYZ=              0.0008  XYZ=              0.0003
 Hexadecapole moment (field-independent basis, Debye-Ang**3):
 XXXX=           -231.4712 YYYY=            -84.3077 ZZZZ=            -27.1904 XXXY=              7.5431
 XXXZ=              0.0020 YYYX=              0.0047 YYYZ=              0.0008 ZZZX=              0.0032
 ZZZY=              0.0003 XXYY=            -53.6596 XXZZ=            -46.7529 YYZZ=            -20.4579
 XXYZ=              0.0006 YYXZ=              0.0017 ZZXY=             -0.5157
 N-N= 1.039880339576D+02 E-N=-6.555042665410D+02  KE= 1.906864741705D+02
 No NMR shielding tensors so no spin-rotation constants.
 Leave Link  601 at Wed May 12 11:58:34 2021, MaxMem=  2147483648 cpu:         0.6
 (Enter /opt/cluster/programs/g09_d.01/g09/l9999.exe)
 1\1\GINC-NODE18\FOpt\RwB97XD\6-31+G\C3H4O1\BOITTIER\12-May-2021\0\\#p 
 wB97XD/6-31+G Opt=ModRedun\\L.pdb\\0,1\C,1.4771475938,0.46831634,0.000
 0310272\C,0.6704963806,-0.6024060968,-0.0000831921\C,-0.800833279,-0.4
 75054282,-0.0001266606\O,-1.4076014727,0.6043262795,-0.0000804018\H,-1
 .3692520407,-1.4172447238,0.0002733983\H,2.5572372286,0.3693480291,0.0
 001015798\H,1.0609140056,1.4719861247,0.0000423144\H,1.0716335837,-1.6
 123796708,-0.0000360652\\Version=ES64L-G09RevD.01\State=1-A\HF=-191.79
 32561\RMSD=5.776e-09\RMSF=3.577e-05\Dipole=0.9947588,-0.7853182,0.0001
 097\Quadrupole=-0.426609,1.2750688,-0.8484597,2.788642,0.0000616,0.000
 0103\PG=C01 [X(C3H4O1)]\\@



 IN THIS SHORT LIFE

 THAT ONLY LASTS AN HOUR

 HOW MUCH, HOW LITTLE, IS WITHIN OUR POWER....


 EMILY DICKINSON BOLTS OF MELODY NO. 521
 Job cpu time:       0 days  0 hours  1 minutes 23.8 seconds.
 File lengths (MBytes):  RWF=      5 Int=      0 D2E=      0 Chk=      2 Scr=      1
 Normal termination of Gaussian 09 at Wed May 12 11:58:34 2021.
