L.pdb                                                                   
FOpt      RwB97XD                                                     6-31+G              
Number of atoms                            I                8
Info1-9                                    I   N=           9
          19          19           0           0           0         110
           2          18        -802
Charge                                     I                0
Multiplicity                               I                1
Number of electrons                        I               30
Number of alpha electrons                  I               15
Number of beta electrons                   I               15
Number of basis functions                  I               60
Number of independent functions            I               60
Number of point charges in /Mol/           I                0
Number of translation vectors              I                0
Atomic numbers                             I   N=           8
           6           6           6           8           1           1
           1           1
Nuclear charges                            R   N=           8
  6.00000000E+00  6.00000000E+00  6.00000000E+00  8.00000000E+00  1.00000000E+00
  1.00000000E+00  1.00000000E+00  1.00000000E+00
Current cartesian coordinates              R   N=          24
 -2.78038930E+00 -8.92285185E-01  1.42722034E-04 -1.26095953E+00  1.13478429E+00
 -7.31211978E-05  1.52002703E+00  9.00879716E-01 -1.55264841E-04  2.67160472E+00
 -1.13606229E+00 -6.78484195E-05  2.58985412E+00  2.68396593E+00  6.00737000E-04
 -4.82191124E+00 -7.10221347E-01  2.76047086E-04 -1.98921636E+00 -2.78702971E+00
  1.64051620E-04 -2.02363347E+00  3.04151052E+00  1.59356845E-05
Force Field                                I                0
Int Atom Types                             I   N=           8
           0           0           0           0           0           0
           0           0
MM charges                                 R   N=           8
  0.00000000E+00  0.00000000E+00  0.00000000E+00  0.00000000E+00  0.00000000E+00
  0.00000000E+00  0.00000000E+00  0.00000000E+00
Integer atomic weights                     I   N=           8
          12          12          12          16           1           1
           1           1
Real atomic weights                        R   N=           8
  1.20000000E+01  1.20000000E+01  1.20000000E+01  1.59949146E+01  1.00782504E+00
  1.00782504E+00  1.00782504E+00  1.00782504E+00
Atom fragment info                         I   N=           8
           0           0           0           0           0           0
           0           0
Atom residue num                           I   N=           8
           0           0           0           0           0           0
           0           0
Nuclear spins                              I   N=           8
           0           0           0           0           1           1
           1           1
Nuclear ZEff                               R   N=           8
 -3.60000000E+00 -3.60000000E+00 -3.60000000E+00 -5.60000000E+00 -1.00000000E+00
 -1.00000000E+00 -1.00000000E+00 -1.00000000E+00
Nuclear ZNuc                               R   N=           8
  6.00000000E+00  6.00000000E+00  6.00000000E+00  8.00000000E+00  1.00000000E+00
  1.00000000E+00  1.00000000E+00  1.00000000E+00
Nuclear QMom                               R   N=           8
  0.00000000E+00  0.00000000E+00  0.00000000E+00  0.00000000E+00  0.00000000E+00
  0.00000000E+00  0.00000000E+00  0.00000000E+00
Nuclear GFac                               R   N=           8
  0.00000000E+00  0.00000000E+00  0.00000000E+00  0.00000000E+00  2.79284600E+00
  2.79284600E+00  2.79284600E+00  2.79284600E+00
MicOpt                                     I   N=           8
          -1          -1          -1          -1          -1          -1
          -1          -1
Number of contracted shells                I               24
Number of primitive shells                 I               60
Pure/Cartesian d shells                    I                1
Pure/Cartesian f shells                    I                0
Highest angular momentum                   I                1
Largest degree of contraction              I                6
Shell types                                I   N=          24
           0          -1          -1          -1           0          -1
          -1          -1           0          -1          -1          -1
           0          -1          -1          -1           0           0
           0           0           0           0           0           0
Number of primitives per shell             I   N=          24
           6           3           1           1           6           3
           1           1           6           3           1           1
           6           3           1           1           3           1
           3           1           3           1           3           1
Shell to atom map                          I   N=          24
           1           1           1           1           2           2
           2           2           3           3           3           3
           4           4           4           4           5           5
           6           6           7           7           8           8
Primitive exponents                        R   N=          60
  3.04752488E+03  4.57369518E+02  1.03948685E+02  2.92101553E+01  9.28666296E+00
  3.16392696E+00  7.86827235E+00  1.88128854E+00  5.44249258E-01  1.68714478E-01
  4.38000000E-02  3.04752488E+03  4.57369518E+02  1.03948685E+02  2.92101553E+01
  9.28666296E+00  3.16392696E+00  7.86827235E+00  1.88128854E+00  5.44249258E-01
  1.68714478E-01  4.38000000E-02  3.04752488E+03  4.57369518E+02  1.03948685E+02
  2.92101553E+01  9.28666296E+00  3.16392696E+00  7.86827235E+00  1.88128854E+00
  5.44249258E-01  1.68714478E-01  4.38000000E-02  5.48467166E+03  8.25234946E+02
  1.88046958E+02  5.29645000E+01  1.68975704E+01  5.79963534E+00  1.55396162E+01
  3.59993359E+00  1.01376175E+00  2.70005823E-01  8.45000000E-02  1.87311370E+01
  2.82539436E+00  6.40121692E-01  1.61277759E-01  1.87311370E+01  2.82539436E+00
  6.40121692E-01  1.61277759E-01  1.87311370E+01  2.82539436E+00  6.40121692E-01
  1.61277759E-01  1.87311370E+01  2.82539436E+00  6.40121692E-01  1.61277759E-01
Contraction coefficients                   R   N=          60
  1.83473713E-03  1.40373228E-02  6.88426223E-02  2.32184443E-01  4.67941348E-01
  3.62311985E-01 -1.19332420E-01 -1.60854152E-01  1.14345644E+00  1.00000000E+00
  1.00000000E+00  1.83473713E-03  1.40373228E-02  6.88426223E-02  2.32184443E-01
  4.67941348E-01  3.62311985E-01 -1.19332420E-01 -1.60854152E-01  1.14345644E+00
  1.00000000E+00  1.00000000E+00  1.83473713E-03  1.40373228E-02  6.88426223E-02
  2.32184443E-01  4.67941348E-01  3.62311985E-01 -1.19332420E-01 -1.60854152E-01
  1.14345644E+00  1.00000000E+00  1.00000000E+00  1.83107443E-03  1.39501722E-02
  6.84450781E-02  2.32714336E-01  4.70192898E-01  3.58520853E-01 -1.10777550E-01
 -1.48026263E-01  1.13076702E+00  1.00000000E+00  1.00000000E+00  3.34946043E-02
  2.34726953E-01  8.13757326E-01  1.00000000E+00  3.34946043E-02  2.34726953E-01
  8.13757326E-01  1.00000000E+00  3.34946043E-02  2.34726953E-01  8.13757326E-01
  1.00000000E+00  3.34946043E-02  2.34726953E-01  8.13757326E-01  1.00000000E+00
P(S=P) Contraction coefficients            R   N=          60
  0.00000000E+00  0.00000000E+00  0.00000000E+00  0.00000000E+00  0.00000000E+00
  0.00000000E+00  6.89990666E-02  3.16423961E-01  7.44308291E-01  1.00000000E+00
  1.00000000E+00  0.00000000E+00  0.00000000E+00  0.00000000E+00  0.00000000E+00
  0.00000000E+00  0.00000000E+00  6.89990666E-02  3.16423961E-01  7.44308291E-01
  1.00000000E+00  1.00000000E+00  0.00000000E+00  0.00000000E+00  0.00000000E+00
  0.00000000E+00  0.00000000E+00  0.00000000E+00  6.89990666E-02  3.16423961E-01
  7.44308291E-01  1.00000000E+00  1.00000000E+00  0.00000000E+00  0.00000000E+00
  0.00000000E+00  0.00000000E+00  0.00000000E+00  0.00000000E+00  7.08742682E-02
  3.39752839E-01  7.27158577E-01  1.00000000E+00  1.00000000E+00  0.00000000E+00
  0.00000000E+00  0.00000000E+00  0.00000000E+00  0.00000000E+00  0.00000000E+00
  0.00000000E+00  0.00000000E+00  0.00000000E+00  0.00000000E+00  0.00000000E+00
  0.00000000E+00  0.00000000E+00  0.00000000E+00  0.00000000E+00  0.00000000E+00
Coordinates of each shell                  R   N=          72
 -2.78038930E+00 -8.92285185E-01  1.42722034E-04 -2.78038930E+00 -8.92285185E-01
  1.42722034E-04 -2.78038930E+00 -8.92285185E-01  1.42722034E-04 -2.78038930E+00
 -8.92285185E-01  1.42722034E-04 -1.26095953E+00  1.13478429E+00 -7.31211978E-05
 -1.26095953E+00  1.13478429E+00 -7.31211978E-05 -1.26095953E+00  1.13478429E+00
 -7.31211978E-05 -1.26095953E+00  1.13478429E+00 -7.31211978E-05  1.52002703E+00
  9.00879716E-01 -1.55264841E-04  1.52002703E+00  9.00879716E-01 -1.55264841E-04
  1.52002703E+00  9.00879716E-01 -1.55264841E-04  1.52002703E+00  9.00879716E-01
 -1.55264841E-04  2.67160472E+00 -1.13606229E+00 -6.78484195E-05  2.67160472E+00
 -1.13606229E+00 -6.78484195E-05  2.67160472E+00 -1.13606229E+00 -6.78484195E-05
  2.67160472E+00 -1.13606229E+00 -6.78484195E-05  2.58985412E+00  2.68396593E+00
  6.00737000E-04  2.58985412E+00  2.68396593E+00  6.00737000E-04 -4.82191124E+00
 -7.10221347E-01  2.76047086E-04 -4.82191124E+00 -7.10221347E-01  2.76047086E-04
 -1.98921636E+00 -2.78702971E+00  1.64051620E-04 -1.98921636E+00 -2.78702971E+00
  1.64051620E-04 -2.02363347E+00  3.04151052E+00  1.59356845E-05 -2.02363347E+00
  3.04151052E+00  1.59356845E-05
Constraint Structure                       R   N=          24
 -2.80414745E+00 -8.90527370E-01  5.79516014E-06 -1.26031452E+00  1.13029822E+00
 -4.90068977E-05  1.52078405E+00  9.01149510E-01 -2.44404580E-05  2.69691519E+00
 -1.13703562E+00  1.52437908E-05  2.58078090E+00  2.69502098E+00  1.43745168E-04
 -4.84560911E+00 -6.92602740E-01  1.68311608E-04 -2.03529762E+00 -2.79492926E+00
 -7.92425158E-05 -2.01312814E+00  3.04327380E+00  5.11485873E-05
Num ILSW                                   I              100
ILSW                                       I   N=         100
           0           1           0           0           2           0
           0           0           0           0        4639          -1
           0           0           0           0           2           0
           0           0           0           0           1           0
           1           0           0           0           0           0
           0           0      100000           0          -1           0
           0           0           0           0           0           0
           0           0           0           1           0           0
           0           0           1           0           0           0
           0           0         121          41           0           0
           0           0          58           0           0           0
           0           0           0           8           0           0
           0           0           0           0           0           0
           0           0           0           0           0           0
           0           0           0           0           0           0
           0           0           0           0           0           0
           0           0           0           0
Num RLSW                                   I               41
RLSW                                       R   N=          41
  1.00000000E+00  1.00000000E+00  1.00000000E+00  1.00000000E+00  1.00000000E+00
  0.00000000E+00  2.00000000E-01  2.22036000E-01  0.00000000E+00  7.77964000E-01
  0.00000000E+00  2.00000000E-01  0.00000000E+00  0.00000000E+00  1.00000000E+00
  0.00000000E+00  0.00000000E+00  1.00000000E+00  0.00000000E+00  0.00000000E+00
  0.00000000E+00  0.00000000E+00  1.00000000E+00  0.00000000E+00  0.00000000E+00
  0.00000000E+00  0.00000000E+00  1.00000000E+00  0.00000000E+00  0.00000000E+00
  0.00000000E+00  0.00000000E+00  1.00000000E+00  0.00000000E+00  0.00000000E+00
  0.00000000E+00  0.00000000E+00  0.00000000E+00  1.00000000E+00  1.00000000E+00
  0.00000000E+00
MxBond                                     I                3
NBond                                      I   N=           8
           3           3           3           1           1           1
           1           1
IBond                                      I   N=          24
           2           6           7           1           3           8
           2           4           5           3           0           0
           3           0           0           1           0           0
           1           0           0           2           0           0
RBond                                      R   N=          24
  2.00000000E+00  1.00000000E+00  1.00000000E+00  2.00000000E+00  1.00000000E+00
  1.00000000E+00  1.00000000E+00  2.00000000E+00  1.00000000E+00  2.00000000E+00
  0.00000000E+00  0.00000000E+00  1.00000000E+00  0.00000000E+00  0.00000000E+00
  1.00000000E+00  0.00000000E+00  0.00000000E+00  1.00000000E+00  0.00000000E+00
  0.00000000E+00  1.00000000E+00  0.00000000E+00  0.00000000E+00
Virial Ratio                               R      2.005804197367046E+00
SCF Energy                                 R     -1.917932561017863E+02
Total Energy                               R     -1.917932561017863E+02
RMS Force                                  R      3.576531910046426E-05
RMS Density                                R      5.775795093293349E-09
External E-field                           R   N=          35
  0.00000000E+00  0.00000000E+00  0.00000000E+00  0.00000000E+00  0.00000000E+00
  0.00000000E+00  0.00000000E+00  0.00000000E+00  0.00000000E+00  0.00000000E+00
  0.00000000E+00  0.00000000E+00  0.00000000E+00  0.00000000E+00  0.00000000E+00
  0.00000000E+00  0.00000000E+00  0.00000000E+00  0.00000000E+00  0.00000000E+00
  0.00000000E+00  0.00000000E+00  0.00000000E+00  0.00000000E+00  0.00000000E+00
  0.00000000E+00  0.00000000E+00  0.00000000E+00  0.00000000E+00  0.00000000E+00
  0.00000000E+00  0.00000000E+00  0.00000000E+00  0.00000000E+00  0.00000000E+00
IOpCl                                      I                0
IROHF                                      I                0
Alpha Orbital Energies                     R   N=          60
 -1.92862111E+01 -1.04039466E+01 -1.03321504E+01 -1.03280261E+01 -1.16896951E+00
 -9.09580667E-01 -7.69797508E-01 -6.50487339E-01 -6.15497971E-01 -5.44825281E-01
 -5.22702571E-01 -4.94989746E-01 -4.76511386E-01 -3.76154325E-01 -3.52577474E-01
 -1.69070366E-02  7.03132954E-02  8.19333950E-02  9.87749139E-02  1.04357232E-01
  1.20027753E-01  1.26061896E-01  1.30415502E-01  1.50973101E-01  1.59637022E-01
  1.75931127E-01  1.82221334E-01  2.02470738E-01  2.21784306E-01  2.58913055E-01
  2.81278347E-01  3.21217673E-01  3.27110587E-01  3.30740810E-01  3.35787377E-01
  3.64409163E-01  3.99610952E-01  4.16192810E-01  4.62818365E-01  5.44453705E-01
  7.16175668E-01  7.31281216E-01  7.71522317E-01  7.93429084E-01  8.06523539E-01
  8.27437290E-01  8.88124844E-01  9.97656447E-01  1.02637426E+00  1.05680631E+00
  1.10721966E+00  1.14526146E+00  1.23018518E+00  1.25196497E+00  1.29944319E+00
  1.30781090E+00  1.40082313E+00  1.41397193E+00  1.46063587E+00  1.94049118E+00
Alpha MO coefficients                      R   N=        3600
 -4.89867891E-06 -1.71132554E-05  1.28153666E-04  1.34801423E-04 -1.12541782E-08
  4.79092337E-03  1.25331434E-03  1.29350572E-03 -3.16671023E-07  2.32688135E-03
  1.38398857E-04  3.76450697E-05  9.15847839E-09  6.56518054E-05  3.69131516E-04
 -2.69357253E-04 -2.44986832E-04 -1.16246694E-08 -3.39393938E-03  8.86229196E-04
  5.90654187E-03 -1.70680846E-08  8.28450176E-03  3.23957545E-03  2.81997715E-04
  1.43324772E-07  2.02595002E-04  1.48403459E-04  1.62757089E-04  1.15573665E-04
  8.81827924E-08  7.51821008E-03  1.68509031E-03 -8.54630686E-03 -3.32147200E-07
 -1.44471726E-02  2.21839468E-03  1.86473695E-03 -7.31329856E-07  9.95231945E-01
  2.95520684E-02 -1.16440106E-03  1.85207698E-03 -1.24216977E-07 -2.24333732E-02
  3.14248907E-03 -4.36821260E-03  3.19648858E-07  7.69809556E-03 -6.67045844E-04
  2.72960371E-04  2.82130083E-07  2.96014069E-05  2.10002428E-03 -7.76082140E-05
 -1.91490048E-04 -1.32999209E-04 -4.58165592E-04 -3.41118073E-04 -2.11251332E-03
 -4.18473660E-05 -3.13915154E-04 -3.84180792E-05 -1.00264549E-04  1.10271762E-08
 -1.11935980E-04 -5.11341089E-04  1.04191170E-04 -6.66182787E-08 -1.25127283E-02
 -2.89635918E-03 -2.56322686E-03  3.78646224E-07  1.67520256E-03 -7.79609576E-04
 -5.70298041E-04  1.61452628E-05 -1.53687018E-09  6.13109041E-03  3.38941673E-03
 -7.77654479E-04  1.93471957E-07  1.01310058E-02 -1.33223863E-03 -1.49603122E-03
  5.17482933E-07  9.95446491E-01  3.61997076E-02  5.82445996E-04 -1.27723446E-03
  2.64632186E-07 -3.27773376E-02  7.96478246E-04  2.66268795E-03 -1.12316668E-06
 -2.03972812E-04 -2.08592189E-03 -1.00841636E-03 -7.26739943E-07 -1.21460712E-04
 -4.09234470E-05  3.17320044E-04 -5.20067657E-04  2.78492635E-08  1.30863524E-03
 -4.36133611E-04  1.54826489E-04  7.88647978E-08  1.16816747E-02 -3.14543618E-03
  5.25688978E-03  2.49908721E-07 -5.91375051E-04  3.50451019E-03 -6.57713997E-05
  3.45882474E-04 -5.58843452E-05 -8.71909953E-05 -6.32040891E-05 -1.40899705E-04
  9.90193468E-01  3.49832505E-02  1.97428569E-04  3.14993859E-04 -2.73808396E-08
 -2.95109795E-02 -1.86422490E-03 -2.85970264E-03  2.70250339E-07  2.07278738E-02
  3.65082722E-03  6.14364336E-03 -5.35486542E-07  1.00759723E-01  2.45882471E-03
  6.86793402E-04  9.30805990E-04 -9.88912495E-08  4.72162484E-03 -4.15028801E-03
 -4.10190880E-03  5.72512343E-07  1.50244843E-02  1.39310158E-02  7.40325160E-05
 -5.29741909E-07 -1.89232632E-04 -3.89834207E-04  2.56084201E-04  5.30705758E-05
  3.91504838E-08  1.02645409E-03 -1.88252557E-03  9.89099796E-05 -3.12969938E-07
 -3.57853569E-02  8.61242855E-03  1.14166332E-03 -6.19824374E-07  7.84385329E-06
  4.72837891E-05  6.65607142E-05 -2.87746123E-05 -5.83996967E-09 -3.28162002E-04
  7.04911075E-05  2.49037242E-04  2.22745705E-08  2.92099971E-03  3.10625164E-04
  6.39332993E-04  1.34185170E-07 -5.59983475E-05  1.13957490E-03 -7.42585270E-04
  4.34329174E-03 -6.65373911E-04  3.71217794E-03 -1.98641377E-04  5.57004902E-04
 -1.00997357E-01 -4.91743176E-03 -6.09966105E-04 -7.96162278E-04  8.57697846E-08
  1.38851748E-02  5.08279293E-03  3.69892817E-03 -5.43901952E-07 -4.55383781E-02
 -7.21471913E-03 -8.39521235E-03  1.01810135E-06  9.90289086E-01  3.63229234E-02
 -1.48781481E-05 -6.16815262E-04  1.29602836E-07 -3.63550097E-02 -1.19757546E-03
  6.17448881E-03 -4.44595365E-07  6.89349070E-02 -2.44738954E-04 -1.45461584E-02
  1.07735521E-06 -1.67848582E-03 -1.00502795E-03  6.15644539E-04 -8.27057091E-05
  2.31056086E-08  8.68783487E-03 -4.66485309E-03 -1.90941763E-03 -2.28463402E-08
 -2.21956404E-02  5.36080932E-03  2.19584670E-03 -5.49366053E-07  1.27983548E-05
  9.99311080E-05  5.08555694E-05 -8.38524662E-05  5.27650943E-09 -1.63180799E-03
  4.97937414E-04 -1.21801274E-04  2.82385192E-08  6.25883670E-04  6.68757294E-04
 -3.63113981E-04  1.52210084E-07 -8.33776314E-05  1.02982703E-03 -5.79767469E-05
  7.78209674E-04 -3.16950066E-04 -1.00658888E-03 -7.78809071E-04  2.50284132E-03
 -7.41629221E-03  1.19833495E-02  7.50636298E-03  3.68725143E-03 -6.27866232E-07
 -1.63709140E-02  1.74831248E-03 -1.01504860E-02  1.64745812E-06  2.05932335E-02
  1.11628448E-02  2.77702400E-03 -1.23272574E-06 -2.04488840E-02  3.79286492E-02
  2.66670186E-02 -1.09899027E-02  5.01796898E-07  1.83894354E-02 -1.43385139E-02
 -3.30443448E-02 -2.80024859E-07 -8.64751234E-02 -2.72696000E-02  6.74854998E-03
 -2.46742095E-06 -1.15926011E-01  2.36635549E-01  8.45063536E-02 -1.64256051E-01
  1.02586491E-05  4.83888621E-02 -2.80666597E-02  7.18179167E-02  5.84201390E-06
  7.34866567E-02 -6.50116294E-03 -3.80645112E-03  7.32225191E-06 -1.92307830E-01
  4.23474153E-01 -9.12826271E-02  1.55168268E-01 -5.64778835E-06  4.26068117E-01
 -4.14879769E-02  6.43341209E-02 -3.21536852E-06  4.54133754E-03 -3.17859323E-03
  7.58910670E-03 -3.94901996E-06  2.81904306E-02 -2.45194885E-02  2.17805856E-03
  4.62593359E-03  4.07616213E-03 -1.82439671E-03  6.07392369E-03  1.04264500E-02
 -1.40634102E-01  2.73406539E-01  6.69100119E-02  8.41562592E-02 -8.09136845E-06
  2.24080978E-01  9.28964040E-03  7.53748275E-03 -1.76250617E-06  2.63362396E-02
  6.58540995E-03  4.57223523E-04 -5.19102038E-07 -1.64011450E-01  3.19794217E-01
 -2.51946074E-02 -7.49418409E-02  1.25365411E-05  2.20839125E-01  3.60733545E-03
  2.69790142E-02  3.14572781E-06 -7.21675849E-02 -2.04685130E-02  1.76559235E-02
  1.94904220E-06 -4.86336888E-02  9.52017457E-02 -1.25365296E-01  5.35762226E-02
  7.27473684E-06  1.00483246E-01 -1.68008321E-02 -2.72239869E-02 -6.23407796E-07
  5.10196711E-02 -8.92675819E-03 -2.78763329E-03 -3.03196019E-06  4.44113307E-02
 -1.00043232E-01 -1.23370752E-02 -2.00792820E-02  2.94097962E-06 -1.28791963E-01
  3.15935986E-03 -1.35286883E-02  1.67492347E-06 -1.85066327E-02 -3.11895947E-04
 -7.61369156E-03  1.87588527E-06  2.61772955E-02  1.83544981E-02  7.00543599E-02
  8.39285336E-03  6.95913501E-02  5.65348225E-03  8.31606817E-02  5.75545084E-04
  1.26270034E-01 -2.51273740E-01  3.36751456E-02  1.38848889E-02  6.13641882E-07
 -2.28758212E-01  1.72637241E-02  1.15208332E-02 -5.83488700E-07  1.25188024E-01
  1.90883125E-02  2.79111414E-02 -3.23973437E-06 -5.07213977E-02  1.02166395E-01
  1.93202472E-01  1.22460845E-01 -7.35485394E-06  9.60355520E-02  3.97967575E-02
  2.78691917E-02 -2.71922968E-06 -8.01186114E-02  4.24192635E-02  2.54547786E-02
 -3.87787550E-06 -1.21068422E-01  2.53989646E-01 -9.94708721E-02  1.49114622E-01
  3.10437593E-05  2.50213851E-01 -1.21648909E-02  4.40786578E-02  1.38910207E-05
 -4.35497291E-02  9.79510183E-03  5.64979694E-03  1.95478173E-06  5.93320113E-02
 -1.38050914E-01 -1.48944324E-02  3.81458706E-02  8.96337690E-06 -1.65779003E-01
 -3.92718482E-03  1.25978452E-02  1.60604924E-06 -2.54610729E-02  6.61708239E-03
 -1.01251839E-02 -1.81846974E-06  1.24737543E-01  3.66419249E-02 -1.12195141E-01
 -3.58154061E-02 -9.83475927E-02 -2.93032983E-02  5.68050420E-02  2.15550216E-02
 -7.08394606E-02  1.43407349E-01 -1.06852133E-01 -1.92816982E-01  2.08859352E-05
  1.66531533E-01 -4.26627688E-02 -5.94912899E-02  9.61471803E-06 -6.86143567E-02
 -1.95600711E-02 -1.90494994E-02  2.09406871E-06  9.42345725E-02 -1.92640258E-01
  8.34441575E-02 -5.65961269E-02  5.33828779E-06 -1.93360623E-01  2.76788464E-02
 -4.81399871E-02 -1.79917946E-06  8.95769023E-02 -3.43348957E-04 -2.62588663E-02
  7.28476503E-07 -8.74619986E-02  1.90010502E-01  1.57040815E-01  1.47990444E-01
  6.45222086E-05  2.18997008E-01  5.93945875E-02  6.84630066E-02  2.99389856E-05
 -1.03209497E-02  9.02336591E-03  1.17316246E-02  3.70989896E-06  5.41404318E-02
 -1.26033817E-01  2.36684000E-02  1.34953992E-01  2.53070391E-05 -1.75476538E-01
  1.28349378E-02  5.02542546E-02  9.90804740E-06 -3.20625345E-02  1.32753881E-03
 -6.79644729E-03 -2.24743036E-06  1.82707610E-01  7.73027918E-02  1.15099373E-01
  4.96383674E-02  1.31485624E-01  5.95208322E-02 -1.32148036E-01 -4.92469519E-02
 -2.12318341E-03  4.77344920E-03 -2.06468089E-01  1.37908252E-01  1.36608911E-05
  8.79856705E-03 -8.82360720E-02  6.11341481E-02  5.56443514E-06  3.85488414E-02
 -1.18003916E-03  1.19586124E-02 -9.30011530E-07 -1.45537971E-02  2.39849346E-02
 -2.22137880E-01  2.21451236E-01  2.28176638E-05  6.12774300E-02 -5.70715089E-02
  7.52843036E-02  5.53587152E-06 -1.38578395E-02  4.74621060E-03  1.48276864E-02
 -1.93516507E-06  1.89332914E-02 -4.46581194E-02  2.32139607E-01  1.58190578E-01
  4.46024455E-05 -6.12020504E-02  8.76180507E-02  8.66114251E-02  2.18783178E-05
 -1.80776341E-02  1.76358734E-02  1.78146521E-03  5.04605053E-06 -2.51285222E-02
  5.68317167E-02  1.75918556E-01  3.49800208E-02  2.55653474E-05  1.02159962E-01
  8.09758678E-02  3.12675969E-02  1.04254770E-05  2.97054561E-02 -7.28266023E-03
  1.67371582E-03 -2.67639118E-06  1.04959633E-01  4.36951703E-02  1.15892943E-01
  5.47060582E-02 -1.04175514E-01 -4.76328516E-02  1.67494695E-01  9.67354438E-02
 -3.00087221E-03  1.13148002E-02  1.35278947E-01  2.84311924E-01 -2.48204049E-05
 -3.22643733E-02  3.09367426E-02  1.00539375E-01 -6.75229536E-06 -7.56087156E-02
  1.89784055E-03  1.76915096E-03 -1.72782367E-07 -7.32895525E-03  1.81064195E-02
 -2.00368112E-01 -2.40166814E-01  2.20045318E-05  4.39668155E-03 -5.39684890E-02
 -7.95784623E-02  5.45522528E-06  7.63472166E-02 -2.60354711E-02 -3.78463562E-02
  3.96012224E-06 -2.55510562E-02  7.54981237E-02  2.23644873E-01 -1.61061648E-01
  1.85890698E-05  8.50361565E-02  8.82674505E-02 -6.29175937E-02  7.76296565E-06
 -5.24221371E-04  1.50298571E-02  8.04655402E-03 -1.40609941E-06  6.53853437E-02
 -1.42163216E-01 -8.60280168E-02  3.30916787E-01 -9.39991152E-07 -2.79105153E-01
 -1.73613175E-02  1.28668423E-01  1.76388882E-06 -8.84853965E-02 -3.02282636E-04
  4.93546414E-03  1.44023881E-06  1.73981907E-02  9.83426761E-03 -6.63001514E-02
 -5.06838925E-02 -1.28678521E-01 -7.97275800E-02 -8.43381057E-02 -6.08056791E-02
 -1.22491904E-02  3.06809312E-02  3.22527535E-01  3.27905062E-02  1.32127132E-05
  2.53601720E-02  1.21253203E-01  3.45278234E-03  1.13541362E-05  2.50499934E-02
  1.18156677E-02  9.83969004E-03  1.54724410E-06 -1.41652468E-02  2.81140057E-02
 -1.04200561E-01 -1.68646085E-01  9.32178058E-05  4.60845141E-02  6.37749882E-05
 -4.13572717E-02  3.86278366E-05  9.06327182E-02  3.78309140E-02 -1.15829892E-04
 -1.98170694E-06  2.96482204E-02 -8.63145726E-02  1.08663644E-01  2.76269524E-01
  2.06098833E-04 -7.40327217E-02  9.17641970E-02  7.64363185E-02  1.02134987E-04
 -1.15066220E-01  4.50052311E-02  1.93213546E-03  1.10711760E-05 -4.60018769E-02
  1.00815081E-01  2.90219911E-01 -1.79153880E-01  2.12139032E-04  1.72740349E-01
  1.38931529E-01 -7.29731561E-02  1.21498335E-04  4.62552563E-02  3.58281032E-03
 -1.43793830E-02  3.93668639E-06  1.36927723E-01  9.56032111E-02 -1.92612630E-01
 -1.39344747E-01  6.91670858E-02  3.97516988E-02 -5.68282419E-02 -4.70066267E-02
  9.48324895E-06 -2.30425159E-05 -1.62063627E-04  3.69426845E-05  1.01877219E-01
 -4.71208098E-05 -5.64067489E-05  1.20895340E-05  5.72759768E-02 -2.95811164E-06
  2.31773528E-06 -7.41836438E-07  1.02698488E-02  8.25647612E-06 -1.43469348E-05
  7.34890722E-05  4.04800908E-05  1.80284113E-01 -5.47694991E-05 -1.47223382E-05
 -1.54307633E-05  8.89456034E-02 -1.60974838E-04 -4.81526753E-05 -5.76187510E-06
 -3.64613057E-03  3.74209106E-06 -7.30082158E-06 -1.24677149E-04 -1.50647256E-04
  3.70837210E-01  2.39936176E-05 -8.98208855E-05 -2.77268630E-05  1.97165497E-01
  1.55573079E-04 -5.94692309E-05  1.43926406E-05  2.79503057E-02  9.54404020E-06
 -1.94556032E-05 -2.10355060E-04  9.58524018E-06  4.35233698E-01 -3.45211783E-05
 -1.17372340E-04 -4.82540960E-06  2.62467788E-01 -4.12008122E-06 -4.80319176E-07
  7.18827245E-06  1.08896823E-02 -5.01827111E-05 -6.88380730E-05  1.06693342E-04
  8.96158885E-05 -7.05519649E-05 -4.68184475E-05 -5.83735963E-07  1.11934043E-05
 -5.41209352E-03  1.49943615E-02 -1.80956196E-01  2.68611308E-01 -2.41241603E-05
 -1.68601154E-02 -1.07809704E-01  1.33126789E-01 -1.13087980E-05 -8.11299798E-03
 -1.93615385E-02  2.18377747E-02 -1.69221663E-06  9.59217277E-03 -1.31769253E-02
  1.13783803E-01 -2.36770506E-01 -4.12087832E-05 -6.31465476E-02  5.80935094E-02
 -1.26460076E-01 -2.26818388E-05  4.58704715E-02  3.40907740E-02 -2.65643407E-02
 -1.40063057E-06 -1.86357244E-02  2.82730238E-02 -1.84761223E-01  1.40527057E-01
 -5.75122929E-05  6.64953502E-02 -6.43486962E-02  4.55201435E-02 -3.09945323E-05
 -5.18890963E-02  1.03360361E-02  4.48195630E-03 -4.75015468E-06 -2.80601393E-02
  5.98452348E-02  4.66075165E-02 -2.50568795E-01 -6.90022712E-05  1.17462198E-01
  1.33783123E-02 -1.17583881E-01 -4.46383489E-05  4.61083510E-02 -3.98979275E-04
 -1.57384930E-02 -2.52259950E-06  4.52325516E-02  3.34616735E-02  1.57009175E-01
  1.09971989E-01 -2.12348055E-01 -1.36068406E-01 -2.07709958E-01 -1.44655327E-01
 -2.26727153E-06  5.58850809E-06  3.49128287E-05  2.77296791E-05  3.70981360E-01
  6.14072624E-06  2.06805054E-05  1.46023573E-05  2.31159939E-01 -3.68866580E-05
 -6.58431587E-06 -4.30800935E-06  2.45357504E-02  5.65385824E-06 -1.35942063E-05
  1.33623580E-05  8.30821214E-07  3.70718020E-01 -1.15454793E-05  1.46610860E-05
  1.23478287E-05  2.61251742E-01  1.10751331E-04  2.33773438E-05 -5.65768160E-06
  6.45672674E-02 -1.61423972E-06  4.55890755E-06  9.93087612E-06  1.10324093E-05
 -5.15907107E-02 -3.79779223E-06  3.91678351E-06 -1.31146618E-05 -4.56427778E-02
 -7.27579808E-05  1.92387847E-05 -9.03309884E-06 -3.73310846E-02  3.74977296E-07
 -8.66151565E-07 -1.77981876E-05 -3.23451266E-05 -2.87802922E-01 -6.10113432E-06
 -1.03888297E-05 -2.16238579E-05 -1.96509664E-01 -5.62813668E-06 -2.90433708E-06
 -5.21207050E-06 -1.86678798E-02  8.48047263E-06  3.02530570E-05 -2.76696824E-06
 -1.98436599E-06 -3.12868359E-06 -3.34151103E-06 -1.45181457E-06 -1.20067713E-05
  2.53663260E-03 -2.46457993E-03 -3.80678717E-02 -5.04733488E-02  6.32019989E-05
 -1.79707883E-02 -8.88906259E-02 -2.45242736E-02  5.05633794E-05 -1.79815700E-01
 -6.07914445E-02 -2.15370109E-02  1.55328969E-05 -3.68590669E-02  6.85868134E-02
  2.19453578E-01 -2.77528640E-02  3.09313834E-05  3.16098712E-01  2.01628799E-01
 -5.15576006E-02  1.45462036E-05  3.78382006E-01  5.02896400E-02 -5.66039310E-02
 -4.11078185E-06  2.32678316E-03  1.40666174E-02 -1.30905002E-01 -7.46106168E-02
 -2.80469634E-05 -9.93586165E-02  9.78024633E-02 -1.06736197E-02  1.61716851E-06
 -1.94418387E-01  6.94533395E-02 -2.17331783E-02  4.97868220E-06 -2.51077479E-03
  7.88358790E-03  5.10725514E-01  2.91889649E-01  8.85264011E-05  2.27515480E-03
  3.47856036E-01  1.94687421E-01  6.10324990E-05 -2.60802722E-02  4.86612138E-02