 Entering Gaussian System, Link 0=/opt/cluster/programs/g09_d.01/g09//g09
 Input=/home/unibas/boittier/RDKit_G2/B.pdb/SCAN_1_2_3_4_S_17_20.0/5_SCAN_1_2_3_4_F/5_SCAN_B.pdb.com
 Output=/scratch/boittier/5_SCAN_B.pdb/5_SCAN_B.pdb.out
 Initial command:
 /opt/cluster/programs/g09_d.01/g09/l1.exe "/scratch/boittier/5_SCAN_B.pdb/Gau-194794.inp" -scrdir="/scratch/boittier/5_SCAN_B.pdb/"
 Entering Link 1 = /opt/cluster/programs/g09_d.01/g09/l1.exe PID=    194798.
  
 Copyright (c) 1988,1990,1992,1993,1995,1998,2003,2009,2013,
            Gaussian, Inc.  All Rights Reserved.
  
 This is part of the Gaussian(R) 09 program.  It is based on
 the Gaussian(R) 03 system (copyright 2003, Gaussian, Inc.),
 the Gaussian(R) 98 system (copyright 1998, Gaussian, Inc.),
 the Gaussian(R) 94 system (copyright 1995, Gaussian, Inc.),
 the Gaussian 92(TM) system (copyright 1992, Gaussian, Inc.),
 the Gaussian 90(TM) system (copyright 1990, Gaussian, Inc.),
 the Gaussian 88(TM) system (copyright 1988, Gaussian, Inc.),
 the Gaussian 86(TM) system (copyright 1986, Carnegie Mellon
 University), and the Gaussian 82(TM) system (copyright 1983,
 Carnegie Mellon University). Gaussian is a federally registered
 trademark of Gaussian, Inc.
  
 This software contains proprietary and confidential information,
 including trade secrets, belonging to Gaussian, Inc.
  
 This software is provided under written license and may be
 used, copied, transmitted, or stored only in accord with that
 written license.
  
 The following legend is applicable only to US Government
 contracts under FAR:
  
                    RESTRICTED RIGHTS LEGEND
  
 Use, reproduction and disclosure by the US Government is
 subject to restrictions as set forth in subparagraphs (a)
 and (c) of the Commercial Computer Software - Restricted
 Rights clause in FAR 52.227-19.
  
 Gaussian, Inc.
 340 Quinnipiac St., Bldg. 40, Wallingford CT 06492
  
  
 ---------------------------------------------------------------
 Warning -- This program may not be used in any manner that
 competes with the business of Gaussian, Inc. or will provide
 assistance to any competitor of Gaussian, Inc.  The licensee
 of this program is prohibited from giving any competitor of
 Gaussian, Inc. access to this program.  By using this program,
 the user acknowledges that Gaussian, Inc. is engaged in the
 business of creating and licensing software in the field of
 computational chemistry and represents and warrants to the
 licensee that it is not a competitor of Gaussian, Inc. and that
 it will not use this program in any manner prohibited above.
 ---------------------------------------------------------------
  

 Cite this work as:
 Gaussian 09, Revision D.01,
 M. J. Frisch, G. W. Trucks, H. B. Schlegel, G. E. Scuseria, 
 M. A. Robb, J. R. Cheeseman, G. Scalmani, V. Barone, B. Mennucci, 
 G. A. Petersson, H. Nakatsuji, M. Caricato, X. Li, H. P. Hratchian, 
 A. F. Izmaylov, J. Bloino, G. Zheng, J. L. Sonnenberg, M. Hada, 
 M. Ehara, K. Toyota, R. Fukuda, J. Hasegawa, M. Ishida, T. Nakajima, 
 Y. Honda, O. Kitao, H. Nakai, T. Vreven, J. A. Montgomery, Jr., 
 J. E. Peralta, F. Ogliaro, M. Bearpark, J. J. Heyd, E. Brothers, 
 K. N. Kudin, V. N. Staroverov, T. Keith, R. Kobayashi, J. Normand, 
 K. Raghavachari, A. Rendell, J. C. Burant, S. S. Iyengar, J. Tomasi, 
 M. Cossi, N. Rega, J. M. Millam, M. Klene, J. E. Knox, J. B. Cross, 
 V. Bakken, C. Adamo, J. Jaramillo, R. Gomperts, R. E. Stratmann, 
 O. Yazyev, A. J. Austin, R. Cammi, C. Pomelli, J. W. Ochterski, 
 R. L. Martin, K. Morokuma, V. G. Zakrzewski, G. A. Voth, 
 P. Salvador, J. J. Dannenberg, S. Dapprich, A. D. Daniels, 
 O. Farkas, J. B. Foresman, J. V. Ortiz, J. Cioslowski, 
 and D. J. Fox, Gaussian, Inc., Wallingford CT, 2013.
 
 ******************************************
 Gaussian 09:  ES64L-G09RevD.01 24-Apr-2013
                12-May-2021 
 ******************************************
 %chk=/home/unibas/boittier/RDKit_G2/B.pdb/SCAN_1_2_3_4_S_17_20.0/5_SCAN_1_2_3_4_
 F/B.pdb.chk
 %nproc=8
 Will use up to    8 processors via shared memory.
 %mem=16GB
 -----------------------------
 #p wB97XD/6-31+G Opt=ModRedun
 -----------------------------
 1/14=-1,18=120,19=15,26=3,38=1/1,3;
 2/9=110,12=2,17=6,18=5,40=1/2;
 3/5=1,6=6,7=10,11=2,16=1,25=1,30=1,71=1,74=-58/1,2,3;
 4//1;
 5/5=2,38=5/2;
 6/7=2,8=2,9=2,10=2,28=1/1;
 7//1,2,3,16;
 1/14=-1,18=20,19=15,26=3/3(2);
 2/9=110/2;
 99//99;
 2/9=110/2;
 3/5=1,6=6,7=10,11=2,16=1,25=1,30=1,71=1,74=-58/1,2,3;
 4/5=5,16=3,69=1/1;
 5/5=2,38=5/2;
 7//1,2,3,16;
 1/14=-1,18=20,19=15,26=3/3(-5);
 2/9=110/2;
 6/7=2,8=2,9=2,10=2,19=2,28=1/1;
 99/9=1/99;
 Leave Link    1 at Wed May 12 11:55:58 2021, MaxMem=  2147483648 cpu:         0.2
 (Enter /opt/cluster/programs/g09_d.01/g09/l101.exe)
 -----
 B.pdb
 -----
 Symbolic Z-matrix:
 Charge =  0 Multiplicity = 1
 C                    -1.21974  -1.17216  -0.01095 
 C                    -0.47561  -0.07006  -0.06978 
 C                     0.92622   0.12554  -0.47809 
 C                     1.97682  -0.12925   0.31614 
 H                    -2.26723  -1.13094   0.26325 
 H                    -0.77983  -2.13824  -0.22677 
 F                    -1.12438   1.18293   0.17533 
 H                     1.07436   0.58018  -1.45719 
 H                     1.85223  -0.53887   1.31471 
 H                     2.99372   0.05709  -0.01586 
 
 The following ModRedundant input section has been read:
 D       1       2       3       4 F                                           
 
 NAtoms=     10 NQM=       10 NQMF=       0 NMMI=      0 NMMIF=      0
                NMic=       0 NMicF=      0.
                    Isotopes and Nuclear Properties:
 (Nuclear quadrupole moments (NQMom) in fm**2, nuclear magnetic moments (NMagM)
  in nuclear magnetons)

  Atom         1           2           3           4           5           6           7           8           9          10
 IAtWgt=          12          12          12          12           1           1          19           1           1           1
 AtmWgt=  12.0000000  12.0000000  12.0000000  12.0000000   1.0078250   1.0078250  18.9984033   1.0078250   1.0078250   1.0078250
 NucSpn=           0           0           0           0           1           1           1           1           1           1
 AtZEff=   0.0000000   0.0000000   0.0000000   0.0000000   0.0000000   0.0000000   0.0000000   0.0000000   0.0000000   0.0000000
 NQMom=    0.0000000   0.0000000   0.0000000   0.0000000   0.0000000   0.0000000   0.0000000   0.0000000   0.0000000   0.0000000
 NMagM=    0.0000000   0.0000000   0.0000000   0.0000000   2.7928460   2.7928460   2.6288670   2.7928460   2.7928460   2.7928460
 AtZNuc=   6.0000000   6.0000000   6.0000000   6.0000000   1.0000000   1.0000000   9.0000000   1.0000000   1.0000000   1.0000000
 Leave Link  101 at Wed May 12 11:55:58 2021, MaxMem=  2147483648 cpu:         4.2
 (Enter /opt/cluster/programs/g09_d.01/g09/l103.exe)

 GradGradGradGradGradGradGradGradGradGradGradGradGradGradGradGradGradGrad
 Berny optimization.
 Initialization pass.
                           ----------------------------
                           !    Initial Parameters    !
                           ! (Angstroms and Degrees)  !
 --------------------------                            --------------------------
 ! Name  Definition              Value          Derivative Info.                !
 --------------------------------------------------------------------------------
 ! R1    R(1,2)                  1.3311         estimate D2E/DX2                !
 ! R2    R(1,5)                  1.0836         estimate D2E/DX2                !
 ! R3    R(1,6)                  1.0832         estimate D2E/DX2                !
 ! R4    R(2,3)                  1.4731         estimate D2E/DX2                !
 ! R5    R(2,7)                  1.4321         estimate D2E/DX2                !
 ! R6    R(3,4)                  1.3415         estimate D2E/DX2                !
 ! R7    R(3,8)                  1.0896         estimate D2E/DX2                !
 ! R8    R(4,9)                  1.0865         estimate D2E/DX2                !
 ! R9    R(4,10)                 1.0858         estimate D2E/DX2                !
 ! A1    A(2,1,5)              121.339          estimate D2E/DX2                !
 ! A2    A(2,1,6)              120.1711         estimate D2E/DX2                !
 ! A3    A(5,1,6)              118.4853         estimate D2E/DX2                !
 ! A4    A(1,2,3)              130.8563         estimate D2E/DX2                !
 ! A5    A(1,2,7)              117.6187         estimate D2E/DX2                !
 ! A6    A(3,2,7)              111.2452         estimate D2E/DX2                !
 ! A7    A(2,3,4)              123.7762         estimate D2E/DX2                !
 ! A8    A(2,3,8)              115.7113         estimate D2E/DX2                !
 ! A9    A(4,3,8)              120.3174         estimate D2E/DX2                !
 ! A10   A(3,4,9)              121.7326         estimate D2E/DX2                !
 ! A11   A(3,4,10)             121.3214         estimate D2E/DX2                !
 ! A12   A(9,4,10)             116.9436         estimate D2E/DX2                !
 ! D1    D(5,1,2,3)           -176.4611         estimate D2E/DX2                !
 ! D2    D(5,1,2,7)             -3.1389         estimate D2E/DX2                !
 ! D3    D(6,1,2,3)              4.3244         estimate D2E/DX2                !
 ! D4    D(6,1,2,7)            177.6467         estimate D2E/DX2                !
 ! D5    D(1,2,3,4)            -79.989          Frozen                          !
 ! D6    D(1,2,3,8)            105.0876         estimate D2E/DX2                !
 ! D7    D(7,2,3,4)            106.3579         estimate D2E/DX2                !
 ! D8    D(7,2,3,8)            -68.5655         estimate D2E/DX2                !
 ! D9    D(2,3,4,9)              2.398          estimate D2E/DX2                !
 ! D10   D(2,3,4,10)          -178.1793         estimate D2E/DX2                !
 ! D11   D(8,3,4,9)            177.0988         estimate D2E/DX2                !
 ! D12   D(8,3,4,10)            -3.4785         estimate D2E/DX2                !
 --------------------------------------------------------------------------------
 Trust Radius=3.00D-01 FncErr=1.00D-07 GrdErr=1.00D-06
 Number of steps in this run=     43 maximum allowed number of steps=    100.
 GradGradGradGradGradGradGradGradGradGradGradGradGradGradGradGradGradGrad

 Leave Link  103 at Wed May 12 11:55:58 2021, MaxMem=  2147483648 cpu:         0.1
 (Enter /opt/cluster/programs/g09_d.01/g09/l202.exe)
                          Input orientation:                          
 ---------------------------------------------------------------------
 Center     Atomic      Atomic             Coordinates (Angstroms)
 Number     Number       Type             X           Y           Z
 ---------------------------------------------------------------------
      1          6           0       -1.219735   -1.172164   -0.010950
      2          6           0       -0.475606   -0.070058   -0.069782
      3          6           0        0.926218    0.125544   -0.478094
      4          6           0        1.976823   -0.129253    0.316142
      5          1           0       -2.267226   -1.130936    0.263254
      6          1           0       -0.779830   -2.138236   -0.226771
      7          9           0       -1.124383    1.182929    0.175328
      8          1           0        1.074356    0.580182   -1.457188
      9          1           0        1.852225   -0.538873    1.314712
     10          1           0        2.993716    0.057087   -0.015856
 ---------------------------------------------------------------------
                    Distance matrix (angstroms):
                    1          2          3          4          5
     1  C    0.000000
     2  C    1.331100   0.000000
     3  C    2.550957   1.473122   0.000000
     4  C    3.378259   2.483314   1.341456   0.000000
     5  H    1.083570   2.108620   3.510901   4.360977   0.000000
     6  H    1.083231   2.096320   2.845780   3.453969   1.862022
     7  F    2.364372   1.432120   2.397913   3.370331   2.582207
     8  H    3.228804   2.179470   1.089617   2.112450   4.129651
     9  H    3.405198   2.748710   2.124404   1.086488   4.292549
    10  H    4.389106   3.472070   2.119646   1.085825   5.400631
                    6          7          8          9         10
     6  H    0.000000
     7  F    3.363114   0.000000
     8  H    3.513080   2.804080   0.000000
     9  H    3.444103   3.622567   3.088818   0.000000
    10  H    4.370764   4.273501   2.456626   1.851643   0.000000
 Stoichiometry    C4H5F
 Framework group  C1[X(C4H5F)]
 Deg. of freedom    24
 Full point group                 C1      NOp   1
 Largest Abelian subgroup         C1      NOp   1
 Largest concise Abelian subgroup C1      NOp   1
                         Standard orientation:                         
 ---------------------------------------------------------------------
 Center     Atomic      Atomic             Coordinates (Angstroms)
 Number     Number       Type             X           Y           Z
 ---------------------------------------------------------------------
      1          6           0       -1.219735    1.172164    0.010950
      2          6           0       -0.475606    0.070058    0.069782
      3          6           0        0.926218   -0.125544    0.478094
      4          6           0        1.976823    0.129253   -0.316142
      5          1           0       -2.267226    1.130936   -0.263254
      6          1           0       -0.779829    2.138236    0.226771
      7          9           0       -1.124383   -1.182929   -0.175328
      8          1           0        1.074356   -0.580182    1.457188
      9          1           0        1.852225    0.538873   -1.314712
     10          1           0        2.993716   -0.057088    0.015856
 ---------------------------------------------------------------------
 Rotational constants (GHZ):      8.7109645      3.8906097      2.9579502
 Leave Link  202 at Wed May 12 11:55:58 2021, MaxMem=  2147483648 cpu:         0.0
 (Enter /opt/cluster/programs/g09_d.01/g09/l301.exe)
 Standard basis: 6-31+G (6D, 7F)
 Ernie: Thresh=  0.10000D-02 Tol=  0.10000D-05 Strict=F.
 There are    75 symmetry adapted cartesian basis functions of A   symmetry.
 There are    75 symmetry adapted basis functions of A   symmetry.
    75 basis functions,   150 primitive gaussians,    75 cartesian basis functions
    19 alpha electrons       19 beta electrons
       nuclear repulsion energy       155.7480414507 Hartrees.
 IExCor= 4639 DFT=T Ex+Corr=wB97XD ExCW=0 ScaHFX=  1.000000
 ScaDFX=  1.000000  1.000000  1.000000  1.000000 ScalE2=  1.000000  1.000000
 IRadAn=      0 IRanWt=     -1 IRanGd=            0 ICorTp=0 IEmpDi=121
  HFx wShort=  0.000000 wLong=  0.200000 cFull=  0.222036 cShort=  0.000000 cLong=  0.777964
  DFx wShort=  0.000000 wLong=  0.200000 cFull=  0.000000 cShort=  0.000000 cLong=  1.000000
 NAtoms=   10 NActive=   10 NUniq=   10 SFac= 1.00D+00 NAtFMM=   60 NAOKFM=F Big=F
 Integral buffers will be    131072 words long.
 Raffenetti 2 integral format.
 Two-electron integral symmetry is turned on.
 R6Disp:  Grimme-D2 Dispersion energy=       -0.0029995398 Hartrees.
 Nuclear repulsion after empirical dispersion term =      155.7450419109 Hartrees.
 Leave Link  301 at Wed May 12 11:55:58 2021, MaxMem=  2147483648 cpu:         0.3
 (Enter /opt/cluster/programs/g09_d.01/g09/l302.exe)
 NPDir=0 NMtPBC=     1 NCelOv=     1 NCel=       1 NClECP=     1 NCelD=      1
         NCelK=      1 NCelE2=     1 NClLst=     1 CellRange=     0.0.
 One-electron integrals computed using PRISM.
 NBasis=    75 RedAO= T EigKep=  6.54D-05  NBF=    75
 NBsUse=    75 1.00D-06 EigRej= -1.00D+00 NBFU=    75
 Precomputing XC quadrature grid using
 IXCGrd= 4 IRadAn=           0 IRanWt=          -1 IRanGd=           0 AccXCQ= 0.00D+00.
 Generated NRdTot=       0 NPtTot=           0 NUsed=           0 NTot=          32
 NSgBfM=    75    75    75    75    75 MxSgAt=    10 MxSgA2=    10.
 Leave Link  302 at Wed May 12 11:55:59 2021, MaxMem=  2147483648 cpu:         0.9
 (Enter /opt/cluster/programs/g09_d.01/g09/l303.exe)
 DipDrv:  MaxL=1.
 Leave Link  303 at Wed May 12 11:55:59 2021, MaxMem=  2147483648 cpu:         0.2
 (Enter /opt/cluster/programs/g09_d.01/g09/l401.exe)
 ExpMin= 4.38D-02 ExpMax= 7.00D+03 ExpMxC= 1.05D+03 IAcc=2 IRadAn=         4 AccDes= 0.00D+00
 Harris functional with IExCor= 4639 and IRadAn=       4 diagonalized for initial guess.
 HarFok:  IExCor= 4639 AccDes= 0.00D+00 IRadAn=         4 IDoV= 1 UseB2=F ITyADJ=14
 ICtDFT=  3500011 ScaDFX=  1.000000  1.000000  1.000000  1.000000
 FoFCou: FMM=F IPFlag=           0 FMFlag=      100000 FMFlg1=           0
         NFxFlg=           0 DoJE=T BraDBF=F KetDBF=T FulRan=T
         wScrn=  0.000000 ICntrl=     500 IOpCl=  0 I1Cent=   200000004 NGrid=           0
         NMat0=    1 NMatS0=      1 NMatT0=    0 NMatD0=    1 NMtDS0=    0 NMtDT0=    0
 Petite list used in FoFCou.
 Harris En= -244.784615804406    
 JPrj=0 DoOrth=F DoCkMO=F.
 Leave Link  401 at Wed May 12 11:55:59 2021, MaxMem=  2147483648 cpu:         1.3
 (Enter /opt/cluster/programs/g09_d.01/g09/l502.exe)
 Closed shell SCF:
 Using DIIS extrapolation, IDIIS=  1040.
 Integral symmetry usage will be decided dynamically.
 Keep R1 ints in memory in canonical form, NReq=9056162.
 IVT=       36600 IEndB=       36600 NGot=  2147483648 MDV=  2139321699
 LenX=  2139321699 LenY=  2139315633
 Requested convergence on RMS density matrix=1.00D-08 within 128 cycles.
 Requested convergence on MAX density matrix=1.00D-06.
 Requested convergence on             energy=1.00D-06.
 No special actions if energy rises.
 FoFCou: FMM=F IPFlag=           0 FMFlag=           0 FMFlg1=           0
         NFxFlg=           0 DoJE=F BraDBF=F KetDBF=F FulRan=T
         wScrn=  0.000000 ICntrl=     600 IOpCl=  0 I1Cent=           0 NGrid=           0
         NMat0=    1 NMatS0=   2850 NMatT0=    0 NMatD0=    1 NMtDS0=    0 NMtDT0=    0
 Symmetry not used in FoFCou.

 Cycle   1  Pass 1  IDiag  1:
 E= -254.918013757948    
 DIIS: error= 5.28D-02 at cycle   1 NSaved=   1.
 NSaved= 1 IEnMin= 1 EnMin= -254.918013757948     IErMin= 1 ErrMin= 5.28D-02
 ErrMax= 5.28D-02  0.00D+00 EMaxC= 1.00D-01 BMatC= 2.71D-01 BMatP= 2.71D-01
 IDIUse=3 WtCom= 4.72D-01 WtEn= 5.28D-01
 Coeff-Com:  0.100D+01
 Coeff-En:   0.100D+01
 Coeff:      0.100D+01
 Gap=     0.482 Goal=   None    Shift=    0.000
 GapD=    0.482 DampG=2.000 DampE=0.500 DampFc=1.0000 IDamp=-1.
 RMSDP=1.75D-02 MaxDP=3.94D-01              OVMax= 1.96D-01

 Cycle   2  Pass 1  IDiag  1:
 E= -254.858430451837     Delta-E=        0.059583306111 Rises=F Damp=F
 DIIS: error= 5.40D-02 at cycle   2 NSaved=   2.
 NSaved= 2 IEnMin= 1 EnMin= -254.918013757948     IErMin= 1 ErrMin= 5.28D-02
 ErrMax= 5.40D-02  0.00D+00 EMaxC= 1.00D-01 BMatC= 3.36D-01 BMatP= 2.71D-01
 IDIUse=2 WtCom= 0.00D+00 WtEn= 1.00D+00
 Coeff-En:   0.569D+00 0.431D+00
 Coeff:      0.569D+00 0.431D+00
 Gap=     0.432 Goal=   None    Shift=    0.000
 RMSDP=6.25D-03 MaxDP=9.61D-02 DE= 5.96D-02 OVMax= 1.19D-01

 Cycle   3  Pass 1  IDiag  1:
 E= -255.092514977917     Delta-E=       -0.234084526080 Rises=F Damp=F
 DIIS: error= 3.81D-03 at cycle   3 NSaved=   3.
 NSaved= 3 IEnMin= 3 EnMin= -255.092514977917     IErMin= 3 ErrMin= 3.81D-03
 ErrMax= 3.81D-03  0.00D+00 EMaxC= 1.00D-01 BMatC= 1.60D-03 BMatP= 2.71D-01
 IDIUse=3 WtCom= 9.62D-01 WtEn= 3.81D-02
 Coeff-Com: -0.362D-02-0.710D-01 0.107D+01
 Coeff-En:   0.000D+00 0.000D+00 0.100D+01
 Coeff:     -0.348D-02-0.683D-01 0.107D+01
 Gap=     0.385 Goal=   None    Shift=    0.000
 RMSDP=2.23D-03 MaxDP=4.96D-02 DE=-2.34D-01 OVMax= 1.01D-02

 Cycle   4  Pass 1  IDiag  1:
 E= -255.093646938874     Delta-E=       -0.001131960956 Rises=F Damp=F
 DIIS: error= 1.65D-03 at cycle   4 NSaved=   4.
 NSaved= 4 IEnMin= 4 EnMin= -255.093646938874     IErMin= 4 ErrMin= 1.65D-03
 ErrMax= 1.65D-03  0.00D+00 EMaxC= 1.00D-01 BMatC= 2.08D-04 BMatP= 1.60D-03
 IDIUse=3 WtCom= 9.84D-01 WtEn= 1.65D-02
 Coeff-Com: -0.788D-02-0.406D-01 0.516D+00 0.532D+00
 Coeff-En:   0.000D+00 0.000D+00 0.000D+00 0.100D+01
 Coeff:     -0.775D-02-0.399D-01 0.508D+00 0.540D+00
 Gap=     0.387 Goal=   None    Shift=    0.000
 RMSDP=3.96D-04 MaxDP=8.47D-03 DE=-1.13D-03 OVMax= 4.79D-03

 Cycle   5  Pass 1  IDiag  1:
 E= -255.093852486969     Delta-E=       -0.000205548096 Rises=F Damp=F
 DIIS: error= 3.66D-04 at cycle   5 NSaved=   5.
 NSaved= 5 IEnMin= 5 EnMin= -255.093852486969     IErMin= 5 ErrMin= 3.66D-04
 ErrMax= 3.66D-04  0.00D+00 EMaxC= 1.00D-01 BMatC= 1.04D-05 BMatP= 2.08D-04
 IDIUse=3 WtCom= 9.96D-01 WtEn= 3.66D-03
 Coeff-Com: -0.195D-02-0.338D-02-0.188D-01 0.933D-01 0.931D+00
 Coeff-En:   0.000D+00 0.000D+00 0.000D+00 0.000D+00 0.100D+01
 Coeff:     -0.194D-02-0.337D-02-0.187D-01 0.929D-01 0.931D+00
 Gap=     0.387 Goal=   None    Shift=    0.000
 RMSDP=2.68D-04 MaxDP=5.53D-03 DE=-2.06D-04 OVMax= 2.31D-03

 Cycle   6  Pass 1  IDiag  1:
 E= -255.093868407744     Delta-E=       -0.000015920774 Rises=F Damp=F
 DIIS: error= 1.66D-04 at cycle   6 NSaved=   6.
 NSaved= 6 IEnMin= 6 EnMin= -255.093868407744     IErMin= 6 ErrMin= 1.66D-04
 ErrMax= 1.66D-04  0.00D+00 EMaxC= 1.00D-01 BMatC= 2.42D-06 BMatP= 1.04D-05
 IDIUse=3 WtCom= 9.98D-01 WtEn= 1.66D-03
 Coeff-Com:  0.418D-03 0.440D-02-0.865D-01-0.576D-01 0.398D+00 0.742D+00
 Coeff-En:   0.000D+00 0.000D+00 0.000D+00 0.000D+00 0.000D+00 0.100D+01
 Coeff:      0.417D-03 0.439D-02-0.863D-01-0.575D-01 0.397D+00 0.742D+00
 Gap=     0.387 Goal=   None    Shift=    0.000
 RMSDP=9.04D-05 MaxDP=1.85D-03 DE=-1.59D-05 OVMax= 5.23D-04

 Cycle   7  Pass 1  IDiag  1:
 E= -255.093871743666     Delta-E=       -0.000003335922 Rises=F Damp=F
 DIIS: error= 1.73D-05 at cycle   7 NSaved=   7.
 NSaved= 7 IEnMin= 7 EnMin= -255.093871743666     IErMin= 7 ErrMin= 1.73D-05
 ErrMax= 1.73D-05  0.00D+00 EMaxC= 1.00D-01 BMatC= 2.91D-08 BMatP= 2.42D-06
 IDIUse=1 WtCom= 1.00D+00 WtEn= 0.00D+00
 Coeff-Com:  0.785D-04-0.337D-03 0.676D-02-0.356D-02-0.511D-01-0.604D-01
 Coeff-Com:  0.111D+01
 Coeff:      0.785D-04-0.337D-03 0.676D-02-0.356D-02-0.511D-01-0.604D-01
 Coeff:      0.111D+01
 Gap=     0.387 Goal=   None    Shift=    0.000
 RMSDP=1.87D-05 MaxDP=2.68D-04 DE=-3.34D-06 OVMax= 1.86D-04

 Cycle   8  Pass 1  IDiag  1:
 E= -255.093871823377     Delta-E=       -0.000000079711 Rises=F Damp=F
 DIIS: error= 6.35D-06 at cycle   8 NSaved=   8.
 NSaved= 8 IEnMin= 8 EnMin= -255.093871823377     IErMin= 8 ErrMin= 6.35D-06
 ErrMax= 6.35D-06  0.00D+00 EMaxC= 1.00D-01 BMatC= 4.06D-09 BMatP= 2.91D-08
 IDIUse=1 WtCom= 1.00D+00 WtEn= 0.00D+00
 Coeff-Com:  0.113D-04-0.251D-03 0.514D-02 0.779D-03-0.292D-01-0.515D-01
 Coeff-Com:  0.303D+00 0.772D+00
 Coeff:      0.113D-04-0.251D-03 0.514D-02 0.779D-03-0.292D-01-0.515D-01
 Coeff:      0.303D+00 0.772D+00
 Gap=     0.387 Goal=   None    Shift=    0.000
 RMSDP=4.06D-06 MaxDP=7.39D-05 DE=-7.97D-08 OVMax= 3.33D-05

 Cycle   9  Pass 1  IDiag  1:
 E= -255.093871828796     Delta-E=       -0.000000005419 Rises=F Damp=F
 DIIS: error= 1.87D-06 at cycle   9 NSaved=   9.
 NSaved= 9 IEnMin= 9 EnMin= -255.093871828796     IErMin= 9 ErrMin= 1.87D-06
 ErrMax= 1.87D-06  0.00D+00 EMaxC= 1.00D-01 BMatC= 4.30D-10 BMatP= 4.06D-09
 IDIUse=1 WtCom= 1.00D+00 WtEn= 0.00D+00
 Coeff-Com: -0.431D-05-0.205D-05 0.200D-03 0.419D-03 0.148D-02-0.544D-02
 Coeff-Com: -0.750D-01 0.193D+00 0.886D+00
 Coeff:     -0.431D-05-0.205D-05 0.200D-03 0.419D-03 0.148D-02-0.544D-02
 Coeff:     -0.750D-01 0.193D+00 0.886D+00
 Gap=     0.387 Goal=   None    Shift=    0.000
 RMSDP=2.17D-06 MaxDP=4.55D-05 DE=-5.42D-09 OVMax= 2.10D-05

 Cycle  10  Pass 1  IDiag  1:
 E= -255.093871829581     Delta-E=       -0.000000000785 Rises=F Damp=F
 DIIS: error= 9.36D-07 at cycle  10 NSaved=  10.
 NSaved=10 IEnMin=10 EnMin= -255.093871829581     IErMin=10 ErrMin= 9.36D-07
 ErrMax= 9.36D-07  0.00D+00 EMaxC= 1.00D-01 BMatC= 6.74D-11 BMatP= 4.30D-10
 IDIUse=1 WtCom= 1.00D+00 WtEn= 0.00D+00
 Coeff-Com: -0.587D-06 0.195D-04-0.280D-03 0.675D-04 0.243D-02 0.566D-03
 Coeff-Com: -0.502D-01 0.209D-01 0.370D+00 0.657D+00
 Coeff:     -0.587D-06 0.195D-04-0.280D-03 0.675D-04 0.243D-02 0.566D-03
 Coeff:     -0.502D-01 0.209D-01 0.370D+00 0.657D+00
 Gap=     0.387 Goal=   None    Shift=    0.000
 RMSDP=2.83D-07 MaxDP=3.89D-06 DE=-7.85D-10 OVMax= 3.04D-06

 Cycle  11  Pass 1  IDiag  1:
 E= -255.093871829663     Delta-E=       -0.000000000082 Rises=F Damp=F
 DIIS: error= 8.93D-08 at cycle  11 NSaved=  11.
 NSaved=11 IEnMin=11 EnMin= -255.093871829663     IErMin=11 ErrMin= 8.93D-08
 ErrMax= 8.93D-08  0.00D+00 EMaxC= 1.00D-01 BMatC= 1.26D-12 BMatP= 6.74D-11
 IDIUse=1 WtCom= 1.00D+00 WtEn= 0.00D+00
 Coeff-Com:  0.483D-06-0.460D-06-0.323D-04-0.365D-04-0.376D-04 0.607D-03
 Coeff-Com:  0.890D-02-0.214D-01-0.969D-01-0.630D-01 0.117D+01
 Coeff:      0.483D-06-0.460D-06-0.323D-04-0.365D-04-0.376D-04 0.607D-03
 Coeff:      0.890D-02-0.214D-01-0.969D-01-0.630D-01 0.117D+01
 Gap=     0.387 Goal=   None    Shift=    0.000
 RMSDP=1.10D-07 MaxDP=1.21D-06 DE=-8.23D-11 OVMax= 1.53D-06

 Cycle  12  Pass 1  IDiag  1:
 E= -255.093871829668     Delta-E=       -0.000000000005 Rises=F Damp=F
 DIIS: error= 1.48D-08 at cycle  12 NSaved=  12.
 NSaved=12 IEnMin=12 EnMin= -255.093871829668     IErMin=12 ErrMin= 1.48D-08
 ErrMax= 1.48D-08  0.00D+00 EMaxC= 1.00D-01 BMatC= 2.69D-14 BMatP= 1.26D-12
 IDIUse=1 WtCom= 1.00D+00 WtEn= 0.00D+00
 Coeff-Com: -0.299D-07 0.365D-07 0.837D-05 0.918D-05-0.268D-04-0.128D-03
 Coeff-Com: -0.112D-02 0.464D-02 0.156D-01-0.940D-03-0.292D+00 0.127D+01
 Coeff:     -0.299D-07 0.365D-07 0.837D-05 0.918D-05-0.268D-04-0.128D-03
 Coeff:     -0.112D-02 0.464D-02 0.156D-01-0.940D-03-0.292D+00 0.127D+01
 Gap=     0.387 Goal=   None    Shift=    0.000
 RMSDP=2.47D-08 MaxDP=3.67D-07 DE=-5.46D-12 OVMax= 2.76D-07

 Cycle  13  Pass 1  IDiag  1:
 E= -255.093871829667     Delta-E=        0.000000000001 Rises=F Damp=F
 DIIS: error= 3.08D-09 at cycle  13 NSaved=  13.
 NSaved=13 IEnMin=12 EnMin= -255.093871829668     IErMin=13 ErrMin= 3.08D-09
 ErrMax= 3.08D-09  0.00D+00 EMaxC= 1.00D-01 BMatC= 5.48D-16 BMatP= 2.69D-14
 IDIUse=1 WtCom= 1.00D+00 WtEn= 0.00D+00
 Coeff-Com:  0.402D-10 0.104D-07-0.130D-05-0.174D-05 0.670D-05 0.176D-04
 Coeff-Com:  0.954D-04-0.699D-03-0.188D-02 0.167D-02 0.463D-01-0.302D+00
 Coeff-Com:  0.126D+01
 Coeff:      0.402D-10 0.104D-07-0.130D-05-0.174D-05 0.670D-05 0.176D-04
 Coeff:      0.954D-04-0.699D-03-0.188D-02 0.167D-02 0.463D-01-0.302D+00
 Coeff:      0.126D+01
 Gap=     0.387 Goal=   None    Shift=    0.000
 RMSDP=2.85D-09 MaxDP=3.39D-08 DE= 1.42D-12 OVMax= 4.30D-08

 SCF Done:  E(RwB97XD) =  -255.093871830     A.U. after   13 cycles
            NFock= 13  Conv=0.28D-08     -V/T= 2.0059
 KE= 2.536024726943D+02 PE=-9.091413526470D+02 EE= 2.446999662121D+02
 Leave Link  502 at Wed May 12 11:56:00 2021, MaxMem=  2147483648 cpu:        12.9
 (Enter /opt/cluster/programs/g09_d.01/g09/l601.exe)
 Copying SCF densities to generalized density rwf, IOpCl= 0 IROHF=0.

 **********************************************************************

            Population analysis using the SCF density.

 **********************************************************************

 Orbital symmetries:
       Occupied  (A) (A) (A) (A) (A) (A) (A) (A) (A) (A) (A) (A)
                 (A) (A) (A) (A) (A) (A) (A)
       Virtual   (A) (A) (A) (A) (A) (A) (A) (A) (A) (A) (A) (A)
                 (A) (A) (A) (A) (A) (A) (A) (A) (A) (A) (A) (A)
                 (A) (A) (A) (A) (A) (A) (A) (A) (A) (A) (A) (A)
                 (A) (A) (A) (A) (A) (A) (A) (A) (A) (A) (A) (A)
                 (A) (A) (A) (A) (A) (A) (A) (A)
 The electronic state is 1-A.
 Alpha  occ. eigenvalues --  -24.82562 -10.40272 -10.33253 -10.32288 -10.31101
 Alpha  occ. eigenvalues --   -1.29964  -0.92821  -0.86121  -0.73923  -0.65286
 Alpha  occ. eigenvalues --   -0.60641  -0.57366  -0.56292  -0.52302  -0.50515
 Alpha  occ. eigenvalues --   -0.48331  -0.45199  -0.38157  -0.35095
 Alpha virt. eigenvalues --    0.03611   0.05984   0.07724   0.08399   0.09540
 Alpha virt. eigenvalues --    0.11237   0.11756   0.13231   0.13883   0.14493
 Alpha virt. eigenvalues --    0.16213   0.17533   0.18211   0.18611   0.19614
 Alpha virt. eigenvalues --    0.19746   0.22857   0.24464   0.26599   0.28215
 Alpha virt. eigenvalues --    0.28755   0.31489   0.31735   0.38594   0.41707
 Alpha virt. eigenvalues --    0.42450   0.45302   0.46201   0.48589   0.50261
 Alpha virt. eigenvalues --    0.52570   0.69826   0.72539   0.75833   0.77899
 Alpha virt. eigenvalues --    0.80587   0.82334   0.84801   0.90199   0.92348
 Alpha virt. eigenvalues --    0.94270   1.01132   1.04874   1.06895   1.12772
 Alpha virt. eigenvalues --    1.13150   1.16023   1.21809   1.23816   1.32165
 Alpha virt. eigenvalues --    1.39665   1.47752   1.67755   1.81972   1.86001
 Alpha virt. eigenvalues --    2.35651
          Condensed to atoms (all electrons):
               1          2          3          4          5          6
     1  C    5.956629   0.187221  -0.238815  -0.039477   0.392102   0.320061
     2  C    0.187221   5.305239   0.256099  -0.004737  -0.055694   0.001749
     3  C   -0.238815   0.256099   5.320295   0.558746   0.010350   0.009893
     4  C   -0.039477  -0.004737   0.558746   5.108423   0.002974   0.008223
     5  H    0.392102  -0.055694   0.010350   0.002974   0.454875  -0.019942
     6  H    0.320061   0.001749   0.009893   0.008223  -0.019942   0.463186
     7  F   -0.180719   0.295685  -0.110502  -0.031728  -0.002663   0.003920
     8  H    0.016752  -0.041829   0.320005   0.013001  -0.000070   0.000162
     9  H    0.007212   0.003860  -0.054650   0.387828  -0.000017   0.000031
    10  H    0.003152   0.008919  -0.037829   0.375140   0.000002  -0.000013
               7          8          9         10
     1  C   -0.180719   0.016752   0.007212   0.003152
     2  C    0.295685  -0.041829   0.003860   0.008919
     3  C   -0.110502   0.320005  -0.054650  -0.037829
     4  C   -0.031728   0.013001   0.387828   0.375140
     5  H   -0.002663  -0.000070  -0.000017   0.000002
     6  H    0.003920   0.000162   0.000031  -0.000013
     7  F    9.298080   0.001706   0.000364  -0.000245
     8  H    0.001706   0.462506   0.002584  -0.003237
     9  H    0.000364   0.002584   0.467993  -0.023506
    10  H   -0.000245  -0.003237  -0.023506   0.478638
 Mulliken charges:
               1
     1  C   -0.424118
     2  C    0.043487
     3  C   -0.033592
     4  C   -0.378393
     5  H    0.218084
     6  H    0.212730
     7  F   -0.273899
     8  H    0.228421
     9  H    0.208302
    10  H    0.198980
 Sum of Mulliken charges =   0.00000
 Mulliken charges with hydrogens summed into heavy atoms:
               1
     1  C    0.006696
     2  C    0.043487
     3  C    0.194828
     4  C    0.028888
     7  F   -0.273899
 Electronic spatial extent (au):  <R**2>=            434.4794
 Charge=              0.0000 electrons
 Dipole moment (field-independent basis, Debye):
    X=              1.5290    Y=              1.8642    Z=              0.3937  Tot=              2.4430
 Quadrupole moment (field-independent basis, Debye-Ang):
   XX=            -26.8865   YY=            -31.5858   ZZ=            -29.5267
   XY=             -3.0279   XZ=              0.0065   YZ=             -1.4491
 Traceless Quadrupole moment (field-independent basis, Debye-Ang):
   XX=              2.4465   YY=             -2.2528   ZZ=             -0.1937
   XY=             -3.0279   XZ=              0.0065   YZ=             -1.4491
 Octapole moment (field-independent basis, Debye-Ang**2):
  XXX=             -1.7443  YYY=             -1.8799  ZZZ=             -0.7967  XYY=             -3.5328
  XXY=              0.8366  XXZ=             -2.1689  XZZ=              0.6519  YZZ=             -4.6040
  YYZ=              0.8526  XYZ=             -1.2042
 Hexadecapole moment (field-independent basis, Debye-Ang**3):
 XXXX=           -313.4586 YYYY=           -141.9407 ZZZZ=            -56.9450 XXXY=             -1.3404
 XXXZ=              4.6845 YYYX=              3.4789 YYYZ=              2.1872 ZZZX=              1.3111
 ZZZY=             -2.1406 XXYY=            -88.9367 XXZZ=            -69.0600 YYZZ=            -36.0321
 XXYZ=             -4.7821 YYXZ=              0.1776 ZZXY=              4.3379
 N-N= 1.557450419109D+02 E-N=-9.091413526669D+02  KE= 2.536024726943D+02
 No NMR shielding tensors so no spin-rotation constants.
 Leave Link  601 at Wed May 12 11:56:01 2021, MaxMem=  2147483648 cpu:         0.6
 (Enter /opt/cluster/programs/g09_d.01/g09/l701.exe)
 Compute integral first derivatives.
 ... and contract with generalized density number  0.
 R6Disp: Adding Grimme-D2 dispersion energy 1st derivatives to the gradient.
 Leave Link  701 at Wed May 12 11:56:01 2021, MaxMem=  2147483648 cpu:         0.6
 (Enter /opt/cluster/programs/g09_d.01/g09/l702.exe)
 L702 exits ... SP integral derivatives will be done elsewhere.
 Leave Link  702 at Wed May 12 11:56:01 2021, MaxMem=  2147483648 cpu:         0.2
 (Enter /opt/cluster/programs/g09_d.01/g09/l703.exe)
 Compute integral first derivatives, UseDBF=F ICtDFT=           0.
 Integral derivatives from FoFJK, PRISM(SPDF).
 Calling FoFJK, ICntrl=      2127 FMM=F ISym2X=0 I1Cent= 0 IOpClX= 0 NMat=1 NMatS=1 NMatT=0.
 FoFJK:  IHMeth= 1 ICntrl=    2127 DoSepK=T KAlg= 0 I1Cent=   0 FoldK=F
 IRaf=         1 NMat=   1 IRICut=       1 DoRegI=T DoRafI=F ISym2E= 0.
 FoFCou: FMM=F IPFlag=           0 FMFlag=      100000 FMFlg1=         800
         NFxFlg=           0 DoJE=F BraDBF=F KetDBF=F FulRan=T
         wScrn=  0.000000 ICntrl=    2527 IOpCl=  0 I1Cent=           0 NGrid=           0
         NMat0=    1 NMatS0=      1 NMatT0=    0 NMatD0=    1 NMtDS0=    0 NMtDT0=    0
 Symmetry not used in FoFCou.
 Leave Link  703 at Wed May 12 11:56:01 2021, MaxMem=  2147483648 cpu:         3.3
 (Enter /opt/cluster/programs/g09_d.01/g09/l716.exe)
 Dipole        = 6.01547976D-01 7.33429634D-01 1.54902975D-01
 ***** Axes restored to original set *****
 -------------------------------------------------------------------
 Center     Atomic                   Forces (Hartrees/Bohr)
 Number     Number              X              Y              Z
 -------------------------------------------------------------------
      1        6           0.003761287    0.002805938    0.003669750
      2        6          -0.007531682    0.000761751   -0.005132660
      3        6           0.004859313    0.004604147    0.005930950
      4        6          -0.003916137   -0.002782530   -0.003531059
      5        1           0.000591255    0.000495539   -0.000179663
      6        1           0.000455786    0.000700489    0.000032916
      7        9           0.003366468   -0.006040357   -0.000978137
      8        1          -0.000310674   -0.000662658    0.000755021
      9        1          -0.000494496    0.000056329   -0.000390327
     10        1          -0.000781120    0.000061352   -0.000176791
 -------------------------------------------------------------------
 Cartesian Forces:  Max     0.007531682 RMS     0.003092605
 Leave Link  716 at Wed May 12 11:56:01 2021, MaxMem=  2147483648 cpu:         0.2
 (Enter /opt/cluster/programs/g09_d.01/g09/l103.exe)

 GradGradGradGradGradGradGradGradGradGradGradGradGradGradGradGradGradGrad
 Berny optimization.
 FormGI is forming the generalized inverse of G from B-inverse, IUseBI=4.
 Internal  Forces:  Max     0.006976085 RMS     0.002202372
 Search for a local minimum.
 Step number   1 out of a maximum of   43
 All quantities printed in internal units (Hartrees-Bohrs-Radians)
 RMS Force = .20093D-02 SwitMx=.10000D-02 MixMth= 1
 Mixed Optimization -- RFO/linear search
 Second derivative matrix not updated -- first step.
 ITU=  0
     Eigenvalues ---    0.01615   0.02093   0.02863   0.02863   0.03000
     Eigenvalues ---    0.03001   0.15959   0.16000   0.16000   0.16000
     Eigenvalues ---    0.16000   0.22010   0.24922   0.25000   0.34857
     Eigenvalues ---    0.35222   0.35300   0.35369   0.35566   0.35607
     Eigenvalues ---    0.40686   0.56880   0.592471000.000001000.00000
     Eigenvalues --- 1000.000001000.000001000.000001000.000001000.00000
     Eigenvalues --- 1000.000001000.000001000.00000
 RFO step:  Lambda=-2.90422650D-04 EMin= 1.61549716D-02
 Linear search not attempted -- first point.
 Iteration  1 RMS(Cart)=  0.01133480 RMS(Int)=  0.00003254
 Iteration  2 RMS(Cart)=  0.00003363 RMS(Int)=  0.00000269
 Iteration  3 RMS(Cart)=  0.00000000 RMS(Int)=  0.00000269
 Iteration  1 RMS(Cart)=  0.00000071 RMS(Int)=  0.00000051
 ITry= 1 IFail=0 DXMaxC= 3.48D-02 DCOld= 1.00D+10 DXMaxT= 3.00D-01 DXLimC= 3.00D+00 Rises=F
 Variable       Old X    -DE/DX   Delta X   Delta X   Delta X     New X
                                 (Linear)    (Quad)   (Total)
    R1        2.51541  -0.00585   0.00000  -0.00987  -0.00987   2.50555
    R2        2.04765  -0.00059   0.00000  -0.00167  -0.00167   2.04598
    R3        2.04701  -0.00045   0.00000  -0.00127  -0.00127   2.04574
    R4        2.78380  -0.00115   0.00000  -0.00325  -0.00325   2.78055
    R5        2.70631  -0.00698   0.00000  -0.01713  -0.01713   2.68918
    R6        2.53498  -0.00599   0.00000  -0.01053  -0.01053   2.52445
    R7        2.05908  -0.00099   0.00000  -0.00285  -0.00285   2.05623
    R8        2.05316  -0.00033   0.00000  -0.00093  -0.00093   2.05223
    R9        2.05191  -0.00066   0.00000  -0.00188  -0.00188   2.05003
    A1        2.11777  -0.00023   0.00000  -0.00146  -0.00146   2.11631
    A2        2.09738  -0.00060   0.00000  -0.00374  -0.00374   2.09365
    A3        2.06796   0.00083   0.00000   0.00519   0.00519   2.07315
    A4        2.28387  -0.00069   0.00000  -0.00275  -0.00276   2.28111
    A5        2.05283   0.00077   0.00000   0.00263   0.00262   2.05546
    A6        1.94159   0.00010   0.00000   0.00073   0.00073   1.94232
    A7        2.16030  -0.00160   0.00000  -0.00733  -0.00734   2.15296
    A8        2.01954   0.00058   0.00000   0.00263   0.00263   2.02217
    A9        2.09993   0.00117   0.00000   0.00514   0.00514   2.10507
   A10        2.12463  -0.00042   0.00000  -0.00264  -0.00264   2.12200
   A11        2.11746  -0.00026   0.00000  -0.00160  -0.00160   2.11586
   A12        2.04105   0.00068   0.00000   0.00423   0.00423   2.04528
    D1       -3.07983  -0.00098   0.00000  -0.00176  -0.00176  -3.08159
    D2       -0.05478   0.00110   0.00000   0.00556   0.00557  -0.04922
    D3        0.07548  -0.00097   0.00000  -0.00128  -0.00128   0.07420
    D4        3.10052   0.00111   0.00000   0.00604   0.00604   3.10656
    D5       -1.39607   0.00388   0.00000   0.00000   0.00000  -1.39607
    D6        1.83412   0.00189   0.00000  -0.00603  -0.00602   1.82810
    D7        1.85630   0.00186   0.00000  -0.00707  -0.00707   1.84922
    D8       -1.19669  -0.00013   0.00000  -0.01310  -0.01310  -1.20979
    D9        0.04185  -0.00097   0.00000  -0.00106  -0.00107   0.04079
   D10       -3.10982  -0.00101   0.00000  -0.00247  -0.00248  -3.11229
   D11        3.09096   0.00108   0.00000   0.00507   0.00507   3.09603
   D12       -0.06071   0.00104   0.00000   0.00366   0.00366  -0.05705
         Item               Value     Threshold  Converged?
 Maximum Force            0.006976     0.000450     NO 
 RMS     Force            0.002009     0.000300     NO 
 Maximum Displacement     0.034763     0.001800     NO 
 RMS     Displacement     0.011339     0.001200     NO 
 Predicted change in Energy=-1.453805D-04
 Lowest energy point so far.  Saving SCF results.
 GradGradGradGradGradGradGradGradGradGradGradGradGradGradGradGradGradGrad

 Leave Link  103 at Wed May 12 11:56:01 2021, MaxMem=  2147483648 cpu:         0.1
 (Enter /opt/cluster/programs/g09_d.01/g09/l202.exe)
                          Input orientation:                          
 ---------------------------------------------------------------------
 Center     Atomic      Atomic             Coordinates (Angstroms)
 Number     Number       Type             X           Y           Z
 ---------------------------------------------------------------------
      1          6           0       -1.212335   -1.168272   -0.010516
      2          6           0       -0.474065   -0.068568   -0.070205
      3          6           0        0.925261    0.126509   -0.481131
      4          6           0        1.967066   -0.129523    0.314903
      5          1           0       -2.258099   -1.128444    0.266979
      6          1           0       -0.767302   -2.130651   -0.228943
      7          9           0       -1.116377    1.175759    0.183105
      8          1           0        1.073991    0.574353   -1.461588
      9          1           0        1.833829   -0.537304    1.312572
     10          1           0        2.984588    0.052362   -0.014380
 ---------------------------------------------------------------------
                    Distance matrix (angstroms):
                    1          2          3          4          5
     1  C    0.000000
     2  C    1.325878   0.000000
     3  C    2.543079   1.471404   0.000000
     4  C    3.360578   2.472073   1.335881   0.000000
     5  H    1.082688   2.102333   3.502622   4.341907   0.000000
     6  H    1.082561   2.088868   2.832515   3.431771   1.863553
     7  F    2.353971   1.423053   2.389648   3.350933   2.572920
     8  H    3.220192   2.178479   1.088109   2.109252   4.121927
     9  H    3.380502   2.730964   2.117431   1.085993   4.264573
    10  H    4.370826   3.461217   2.112861   1.084832   5.381378
                    6          7          8          9         10
     6  H    0.000000
     7  F    3.350221   0.000000
     8  H    3.496687   2.804356   0.000000
     9  H    3.417735   3.593604   3.083682   0.000000
    10  H    4.346063   4.256634   2.453012   1.852768   0.000000
 Stoichiometry    C4H5F
 Framework group  C1[X(C4H5F)]
 Deg. of freedom    24
 Full point group                 C1      NOp   1
 RotChk:  IX=0 Diff= 5.95D-03
 Largest Abelian subgroup         C1      NOp   1
 Largest concise Abelian subgroup C1      NOp   1
                         Standard orientation:                         
 ---------------------------------------------------------------------
 Center     Atomic      Atomic             Coordinates (Angstroms)
 Number     Number       Type             X           Y           Z
 ---------------------------------------------------------------------
      1          6           0       -1.214431    1.166902    0.010550
      2          6           0       -0.475384    0.067829    0.072197
      3          6           0        0.925042   -0.125051    0.480406
      4          6           0        1.964777    0.128866   -0.319005
      5          1           0       -2.260838    1.125534   -0.264285
      6          1           0       -0.769430    2.130273    0.224627
      7          9           0       -1.117583   -1.177719   -0.175329
      8          1           0        1.076394   -0.569471    1.462019
      9          1           0        1.828899    0.533173   -1.317731
     10          1           0        2.983195   -0.051317    0.008438
 ---------------------------------------------------------------------
 Rotational constants (GHZ):      8.7673362      3.9257403      2.9874017
 Leave Link  202 at Wed May 12 11:56:01 2021, MaxMem=  2147483648 cpu:         0.0
 (Enter /opt/cluster/programs/g09_d.01/g09/l301.exe)
 Standard basis: 6-31+G (6D, 7F)
 Ernie: Thresh=  0.10000D-02 Tol=  0.10000D-05 Strict=F.
 There are    75 symmetry adapted cartesian basis functions of A   symmetry.
 There are    75 symmetry adapted basis functions of A   symmetry.
    75 basis functions,   150 primitive gaussians,    75 cartesian basis functions
    19 alpha electrons       19 beta electrons
       nuclear repulsion energy       156.3425880555 Hartrees.
 IExCor= 4639 DFT=T Ex+Corr=wB97XD ExCW=0 ScaHFX=  1.000000
 ScaDFX=  1.000000  1.000000  1.000000  1.000000 ScalE2=  1.000000  1.000000
 IRadAn=      0 IRanWt=     -1 IRanGd=            0 ICorTp=0 IEmpDi=121
  HFx wShort=  0.000000 wLong=  0.200000 cFull=  0.222036 cShort=  0.000000 cLong=  0.777964
  DFx wShort=  0.000000 wLong=  0.200000 cFull=  0.000000 cShort=  0.000000 cLong=  1.000000
 NAtoms=   10 NActive=   10 NUniq=   10 SFac= 1.00D+00 NAtFMM=   60 NAOKFM=F Big=F
 Integral buffers will be    131072 words long.
 Raffenetti 2 integral format.
 Two-electron integral symmetry is turned on.
 R6Disp:  Grimme-D2 Dispersion energy=       -0.0030096240 Hartrees.
 Nuclear repulsion after empirical dispersion term =      156.3395784315 Hartrees.
 Leave Link  301 at Wed May 12 11:56:01 2021, MaxMem=  2147483648 cpu:         0.3
 (Enter /opt/cluster/programs/g09_d.01/g09/l302.exe)
 NPDir=0 NMtPBC=     1 NCelOv=     1 NCel=       1 NClECP=     1 NCelD=      1
         NCelK=      1 NCelE2=     1 NClLst=     1 CellRange=     0.0.
 One-electron integrals computed using PRISM.
 NBasis=    75 RedAO= T EigKep=  6.43D-05  NBF=    75
 NBsUse=    75 1.00D-06 EigRej= -1.00D+00 NBFU=    75
 Precomputing XC quadrature grid using
 IXCGrd= 4 IRadAn=           0 IRanWt=          -1 IRanGd=           0 AccXCQ= 0.00D+00.
 Generated NRdTot=       0 NPtTot=           0 NUsed=           0 NTot=          32
 NSgBfM=    75    75    75    75    75 MxSgAt=    10 MxSgA2=    10.
 Leave Link  302 at Wed May 12 11:56:01 2021, MaxMem=  2147483648 cpu:         0.8
 (Enter /opt/cluster/programs/g09_d.01/g09/l303.exe)
 DipDrv:  MaxL=1.
 Leave Link  303 at Wed May 12 11:56:01 2021, MaxMem=  2147483648 cpu:         0.2
 (Enter /opt/cluster/programs/g09_d.01/g09/l401.exe)
 Initial guess from the checkpoint file:  "/home/unibas/boittier/RDKit_G2/B.pdb/SCAN_1_2_3_4_S_17_20.0/5_SCAN_1_2_3_4_F/B.pdb.chk"
 B after Tr=     0.000000    0.000000    0.000000
         Rot=    1.000000    0.000460   -0.000576   -0.000280 Ang=   0.09 deg.
 Guess basis will be translated and rotated to current coordinates.
 JPrj=2 DoOrth=T DoCkMO=T.
 Generating alternative initial guess.
 ExpMin= 4.38D-02 ExpMax= 7.00D+03 ExpMxC= 1.05D+03 IAcc=2 IRadAn=         4 AccDes= 0.00D+00
 Harris functional with IExCor= 4639 and IRadAn=       4 diagonalized for initial guess.
 HarFok:  IExCor= 4639 AccDes= 0.00D+00 IRadAn=         4 IDoV= 1 UseB2=F ITyADJ=14
 ICtDFT=  3500011 ScaDFX=  1.000000  1.000000  1.000000  1.000000
 FoFCou: FMM=F IPFlag=           0 FMFlag=      100000 FMFlg1=           0
         NFxFlg=           0 DoJE=T BraDBF=F KetDBF=T FulRan=T
         wScrn=  0.000000 ICntrl=     500 IOpCl=  0 I1Cent=   200000004 NGrid=           0
         NMat0=    1 NMatS0=      1 NMatT0=    0 NMatD0=    1 NMtDS0=    0 NMtDT0=    0
 Petite list used in FoFCou.
 Harris En= -244.782221944190    
 Leave Link  401 at Wed May 12 11:56:02 2021, MaxMem=  2147483648 cpu:         1.7
 (Enter /opt/cluster/programs/g09_d.01/g09/l502.exe)
 Closed shell SCF:
 Using DIIS extrapolation, IDIIS=  1040.
 Integral symmetry usage will be decided dynamically.
 Keep R1 ints in memory in canonical form, NReq=9056162.
 IVT=       36600 IEndB=       36600 NGot=  2147483648 MDV=  2139321699
 LenX=  2139321699 LenY=  2139315633
 Requested convergence on RMS density matrix=1.00D-08 within 128 cycles.
 Requested convergence on MAX density matrix=1.00D-06.
 Requested convergence on             energy=1.00D-06.
 No special actions if energy rises.
 FoFCou: FMM=F IPFlag=           0 FMFlag=           0 FMFlg1=           0
         NFxFlg=           0 DoJE=F BraDBF=F KetDBF=F FulRan=T
         wScrn=  0.000000 ICntrl=     600 IOpCl=  0 I1Cent=           0 NGrid=           0
         NMat0=    1 NMatS0=   2850 NMatT0=    0 NMatD0=    1 NMtDS0=    0 NMtDT0=    0
 Symmetry not used in FoFCou.

 Cycle   1  Pass 1  IDiag  1:
 E= -255.093932288373    
 DIIS: error= 5.74D-04 at cycle   1 NSaved=   1.
 NSaved= 1 IEnMin= 1 EnMin= -255.093932288373     IErMin= 1 ErrMin= 5.74D-04
 ErrMax= 5.74D-04  0.00D+00 EMaxC= 1.00D-01 BMatC= 6.38D-05 BMatP= 6.38D-05
 IDIUse=3 WtCom= 9.94D-01 WtEn= 5.74D-03
 Coeff-Com:  0.100D+01
 Coeff-En:   0.100D+01
 Coeff:      0.100D+01
 Gap=     0.594 Goal=   None    Shift=    0.000
 RMSDP=4.00D-04 MaxDP=4.77D-03              OVMax= 2.02D-03

 Cycle   2  Pass 1  IDiag  1:
 E= -255.094016005346     Delta-E=       -0.000083716973 Rises=F Damp=F
 DIIS: error= 1.53D-04 at cycle   2 NSaved=   2.
 NSaved= 2 IEnMin= 2 EnMin= -255.094016005346     IErMin= 2 ErrMin= 1.53D-04
 ErrMax= 1.53D-04  0.00D+00 EMaxC= 1.00D-01 BMatC= 3.70D-06 BMatP= 6.38D-05
 IDIUse=3 WtCom= 9.98D-01 WtEn= 1.53D-03
 Coeff-Com:  0.802D-02 0.992D+00
 Coeff-En:   0.000D+00 0.100D+01
 Coeff:      0.801D-02 0.992D+00
 Gap=     0.389 Goal=   None    Shift=    0.000
 RMSDP=9.70D-05 MaxDP=1.64D-03 DE=-8.37D-05 OVMax= 8.70D-04

 Cycle   3  Pass 1  IDiag  1:
 E= -255.094021584509     Delta-E=       -0.000005579163 Rises=F Damp=F
 DIIS: error= 7.02D-05 at cycle   3 NSaved=   3.
 NSaved= 3 IEnMin= 3 EnMin= -255.094021584509     IErMin= 3 ErrMin= 7.02D-05
 ErrMax= 7.02D-05  0.00D+00 EMaxC= 1.00D-01 BMatC= 1.10D-06 BMatP= 3.70D-06
 IDIUse=1 WtCom= 1.00D+00 WtEn= 0.00D+00
 Coeff-Com: -0.588D-01 0.317D+00 0.742D+00
 Coeff:     -0.588D-01 0.317D+00 0.742D+00
 Gap=     0.389 Goal=   None    Shift=    0.000
 RMSDP=3.40D-05 MaxDP=3.25D-04 DE=-5.58D-06 OVMax= 4.14D-04

 Cycle   4  Pass 1  IDiag  1:
 E= -255.094022945480     Delta-E=       -0.000001360970 Rises=F Damp=F
 DIIS: error= 3.24D-05 at cycle   4 NSaved=   4.
 NSaved= 4 IEnMin= 4 EnMin= -255.094022945480     IErMin= 4 ErrMin= 3.24D-05
 ErrMax= 3.24D-05  0.00D+00 EMaxC= 1.00D-01 BMatC= 1.11D-07 BMatP= 1.10D-06
 IDIUse=1 WtCom= 1.00D+00 WtEn= 0.00D+00
 Coeff-Com: -0.195D-01 0.517D-01 0.258D+00 0.710D+00
 Coeff:     -0.195D-01 0.517D-01 0.258D+00 0.710D+00
 Gap=     0.390 Goal=   None    Shift=    0.000
 RMSDP=7.97D-06 MaxDP=9.87D-05 DE=-1.36D-06 OVMax= 1.81D-04

 Cycle   5  Pass 1  IDiag  1:
 E= -255.094023092817     Delta-E=       -0.000000147337 Rises=F Damp=F
 DIIS: error= 1.60D-05 at cycle   5 NSaved=   5.
 NSaved= 5 IEnMin= 5 EnMin= -255.094023092817     IErMin= 5 ErrMin= 1.60D-05
 ErrMax= 1.60D-05  0.00D+00 EMaxC= 1.00D-01 BMatC= 2.36D-08 BMatP= 1.11D-07
 IDIUse=1 WtCom= 1.00D+00 WtEn= 0.00D+00
 Coeff-Com:  0.572D-02-0.568D-01-0.723D-01 0.295D+00 0.828D+00
 Coeff:      0.572D-02-0.568D-01-0.723D-01 0.295D+00 0.828D+00
 Gap=     0.389 Goal=   None    Shift=    0.000
 RMSDP=5.28D-06 MaxDP=8.85D-05 DE=-1.47D-07 OVMax= 7.98D-05

 Cycle   6  Pass 1  IDiag  1:
 E= -255.094023131251     Delta-E=       -0.000000038435 Rises=F Damp=F
 DIIS: error= 3.60D-06 at cycle   6 NSaved=   6.
 NSaved= 6 IEnMin= 6 EnMin= -255.094023131251     IErMin= 6 ErrMin= 3.60D-06
 ErrMax= 3.60D-06  0.00D+00 EMaxC= 1.00D-01 BMatC= 3.67D-10 BMatP= 2.36D-08
 IDIUse=1 WtCom= 1.00D+00 WtEn= 0.00D+00
 Coeff-Com:  0.507D-03 0.209D-02-0.890D-02-0.506D-01-0.891D-01 0.115D+01
 Coeff:      0.507D-03 0.209D-02-0.890D-02-0.506D-01-0.891D-01 0.115D+01
 Gap=     0.389 Goal=   None    Shift=    0.000
 RMSDP=1.72D-06 MaxDP=2.21D-05 DE=-3.84D-08 OVMax= 2.34D-05

 Cycle   7  Pass 1  IDiag  1:
 E= -255.094023132724     Delta-E=       -0.000000001473 Rises=F Damp=F
 DIIS: error= 1.22D-06 at cycle   7 NSaved=   7.
 NSaved= 7 IEnMin= 7 EnMin= -255.094023132724     IErMin= 7 ErrMin= 1.22D-06
 ErrMax= 1.22D-06  0.00D+00 EMaxC= 1.00D-01 BMatC= 1.43D-10 BMatP= 3.67D-10
 IDIUse=1 WtCom= 1.00D+00 WtEn= 0.00D+00
 Coeff-Com: -0.253D-03 0.578D-02 0.220D-02-0.468D-01-0.110D+00 0.518D+00
 Coeff-Com:  0.631D+00
 Coeff:     -0.253D-03 0.578D-02 0.220D-02-0.468D-01-0.110D+00 0.518D+00
 Coeff:      0.631D+00
 Gap=     0.389 Goal=   None    Shift=    0.000
 RMSDP=3.51D-07 MaxDP=4.24D-06 DE=-1.47D-09 OVMax= 7.59D-06

 Cycle   8  Pass 1  IDiag  1:
 E= -255.094023132923     Delta-E=       -0.000000000199 Rises=F Damp=F
 DIIS: error= 2.36D-07 at cycle   8 NSaved=   8.
 NSaved= 8 IEnMin= 8 EnMin= -255.094023132923     IErMin= 8 ErrMin= 2.36D-07
 ErrMax= 2.36D-07  0.00D+00 EMaxC= 1.00D-01 BMatC= 4.50D-12 BMatP= 1.43D-10
 IDIUse=1 WtCom= 1.00D+00 WtEn= 0.00D+00
 Coeff-Com: -0.765D-04 0.153D-03 0.130D-02 0.220D-02 0.236D-02-0.967D-01
 Coeff-Com:  0.545D-01 0.104D+01
 Coeff:     -0.765D-04 0.153D-03 0.130D-02 0.220D-02 0.236D-02-0.967D-01
 Coeff:      0.545D-01 0.104D+01
 Gap=     0.389 Goal=   None    Shift=    0.000
 RMSDP=1.41D-07 MaxDP=1.60D-06 DE=-1.99D-10 OVMax= 2.51D-06

 Cycle   9  Pass 1  IDiag  1:
 E= -255.094023132936     Delta-E=       -0.000000000013 Rises=F Damp=F
 DIIS: error= 5.72D-08 at cycle   9 NSaved=   9.
 NSaved= 9 IEnMin= 9 EnMin= -255.094023132936     IErMin= 9 ErrMin= 5.72D-08
 ErrMax= 5.72D-08  0.00D+00 EMaxC= 1.00D-01 BMatC= 2.79D-13 BMatP= 4.50D-12
 IDIUse=1 WtCom= 1.00D+00 WtEn= 0.00D+00
 Coeff-Com:  0.423D-05-0.321D-03 0.796D-04 0.321D-02 0.691D-02-0.481D-01
 Coeff-Com: -0.208D-01 0.174D+00 0.885D+00
 Coeff:      0.423D-05-0.321D-03 0.796D-04 0.321D-02 0.691D-02-0.481D-01
 Coeff:     -0.208D-01 0.174D+00 0.885D+00
 Gap=     0.389 Goal=   None    Shift=    0.000
 RMSDP=4.29D-08 MaxDP=6.31D-07 DE=-1.34D-11 OVMax= 6.61D-07

 Cycle  10  Pass 1  IDiag  1:
 E= -255.094023132938     Delta-E=       -0.000000000001 Rises=F Damp=F
 DIIS: error= 2.23D-08 at cycle  10 NSaved=  10.
 NSaved=10 IEnMin=10 EnMin= -255.094023132938     IErMin=10 ErrMin= 2.23D-08
 ErrMax= 2.23D-08  0.00D+00 EMaxC= 1.00D-01 BMatC= 4.56D-14 BMatP= 2.79D-13
 IDIUse=1 WtCom= 1.00D+00 WtEn= 0.00D+00
 Coeff-Com:  0.731D-05-0.710D-04-0.123D-03 0.398D-03 0.104D-02 0.870D-03
 Coeff-Com: -0.927D-02-0.875D-01 0.234D+00 0.860D+00
 Coeff:      0.731D-05-0.710D-04-0.123D-03 0.398D-03 0.104D-02 0.870D-03
 Coeff:     -0.927D-02-0.875D-01 0.234D+00 0.860D+00
 Gap=     0.389 Goal=   None    Shift=    0.000
 RMSDP=1.65D-08 MaxDP=2.36D-07 DE=-1.48D-12 OVMax= 2.70D-07

 Cycle  11  Pass 1  IDiag  1:
 E= -255.094023132938     Delta-E=       -0.000000000001 Rises=F Damp=F
 DIIS: error= 6.97D-09 at cycle  11 NSaved=  11.
 NSaved=11 IEnMin=11 EnMin= -255.094023132938     IErMin=11 ErrMin= 6.97D-09
 ErrMax= 6.97D-09  0.00D+00 EMaxC= 1.00D-01 BMatC= 5.13D-15 BMatP= 4.56D-14
 IDIUse=1 WtCom= 1.00D+00 WtEn= 0.00D+00
 Coeff-Com:  0.277D-05-0.129D-04-0.450D-04-0.269D-04 0.373D-04 0.255D-02
 Coeff-Com: -0.115D-02-0.322D-01-0.115D-02 0.233D+00 0.799D+00
 Coeff:      0.277D-05-0.129D-04-0.450D-04-0.269D-04 0.373D-04 0.255D-02
 Coeff:     -0.115D-02-0.322D-01-0.115D-02 0.233D+00 0.799D+00
 Gap=     0.389 Goal=   None    Shift=    0.000
 RMSDP=4.07D-09 MaxDP=5.18D-08 DE=-6.82D-13 OVMax= 6.83D-08

 SCF Done:  E(RwB97XD) =  -255.094023133     A.U. after   11 cycles
            NFock= 11  Conv=0.41D-08     -V/T= 2.0056
 KE= 2.536647590336D+02 PE=-9.103735465858D+02 EE= 2.452751859877D+02
 Leave Link  502 at Wed May 12 11:56:03 2021, MaxMem=  2147483648 cpu:        11.2
 (Enter /opt/cluster/programs/g09_d.01/g09/l701.exe)
 Compute integral first derivatives.
 ... and contract with generalized density number  0.
 R6Disp: Adding Grimme-D2 dispersion energy 1st derivatives to the gradient.
 Leave Link  701 at Wed May 12 11:56:03 2021, MaxMem=  2147483648 cpu:         0.6
 (Enter /opt/cluster/programs/g09_d.01/g09/l702.exe)
 L702 exits ... SP integral derivatives will be done elsewhere.
 Leave Link  702 at Wed May 12 11:56:03 2021, MaxMem=  2147483648 cpu:         0.2
 (Enter /opt/cluster/programs/g09_d.01/g09/l703.exe)
 Compute integral first derivatives, UseDBF=F ICtDFT=           0.
 Integral derivatives from FoFJK, PRISM(SPDF).
 Calling FoFJK, ICntrl=      2127 FMM=F ISym2X=0 I1Cent= 0 IOpClX= 0 NMat=1 NMatS=1 NMatT=0.
 FoFJK:  IHMeth= 1 ICntrl=    2127 DoSepK=T KAlg= 0 I1Cent=   0 FoldK=F
 IRaf=         1 NMat=   1 IRICut=       1 DoRegI=T DoRafI=F ISym2E= 0.
 FoFCou: FMM=F IPFlag=           0 FMFlag=      100000 FMFlg1=         800
         NFxFlg=           0 DoJE=F BraDBF=F KetDBF=F FulRan=T
         wScrn=  0.000000 ICntrl=    2527 IOpCl=  0 I1Cent=           0 NGrid=           0
         NMat0=    1 NMatS0=      1 NMatT0=    0 NMatD0=    1 NMtDS0=    0 NMtDT0=    0
 Symmetry not used in FoFCou.
 Leave Link  703 at Wed May 12 11:56:04 2021, MaxMem=  2147483648 cpu:         3.3
 (Enter /opt/cluster/programs/g09_d.01/g09/l716.exe)
 Dipole        = 5.91881261D-01 7.19573903D-01 1.54739381D-01
 ***** Axes restored to original set *****
 -------------------------------------------------------------------
 Center     Atomic                   Forces (Hartrees/Bohr)
 Number     Number              X              Y              Z
 -------------------------------------------------------------------
      1        6           0.001073433   -0.002121745    0.003755757
      2        6          -0.003735321    0.002578226   -0.005964723
      3        6           0.000870087    0.004734947    0.003167309
      4        6           0.000862048   -0.003705305   -0.000697230
      5        1          -0.000004916   -0.000004115    0.000028378
      6        1          -0.000012865    0.000023093   -0.000103703
      7        9           0.000955488   -0.001491649   -0.000295331
      8        1          -0.000106301   -0.000075380   -0.000023614
      9        1          -0.000016312    0.000015649    0.000000616
     10        1           0.000114659    0.000046278    0.000132541
 -------------------------------------------------------------------
 Cartesian Forces:  Max     0.005964723 RMS     0.002060689
 Leave Link  716 at Wed May 12 11:56:04 2021, MaxMem=  2147483648 cpu:         0.2
 (Enter /opt/cluster/programs/g09_d.01/g09/l103.exe)

 GradGradGradGradGradGradGradGradGradGradGradGradGradGradGradGradGradGrad
 Berny optimization.
 Using GEDIIS/GDIIS optimizer.
 FormGI is forming the generalized inverse of G from B-inverse, IUseBI=4.
 Internal  Forces:  Max     0.003753733 RMS     0.001073615
 Search for a local minimum.
 Step number   2 out of a maximum of   43
 All quantities printed in internal units (Hartrees-Bohrs-Radians)
 RMS Force = .53564D-03 SwitMx=.10000D-02 MixMth= 2
 Mixed Optimization -- En-DIIS/RFO-DIIS
 Update second derivatives using D2CorX and points    1    2
 DE= -1.51D-04 DEPred=-1.45D-04 R= 1.04D+00
 TightC=F SS=  1.41D+00  RLast= 3.28D-02 DXNew= 5.0454D-01 9.8515D-02
 Trust test= 1.04D+00 RLast= 3.28D-02 DXMaxT set to 3.00D-01
 ITU=  1  0
 Use linear search instead of GDIIS.
     Eigenvalues ---    0.01592   0.02090   0.02860   0.02866   0.03001
     Eigenvalues ---    0.03011   0.15766   0.15977   0.16000   0.16000
     Eigenvalues ---    0.16101   0.21118   0.24037   0.24943   0.33450
     Eigenvalues ---    0.34996   0.35234   0.35356   0.35588   0.35690
     Eigenvalues ---    0.36956   0.57870   0.716081000.000001000.00000
     Eigenvalues --- 1000.000001000.000001000.000001000.000001000.00000
     Eigenvalues --- 1000.000001000.000001000.00000
 RFO step:  Lambda=-2.69028140D-05 EMin= 1.59202683D-02
 Quartic linear search produced a step of  0.03725.
 Iteration  1 RMS(Cart)=  0.00359695 RMS(Int)=  0.00000858
 Iteration  2 RMS(Cart)=  0.00000936 RMS(Int)=  0.00000096
 Iteration  3 RMS(Cart)=  0.00000000 RMS(Int)=  0.00000096
 Iteration  1 RMS(Cart)=  0.00000068 RMS(Int)=  0.00000048
 ITry= 1 IFail=0 DXMaxC= 7.18D-03 DCOld= 1.00D+10 DXMaxT= 3.00D-01 DXLimC= 3.00D+00 Rises=F
 Variable       Old X    -DE/DX   Delta X   Delta X   Delta X     New X
                                 (Linear)    (Quad)   (Total)
    R1        2.50555   0.00132  -0.00037   0.00176   0.00140   2.50694
    R2        2.04598   0.00002  -0.00006  -0.00004  -0.00010   2.04588
    R3        2.04574  -0.00001  -0.00005  -0.00010  -0.00015   2.04559
    R4        2.78055   0.00107  -0.00012   0.00295   0.00282   2.78338
    R5        2.68918  -0.00179  -0.00064  -0.00549  -0.00613   2.68305
    R6        2.52445   0.00110  -0.00039   0.00143   0.00104   2.52549
    R7        2.05623  -0.00002  -0.00011  -0.00022  -0.00033   2.05590
    R8        2.05223  -0.00001  -0.00003  -0.00008  -0.00011   2.05212
    R9        2.05003   0.00008  -0.00007   0.00013   0.00006   2.05009
    A1        2.11631   0.00000  -0.00005  -0.00010  -0.00015   2.11615
    A2        2.09365  -0.00001  -0.00014  -0.00025  -0.00039   2.09326
    A3        2.07315   0.00001   0.00019   0.00036   0.00056   2.07371
    A4        2.28111  -0.00101  -0.00010  -0.00442  -0.00452   2.27659
    A5        2.05546   0.00089   0.00010   0.00331   0.00341   2.05887
    A6        1.94232   0.00027   0.00003   0.00140   0.00142   1.94374
    A7        2.15296  -0.00010  -0.00027  -0.00103  -0.00131   2.15166
    A8        2.02217  -0.00009   0.00010  -0.00024  -0.00014   2.02203
    A9        2.10507   0.00032   0.00019   0.00138   0.00158   2.10665
   A10        2.12200  -0.00011  -0.00010  -0.00083  -0.00093   2.12107
   A11        2.11586   0.00019  -0.00006   0.00115   0.00109   2.11695
   A12        2.04528  -0.00008   0.00016  -0.00030  -0.00014   2.04514
    D1       -3.08159  -0.00101  -0.00007  -0.00307  -0.00313  -3.08472
    D2       -0.04922   0.00094   0.00021   0.00087   0.00108  -0.04814
    D3        0.07420  -0.00106  -0.00005  -0.00466  -0.00471   0.06949
    D4        3.10656   0.00090   0.00023  -0.00072  -0.00050   3.10607
    D5       -1.39607   0.00375   0.00000   0.00000   0.00000  -1.39607
    D6        1.82810   0.00190  -0.00022  -0.00159  -0.00181   1.82629
    D7        1.84922   0.00186  -0.00026  -0.00386  -0.00412   1.84510
    D8       -1.20979   0.00000  -0.00049  -0.00545  -0.00594  -1.21573
    D9        0.04079  -0.00098  -0.00004  -0.00130  -0.00134   0.03944
   D10       -3.11229  -0.00089  -0.00009   0.00164   0.00154  -3.11075
   D11        3.09603   0.00094   0.00019   0.00028   0.00047   3.09650
   D12       -0.05705   0.00103   0.00014   0.00322   0.00335  -0.05370
         Item               Value     Threshold  Converged?
 Maximum Force            0.001787     0.000450     NO 
 RMS     Force            0.000536     0.000300     NO 
 Maximum Displacement     0.007183     0.001800     NO 
 RMS     Displacement     0.003598     0.001200     NO 
 Predicted change in Energy=-1.371352D-05
 Lowest energy point so far.  Saving SCF results.
 GradGradGradGradGradGradGradGradGradGradGradGradGradGradGradGradGradGrad

 Leave Link  103 at Wed May 12 11:56:04 2021, MaxMem=  2147483648 cpu:         0.0
 (Enter /opt/cluster/programs/g09_d.01/g09/l202.exe)
                          Input orientation:                          
 ---------------------------------------------------------------------
 Center     Atomic      Atomic             Coordinates (Angstroms)
 Number     Number       Type             X           Y           Z
 ---------------------------------------------------------------------
      1          6           0       -1.211529   -1.167914   -0.010414
      2          6           0       -0.475828   -0.065616   -0.070375
      3          6           0        0.925021    0.126796   -0.482725
      4          6           0        1.966151   -0.130106    0.314834
      5          1           0       -2.256654   -1.131005    0.269665
      6          1           0       -0.764576   -2.128419   -0.232744
      7          9           0       -1.114768    1.176057    0.186255
      8          1           0        1.073795    0.571076   -1.464604
      9          1           0        1.830301   -0.534804    1.313339
     10          1           0        2.984644    0.050157   -0.012435
 ---------------------------------------------------------------------
                    Distance matrix (angstroms):
                    1          2          3          4          5
     1  C    0.000000
     2  C    1.326617   0.000000
     3  C    2.542479   1.472899   0.000000
     4  C    3.358643   2.473015   1.336432   0.000000
     5  H    1.082632   2.102861   3.503029   4.340037   0.000000
     6  H    1.082482   2.089234   2.828998   3.427823   1.863745
     7  F    2.354197   1.419809   2.389398   3.348829   2.575538
     8  H    3.218922   2.179583   1.087936   2.110535   4.122700
     9  H    3.377260   2.730025   2.117332   1.085933   4.260037
    10  H    4.369390   3.462892   2.114023   1.084862   5.380142
                    6          7          8          9         10
     6  H    0.000000
     7  F    3.349292   0.000000
     8  H    3.490611   2.807338   0.000000
     9  H    3.415168   3.587590   3.084193   0.000000
    10  H    4.341818   4.255855   2.455911   1.852664   0.000000
 Stoichiometry    C4H5F
 Framework group  C1[X(C4H5F)]
 Deg. of freedom    24
 Full point group                 C1      NOp   1
 RotChk:  IX=0 Diff= 2.84D-03
 Largest Abelian subgroup         C1      NOp   1
 Largest concise Abelian subgroup C1      NOp   1
                         Standard orientation:                         
 ---------------------------------------------------------------------
 Center     Atomic      Atomic             Coordinates (Angstroms)
 Number     Number       Type             X           Y           Z
 ---------------------------------------------------------------------
      1          6           0       -1.213282    1.167436    0.009555
      2          6           0       -0.477131    0.065634    0.073024
      3          6           0        0.925038   -0.124290    0.482027
      4          6           0        1.963625    0.128652   -0.320100
      5          1           0       -2.259263    1.128818   -0.267079
      6          1           0       -0.765875    2.129197    0.225444
      7          9           0       -1.116563   -1.177515   -0.175091
      8          1           0        1.076967   -0.563369    1.465761
      9          1           0        1.824577    0.528064   -1.320293
     10          1           0        2.983172   -0.049658    0.004946
 ---------------------------------------------------------------------
 Rotational constants (GHZ):      8.7619441      3.9285342      2.9900581
 Leave Link  202 at Wed May 12 11:56:04 2021, MaxMem=  2147483648 cpu:         0.0
 (Enter /opt/cluster/programs/g09_d.01/g09/l301.exe)
 Standard basis: 6-31+G (6D, 7F)
 Ernie: Thresh=  0.10000D-02 Tol=  0.10000D-05 Strict=F.
 There are    75 symmetry adapted cartesian basis functions of A   symmetry.
 There are    75 symmetry adapted basis functions of A   symmetry.
    75 basis functions,   150 primitive gaussians,    75 cartesian basis functions
    19 alpha electrons       19 beta electrons
       nuclear repulsion energy       156.3704669468 Hartrees.
 IExCor= 4639 DFT=T Ex+Corr=wB97XD ExCW=0 ScaHFX=  1.000000
 ScaDFX=  1.000000  1.000000  1.000000  1.000000 ScalE2=  1.000000  1.000000
 IRadAn=      0 IRanWt=     -1 IRanGd=            0 ICorTp=0 IEmpDi=121
  HFx wShort=  0.000000 wLong=  0.200000 cFull=  0.222036 cShort=  0.000000 cLong=  0.777964
  DFx wShort=  0.000000 wLong=  0.200000 cFull=  0.000000 cShort=  0.000000 cLong=  1.000000
 NAtoms=   10 NActive=   10 NUniq=   10 SFac= 1.00D+00 NAtFMM=   60 NAOKFM=F Big=F
 Integral buffers will be    131072 words long.
 Raffenetti 2 integral format.
 Two-electron integral symmetry is turned on.
 R6Disp:  Grimme-D2 Dispersion energy=       -0.0030122009 Hartrees.
 Nuclear repulsion after empirical dispersion term =      156.3674547458 Hartrees.
 Leave Link  301 at Wed May 12 11:56:04 2021, MaxMem=  2147483648 cpu:         0.3
 (Enter /opt/cluster/programs/g09_d.01/g09/l302.exe)
 NPDir=0 NMtPBC=     1 NCelOv=     1 NCel=       1 NClECP=     1 NCelD=      1
         NCelK=      1 NCelE2=     1 NClLst=     1 CellRange=     0.0.
 One-electron integrals computed using PRISM.
 NBasis=    75 RedAO= T EigKep=  6.49D-05  NBF=    75
 NBsUse=    75 1.00D-06 EigRej= -1.00D+00 NBFU=    75
 Precomputing XC quadrature grid using
 IXCGrd= 4 IRadAn=           0 IRanWt=          -1 IRanGd=           0 AccXCQ= 0.00D+00.
 Generated NRdTot=       0 NPtTot=           0 NUsed=           0 NTot=          32
 NSgBfM=    75    75    75    75    75 MxSgAt=    10 MxSgA2=    10.
 Leave Link  302 at Wed May 12 11:56:04 2021, MaxMem=  2147483648 cpu:         0.8
 (Enter /opt/cluster/programs/g09_d.01/g09/l303.exe)
 DipDrv:  MaxL=1.
 Leave Link  303 at Wed May 12 11:56:05 2021, MaxMem=  2147483648 cpu:         0.2
 (Enter /opt/cluster/programs/g09_d.01/g09/l401.exe)
 Initial guess from the checkpoint file:  "/home/unibas/boittier/RDKit_G2/B.pdb/SCAN_1_2_3_4_S_17_20.0/5_SCAN_1_2_3_4_F/B.pdb.chk"
 B after Tr=     0.000000    0.000000    0.000000
         Rot=    1.000000    0.000474   -0.000091    0.000025 Ang=   0.06 deg.
 Guess basis will be translated and rotated to current coordinates.
 JPrj=2 DoOrth=T DoCkMO=T.
 Leave Link  401 at Wed May 12 11:56:05 2021, MaxMem=  2147483648 cpu:         0.6
 (Enter /opt/cluster/programs/g09_d.01/g09/l502.exe)
 Closed shell SCF:
 Using DIIS extrapolation, IDIIS=  1040.
 Integral symmetry usage will be decided dynamically.
 Keep R1 ints in memory in canonical form, NReq=9056162.
 IVT=       36600 IEndB=       36600 NGot=  2147483648 MDV=  2139321699
 LenX=  2139321699 LenY=  2139315633
 Requested convergence on RMS density matrix=1.00D-08 within 128 cycles.
 Requested convergence on MAX density matrix=1.00D-06.
 Requested convergence on             energy=1.00D-06.
 No special actions if energy rises.
 FoFCou: FMM=F IPFlag=           0 FMFlag=           0 FMFlg1=           0
         NFxFlg=           0 DoJE=F BraDBF=F KetDBF=F FulRan=T
         wScrn=  0.000000 ICntrl=     600 IOpCl=  0 I1Cent=           0 NGrid=           0
         NMat0=    1 NMatS0=   2850 NMatT0=    0 NMatD0=    1 NMtDS0=    0 NMtDT0=    0
 Symmetry not used in FoFCou.

 Cycle   1  Pass 1  IDiag  1:
 E= -255.094022204490    
 DIIS: error= 2.38D-04 at cycle   1 NSaved=   1.
 NSaved= 1 IEnMin= 1 EnMin= -255.094022204490     IErMin= 1 ErrMin= 2.38D-04
 ErrMax= 2.38D-04  0.00D+00 EMaxC= 1.00D-01 BMatC= 1.17D-05 BMatP= 1.17D-05
 IDIUse=3 WtCom= 9.98D-01 WtEn= 2.38D-03
 Coeff-Com:  0.100D+01
 Coeff-En:   0.100D+01
 Coeff:      0.100D+01
 Gap=     0.594 Goal=   None    Shift=    0.000
 RMSDP=1.23D-04 MaxDP=1.36D-03              OVMax= 1.20D-03

 Cycle   2  Pass 1  IDiag  1:
 E= -255.094039302247     Delta-E=       -0.000017097758 Rises=F Damp=F
 DIIS: error= 1.39D-04 at cycle   2 NSaved=   2.
 NSaved= 2 IEnMin= 2 EnMin= -255.094039302247     IErMin= 2 ErrMin= 1.39D-04
 ErrMax= 1.39D-04  0.00D+00 EMaxC= 1.00D-01 BMatC= 1.92D-06 BMatP= 1.17D-05
 IDIUse=3 WtCom= 9.99D-01 WtEn= 1.39D-03
 Coeff-Com:  0.121D+00 0.879D+00
 Coeff-En:   0.000D+00 0.100D+01
 Coeff:      0.120D+00 0.880D+00
 Gap=     0.390 Goal=   None    Shift=    0.000
 RMSDP=3.59D-05 MaxDP=4.89D-04 DE=-1.71D-05 OVMax= 4.30D-04

 Cycle   3  Pass 1  IDiag  1:
 E= -255.094040382279     Delta-E=       -0.000001080031 Rises=F Damp=F
 DIIS: error= 1.16D-04 at cycle   3 NSaved=   3.
 NSaved= 3 IEnMin= 3 EnMin= -255.094040382279     IErMin= 3 ErrMin= 1.16D-04
 ErrMax= 1.16D-04  0.00D+00 EMaxC= 1.00D-01 BMatC= 1.50D-06 BMatP= 1.92D-06
 IDIUse=3 WtCom= 9.99D-01 WtEn= 1.16D-03
 Coeff-Com: -0.100D+00 0.489D+00 0.611D+00
 Coeff-En:   0.000D+00 0.212D+00 0.788D+00
 Coeff:     -0.100D+00 0.489D+00 0.611D+00
 Gap=     0.390 Goal=   None    Shift=    0.000
 RMSDP=2.03D-05 MaxDP=2.28D-04 DE=-1.08D-06 OVMax= 2.52D-04

 Cycle   4  Pass 1  IDiag  1:
 E= -255.094041489398     Delta-E=       -0.000001107119 Rises=F Damp=F
 DIIS: error= 1.79D-05 at cycle   4 NSaved=   4.
 NSaved= 4 IEnMin= 4 EnMin= -255.094041489398     IErMin= 4 ErrMin= 1.79D-05
 ErrMax= 1.79D-05  0.00D+00 EMaxC= 1.00D-01 BMatC= 1.21D-08 BMatP= 1.50D-06
 IDIUse=1 WtCom= 1.00D+00 WtEn= 0.00D+00
 Coeff-Com:  0.517D-02-0.954D-01-0.397D-01 0.113D+01
 Coeff:      0.517D-02-0.954D-01-0.397D-01 0.113D+01
 Gap=     0.390 Goal=   None    Shift=    0.000
 RMSDP=5.69D-06 MaxDP=8.45D-05 DE=-1.11D-06 OVMax= 1.03D-04

 Cycle   5  Pass 1  IDiag  1:
 E= -255.094041524812     Delta-E=       -0.000000035414 Rises=F Damp=F
 DIIS: error= 4.20D-06 at cycle   5 NSaved=   5.
 NSaved= 5 IEnMin= 5 EnMin= -255.094041524812     IErMin= 5 ErrMin= 4.20D-06
 ErrMax= 4.20D-06  0.00D+00 EMaxC= 1.00D-01 BMatC= 1.56D-09 BMatP= 1.21D-08
 IDIUse=1 WtCom= 1.00D+00 WtEn= 0.00D+00
 Coeff-Com:  0.811D-02-0.591D-01-0.525D-01 0.321D+00 0.783D+00
 Coeff:      0.811D-02-0.591D-01-0.525D-01 0.321D+00 0.783D+00
 Gap=     0.390 Goal=   None    Shift=    0.000
 RMSDP=1.63D-06 MaxDP=2.17D-05 DE=-3.54D-08 OVMax= 2.58D-05

 Cycle   6  Pass 1  IDiag  1:
 E= -255.094041527974     Delta-E=       -0.000000003161 Rises=F Damp=F
 DIIS: error= 1.68D-06 at cycle   6 NSaved=   6.
 NSaved= 6 IEnMin= 6 EnMin= -255.094041527974     IErMin= 6 ErrMin= 1.68D-06
 ErrMax= 1.68D-06  0.00D+00 EMaxC= 1.00D-01 BMatC= 1.51D-10 BMatP= 1.56D-09
 IDIUse=1 WtCom= 1.00D+00 WtEn= 0.00D+00
 Coeff-Com:  0.700D-03 0.287D-02-0.544D-02-0.939D-01 0.130D+00 0.966D+00
 Coeff:      0.700D-03 0.287D-02-0.544D-02-0.939D-01 0.130D+00 0.966D+00
 Gap=     0.390 Goal=   None    Shift=    0.000
 RMSDP=6.77D-07 MaxDP=8.25D-06 DE=-3.16D-09 OVMax= 1.11D-05

 Cycle   7  Pass 1  IDiag  1:
 E= -255.094041528370     Delta-E=       -0.000000000396 Rises=F Damp=F
 DIIS: error= 7.06D-07 at cycle   7 NSaved=   7.
 NSaved= 7 IEnMin= 7 EnMin= -255.094041528370     IErMin= 7 ErrMin= 7.06D-07
 ErrMax= 7.06D-07  0.00D+00 EMaxC= 1.00D-01 BMatC= 3.86D-11 BMatP= 1.51D-10
 IDIUse=1 WtCom= 1.00D+00 WtEn= 0.00D+00
 Coeff-Com: -0.412D-03 0.651D-02 0.202D-02-0.718D-01-0.609D-02 0.448D+00
 Coeff-Com:  0.622D+00
 Coeff:     -0.412D-03 0.651D-02 0.202D-02-0.718D-01-0.609D-02 0.448D+00
 Coeff:      0.622D+00
 Gap=     0.390 Goal=   None    Shift=    0.000
 RMSDP=1.57D-07 MaxDP=1.69D-06 DE=-3.96D-10 OVMax= 3.84D-06

 Cycle   8  Pass 1  IDiag  1:
 E= -255.094041528420     Delta-E=       -0.000000000051 Rises=F Damp=F
 DIIS: error= 1.24D-07 at cycle   8 NSaved=   8.
 NSaved= 8 IEnMin= 8 EnMin= -255.094041528420     IErMin= 8 ErrMin= 1.24D-07
 ErrMax= 1.24D-07  0.00D+00 EMaxC= 1.00D-01 BMatC= 1.91D-12 BMatP= 3.86D-11
 IDIUse=1 WtCom= 1.00D+00 WtEn= 0.00D+00
 Coeff-Com: -0.146D-03 0.681D-03 0.116D-02 0.560D-03-0.193D-01-0.566D-01
 Coeff-Com:  0.127D+00 0.946D+00
 Coeff:     -0.146D-03 0.681D-03 0.116D-02 0.560D-03-0.193D-01-0.566D-01
 Coeff:      0.127D+00 0.946D+00
 Gap=     0.390 Goal=   None    Shift=    0.000
 RMSDP=7.86D-08 MaxDP=1.04D-06 DE=-5.06D-11 OVMax= 1.48D-06

 Cycle   9  Pass 1  IDiag  1:
 E= -255.094041528426     Delta-E=       -0.000000000006 Rises=F Damp=F
 DIIS: error= 3.53D-08 at cycle   9 NSaved=   9.
 NSaved= 9 IEnMin= 9 EnMin= -255.094041528426     IErMin= 9 ErrMin= 3.53D-08
 ErrMax= 3.53D-08  0.00D+00 EMaxC= 1.00D-01 BMatC= 1.50D-13 BMatP= 1.91D-12
 IDIUse=1 WtCom= 1.00D+00 WtEn= 0.00D+00
 Coeff-Com: -0.191D-04-0.222D-03 0.189D-03 0.464D-02-0.455D-02-0.435D-01
 Coeff-Com: -0.118D-01 0.232D+00 0.824D+00
 Coeff:     -0.191D-04-0.222D-03 0.189D-03 0.464D-02-0.455D-02-0.435D-01
 Coeff:     -0.118D-01 0.232D+00 0.824D+00
 Gap=     0.390 Goal=   None    Shift=    0.000
 RMSDP=2.24D-08 MaxDP=3.04D-07 DE=-5.97D-12 OVMax= 4.38D-07

 Cycle  10  Pass 1  IDiag  1:
 E= -255.094041528426     Delta-E=        0.000000000001 Rises=F Damp=F
 DIIS: error= 1.57D-08 at cycle  10 NSaved=  10.
 NSaved=10 IEnMin= 9 EnMin= -255.094041528426     IErMin=10 ErrMin= 1.57D-08
 ErrMax= 1.57D-08  0.00D+00 EMaxC= 1.00D-01 BMatC= 2.32D-14 BMatP= 1.50D-13
 IDIUse=1 WtCom= 1.00D+00 WtEn= 0.00D+00
 Coeff-Com:  0.143D-04-0.164D-03-0.102D-03 0.153D-02 0.102D-02-0.702D-02
 Coeff-Com: -0.198D-01-0.444D-01 0.260D+00 0.809D+00
 Coeff:      0.143D-04-0.164D-03-0.102D-03 0.153D-02 0.102D-02-0.702D-02
 Coeff:     -0.198D-01-0.444D-01 0.260D+00 0.809D+00
 Gap=     0.390 Goal=   None    Shift=    0.000
 RMSDP=9.28D-09 MaxDP=1.13D-07 DE= 5.68D-13 OVMax= 1.90D-07

 SCF Done:  E(RwB97XD) =  -255.094041528     A.U. after   10 cycles
            NFock= 10  Conv=0.93D-08     -V/T= 2.0056
 KE= 2.536640123409D+02 PE=-9.104232919835D+02 EE= 2.452977833683D+02
 Leave Link  502 at Wed May 12 11:56:06 2021, MaxMem=  2147483648 cpu:        10.3
 (Enter /opt/cluster/programs/g09_d.01/g09/l701.exe)
 Compute integral first derivatives.
 ... and contract with generalized density number  0.
 R6Disp: Adding Grimme-D2 dispersion energy 1st derivatives to the gradient.
 Leave Link  701 at Wed May 12 11:56:06 2021, MaxMem=  2147483648 cpu:         0.6
 (Enter /opt/cluster/programs/g09_d.01/g09/l702.exe)
 L702 exits ... SP integral derivatives will be done elsewhere.
 Leave Link  702 at Wed May 12 11:56:06 2021, MaxMem=  2147483648 cpu:         0.2
 (Enter /opt/cluster/programs/g09_d.01/g09/l703.exe)
 Compute integral first derivatives, UseDBF=F ICtDFT=           0.
 Integral derivatives from FoFJK, PRISM(SPDF).
 Calling FoFJK, ICntrl=      2127 FMM=F ISym2X=0 I1Cent= 0 IOpClX= 0 NMat=1 NMatS=1 NMatT=0.
 FoFJK:  IHMeth= 1 ICntrl=    2127 DoSepK=T KAlg= 0 I1Cent=   0 FoldK=F
 IRaf=         1 NMat=   1 IRICut=       1 DoRegI=T DoRafI=F ISym2E= 0.
 FoFCou: FMM=F IPFlag=           0 FMFlag=      100000 FMFlg1=         800
         NFxFlg=           0 DoJE=F BraDBF=F KetDBF=F FulRan=T
         wScrn=  0.000000 ICntrl=    2527 IOpCl=  0 I1Cent=           0 NGrid=           0
         NMat0=    1 NMatS0=      1 NMatT0=    0 NMatD0=    1 NMtDS0=    0 NMtDT0=    0
 Symmetry not used in FoFCou.
 Leave Link  703 at Wed May 12 11:56:07 2021, MaxMem=  2147483648 cpu:         3.3
 (Enter /opt/cluster/programs/g09_d.01/g09/l716.exe)
 Dipole        = 5.88444915D-01 7.13340775D-01 1.53663991D-01
 ***** Axes restored to original set *****
 -------------------------------------------------------------------
 Center     Atomic                   Forces (Hartrees/Bohr)
 Number     Number              X              Y              Z
 -------------------------------------------------------------------
      1        6           0.001263473   -0.001197853    0.003625259
      2        6          -0.002434600    0.000550643   -0.006219072
      3        6           0.000662273    0.004427982    0.003726170
      4        6           0.000297582   -0.003323949   -0.001053622
      5        1          -0.000077914   -0.000049695    0.000030533
      6        1          -0.000008359   -0.000007247   -0.000040525
      7        9           0.000194456   -0.000369195   -0.000064297
      8        1           0.000033276    0.000038455   -0.000065429
      9        1           0.000006501   -0.000042446    0.000036632
     10        1           0.000063313   -0.000026695    0.000024353
 -------------------------------------------------------------------
 Cartesian Forces:  Max     0.006219072 RMS     0.001892645
 Leave Link  716 at Wed May 12 11:56:07 2021, MaxMem=  2147483648 cpu:         0.2
 (Enter /opt/cluster/programs/g09_d.01/g09/l103.exe)

 GradGradGradGradGradGradGradGradGradGradGradGradGradGradGradGradGradGrad
 Berny optimization.
 Using GEDIIS/GDIIS optimizer.
 FormGI is forming the generalized inverse of G from B-inverse, IUseBI=4.
 Internal  Forces:  Max     0.003685778 RMS     0.000941826
 Search for a local minimum.
 Step number   3 out of a maximum of   43
 All quantities printed in internal units (Hartrees-Bohrs-Radians)
 RMS Force = .21172D-03 SwitMx=.10000D-02 MixMth= 2
 Mixed Optimization -- En-DIIS/RFO-DIIS
 Swapping is turned off.
 Update second derivatives using D2CorX and points    1    2    3
 DE= -1.84D-05 DEPred=-1.37D-05 R= 1.34D+00
 TightC=F SS=  1.41D+00  RLast= 1.39D-02 DXNew= 5.0454D-01 4.1806D-02
 Trust test= 1.34D+00 RLast= 1.39D-02 DXMaxT set to 3.00D-01
 ITU=  1  1  0
     Eigenvalues ---    0.01582   0.02086   0.02858   0.02918   0.02985
     Eigenvalues ---    0.03012   0.14342   0.15985   0.16000   0.16078
     Eigenvalues ---    0.16108   0.16622   0.22431   0.25116   0.33975
     Eigenvalues ---    0.34937   0.35246   0.35318   0.35620   0.35634
     Eigenvalues ---    0.38497   0.57934   0.675791000.000001000.00000
     Eigenvalues --- 1000.000001000.000001000.000001000.000001000.00000
     Eigenvalues --- 1000.000001000.000001000.00000
 En-DIIS/RFO-DIIS IScMMF=        0 using points:     3    2
 RFO step:  Lambda=-4.00166374D-06.
[...]
 (Enter /opt/cluster/programs/g09_d.01/g09/l716.exe)
 Dipole        = 5.88151890D-01 7.10629872D-01 1.53196235D-01
 ***** Axes restored to original set *****
 -------------------------------------------------------------------
 Center     Atomic                   Forces (Hartrees/Bohr)
 Number     Number              X              Y              Z
 -------------------------------------------------------------------
      1        6           0.001198571   -0.000550077    0.003683933
      2        6          -0.001698954   -0.000713474   -0.006466313
      3        6           0.000427464    0.004600357    0.003954476
      4        6           0.000113972   -0.003425561   -0.001218754
      5        1          -0.000010615   -0.000048513   -0.000020607
      6        1          -0.000001015   -0.000013183   -0.000016329
      7        9          -0.000080386    0.000053728    0.000031553
      8        1           0.000031940    0.000037813    0.000007140
      9        1           0.000012567    0.000033837    0.000028319
     10        1           0.000006456    0.000025074    0.000016583
 -------------------------------------------------------------------
 Cartesian Forces:  Max     0.006466313 RMS     0.001921416
 Leave Link  716 at Wed May 12 11:56:09 2021, MaxMem=  2147483648 cpu:         0.2
 (Enter /opt/cluster/programs/g09_d.01/g09/l103.exe)

 GradGradGradGradGradGradGradGradGradGradGradGradGradGradGradGradGradGrad
 Berny optimization.
 Using GEDIIS/GDIIS optimizer.
 FormGI is forming the generalized inverse of G from B-inverse, IUseBI=4.
 Internal  Forces:  Max     0.003661264 RMS     0.000913223
 Search for a local minimum.
 Step number   4 out of a maximum of   43
 All quantities printed in internal units (Hartrees-Bohrs-Radians)
 RMS Force = .39004D-04 SwitMx=.10000D-02 MixMth= 2
 Mixed Optimization -- En-DIIS/RFO-DIIS
 Swapping is turned off.
 Update second derivatives using D2CorX and points    1    2    3    4
 DE= -4.13D-06 DEPred=-3.83D-06 R= 1.08D+00
 TightC=F SS=  1.41D+00  RLast= 8.54D-03 DXNew= 5.0454D-01 2.5627D-02
 Trust test= 1.08D+00 RLast= 8.54D-03 DXMaxT set to 3.00D-01
 ITU=  1  1  1  0
     Eigenvalues ---    0.01589   0.02084   0.02869   0.02951   0.03000
     Eigenvalues ---    0.03025   0.13363   0.15986   0.16000   0.16051
     Eigenvalues ---    0.16171   0.16399   0.22196   0.25190   0.34882
     Eigenvalues ---    0.35138   0.35265   0.35342   0.35604   0.35670
     Eigenvalues ---    0.37489   0.58023   0.672301000.000001000.00000
     Eigenvalues --- 1000.000001000.000001000.000001000.000001000.00000
     Eigenvalues --- 1000.000001000.000001000.00000
 En-DIIS/RFO-DIIS IScMMF=        0 using points:     4    3    2
 RFO step:  Lambda=-9.79407297D-07.
 NNeg= 0 NP= 3 Switch=  2.50D-03 Rises=F DC=  1.84D-05 SmlDif=  1.00D-05
 RMS Error=  0.1016889118D-03 NUsed= 3 EDIIS=F
 DidBck=F Rises=F RFO-DIIS coefs:    1.02966   -0.02599   -0.00367
 Iteration  1 RMS(Cart)=  0.00047586 RMS(Int)=  0.00000056
 Iteration  2 RMS(Cart)=  0.00000027 RMS(Int)=  0.00000048
 Iteration  1 RMS(Cart)=  0.00000023 RMS(Int)=  0.00000017
 ITry= 1 IFail=0 DXMaxC= 1.23D-03 DCOld= 1.00D+10 DXMaxT= 3.00D-01 DXLimC= 3.00D+00 Rises=F
 Variable       Old X    -DE/DX   Delta X   Delta X   Delta X     New X
                                 (Linear)    (Quad)   (Total)
    R1        2.50792   0.00001   0.00003   0.00001   0.00004   2.50797
    R2        2.04615   0.00001   0.00001   0.00002   0.00003   2.04618
    R3        2.04553   0.00001   0.00000   0.00002   0.00002   2.04555
    R4        2.78523  -0.00004   0.00007  -0.00012  -0.00005   2.78518
    R5        2.67997   0.00009  -0.00011   0.00017   0.00006   2.68003
    R6        2.52590   0.00004   0.00002   0.00006   0.00008   2.52598
    R7        2.05607   0.00002   0.00000   0.00004   0.00004   2.05612
    R8        2.05224   0.00001   0.00000   0.00002   0.00002   2.05226
    R9        2.05021   0.00001   0.00000   0.00002   0.00003   2.05024
    A1        2.11652   0.00005   0.00001   0.00030   0.00031   2.11683
    A2        2.09289  -0.00001  -0.00001  -0.00008  -0.00010   2.09280
    A3        2.07371  -0.00004   0.00000  -0.00021  -0.00021   2.07350
    A4        2.27209  -0.00008  -0.00015  -0.00048  -0.00063   2.27146
    A5        2.06139   0.00014   0.00009   0.00002   0.00011   2.06150
    A6        1.94586   0.00007   0.00007   0.00046   0.00052   1.94638
    A7        2.15093   0.00006  -0.00003   0.00009   0.00007   2.15100
    A8        2.02247  -0.00002   0.00001   0.00013   0.00014   2.02261
    A9        2.10699   0.00009   0.00002  -0.00024  -0.00022   2.10677
   A10        2.12074   0.00003  -0.00001   0.00016   0.00015   2.12089
   A11        2.11743  -0.00001   0.00002  -0.00007  -0.00005   2.11737
   A12        2.04497  -0.00001  -0.00001  -0.00008  -0.00008   2.04489
    D1       -3.08689  -0.00093  -0.00008   0.00015   0.00008  -3.08681
    D2       -0.04844   0.00094   0.00000   0.00011   0.00010  -0.04834
    D3        0.06729  -0.00093  -0.00008   0.00002  -0.00006   0.06723
    D4        3.10574   0.00093  -0.00001  -0.00002  -0.00003   3.10570
    D5       -1.39607   0.00366   0.00000   0.00000   0.00000  -1.39607
    D6        1.82551   0.00187  -0.00003   0.00020   0.00017   1.82568
    D7        1.84328   0.00189  -0.00007   0.00006  -0.00001   1.84327
    D8       -1.21833   0.00010  -0.00010   0.00026   0.00017  -1.21816
    D9        0.04015  -0.00097   0.00002  -0.00130  -0.00128   0.03887
   D10       -3.11230  -0.00092  -0.00004   0.00066   0.00062  -3.11168
   D11        3.09802   0.00089   0.00005  -0.00149  -0.00145   3.09657
   D12       -0.05443   0.00095  -0.00001   0.00047   0.00046  -0.05397
         Item               Value     Threshold  Converged?
 Maximum Force            0.000113     0.000450     YES
 RMS     Force            0.000039     0.000300     YES
 Maximum Displacement     0.001227     0.001800     YES
 RMS     Displacement     0.000476     0.001200     YES
 Predicted change in Energy=-1.662835D-07
 Optimization completed.
    -- Stationary point found.
                           ----------------------------
                           !   Optimized Parameters   !
                           ! (Angstroms and Degrees)  !
 --------------------------                            --------------------------
 ! Name  Definition              Value          Derivative Info.                !
 --------------------------------------------------------------------------------
 ! R1    R(1,2)                  1.3271         -DE/DX =    0.0                 !
 ! R2    R(1,5)                  1.0828         -DE/DX =    0.0                 !
 ! R3    R(1,6)                  1.0824         -DE/DX =    0.0                 !
 ! R4    R(2,3)                  1.4739         -DE/DX =    0.0                 !
 ! R5    R(2,7)                  1.4182         -DE/DX =    0.0001              !
 ! R6    R(3,4)                  1.3366         -DE/DX =    0.0                 !
 ! R7    R(3,8)                  1.088          -DE/DX =    0.0                 !
 ! R8    R(4,9)                  1.086          -DE/DX =    0.0                 !
 ! R9    R(4,10)                 1.0849         -DE/DX =    0.0                 !
 ! A1    A(2,1,5)              121.2677         -DE/DX =    0.0                 !
 ! A2    A(2,1,6)              119.9139         -DE/DX =    0.0                 !
 ! A3    A(5,1,6)              118.8147         -DE/DX =    0.0                 !
 ! A4    A(1,2,3)              130.1811         -DE/DX =   -0.0001              !
 ! A5    A(1,2,7)              118.1087         -DE/DX =    0.0001              !
 ! A6    A(3,2,7)              111.4895         -DE/DX =    0.0001              !
 ! A7    A(2,3,4)              123.2392         -DE/DX =    0.0001              !
 ! A8    A(2,3,8)              115.8788         -DE/DX =    0.0                 !
 ! A9    A(4,3,8)              120.7214         -DE/DX =    0.0001              !
 ! A10   A(3,4,9)              121.5095         -DE/DX =    0.0                 !
 ! A11   A(3,4,10)             121.3195         -DE/DX =    0.0                 !
 ! A12   A(9,4,10)             117.1682         -DE/DX =    0.0                 !
 ! D1    D(5,1,2,3)           -176.8658         -DE/DX =   -0.0009              !
 ! D2    D(5,1,2,7)             -2.7753         -DE/DX =    0.0009              !
 ! D3    D(6,1,2,3)              3.8552         -DE/DX =   -0.0009              !
 ! D4    D(6,1,2,7)            177.9457         -DE/DX =    0.0009              !
 ! D5    D(1,2,3,4)            -79.989          -DE/DX =    0.0037              !
 ! D6    D(1,2,3,8)            104.594          -DE/DX =    0.0019              !
 ! D7    D(7,2,3,4)            105.612          -DE/DX =    0.0019              !
 ! D8    D(7,2,3,8)            -69.805          -DE/DX =    0.0001              !
 ! D9    D(2,3,4,9)              2.3004         -DE/DX =   -0.001               !
 ! D10   D(2,3,4,10)          -178.3216         -DE/DX =   -0.0009              !
 ! D11   D(8,3,4,9)            177.5033         -DE/DX =    0.0009              !
 ! D12   D(8,3,4,10)            -3.1186         -DE/DX =    0.0009              !
 --------------------------------------------------------------------------------
 Lowest energy point so far.  Saving SCF results.
 GradGradGradGradGradGradGradGradGradGradGradGradGradGradGradGradGradGrad

 Largest change from initial coordinates is atom    9       0.018 Angstoms.
 Leave Link  103 at Wed May 12 11:56:09 2021, MaxMem=  2147483648 cpu:         0.1
 (Enter /opt/cluster/programs/g09_d.01/g09/l202.exe)
                          Input orientation:                          
 ---------------------------------------------------------------------
 Center     Atomic      Atomic             Coordinates (Angstroms)
 Number     Number       Type             X           Y           Z
 ---------------------------------------------------------------------
      1          6           0       -1.210330   -1.167337   -0.010349
      2          6           0       -0.477401   -0.062560   -0.070139
      3          6           0        0.924544    0.127355   -0.483436
      4          6           0        1.965088   -0.130250    0.315022
      5          1           0       -2.255310   -1.133951    0.271259
      6          1           0       -0.760782   -2.126169   -0.234493
      7          9           0       -1.115567    1.177414    0.187617
      8          1           0        1.074171    0.569346   -1.466318
      9          1           0        1.827829   -0.533954    1.313808
     10          1           0        2.984316    0.046328   -0.012177
 ---------------------------------------------------------------------
                    Distance matrix (angstroms):
                    1          2          3          4          5
     1  C    0.000000
     2  C    1.327136   0.000000
     3  C    2.541205   1.473883   0.000000
     4  C    3.356292   2.473597   1.336648   0.000000
     5  H    1.082775   2.103662   3.503131   4.338328   0.000000
     6  H    1.082448   2.089449   2.825007   3.422868   1.863839
     7  F    2.355000   1.418179   2.390605   3.349127   2.578453
     8  H    3.217897   2.180825   1.088027   2.111004   4.123814
     9  H    3.374163   2.729763   2.117389   1.085997   4.256634
    10  H    4.366697   3.463914   2.114548   1.084926   5.378390
                    6          7          8          9         10
     6  H    0.000000
     7  F    3.349285   0.000000
     8  H    3.485720   2.810730   0.000000
     9  H    3.410761   3.586178   3.084537   0.000000
    10  H    4.335312   4.257736   2.456975   1.852680   0.000000
 Stoichiometry    C4H5F
 Framework group  C1[X(C4H5F)]
 Deg. of freedom    24
 Full point group                 C1      NOp   1
 RotChk:  IX=0 Diff= 4.83D-16
 Largest Abelian subgroup         C1      NOp   1
 Largest concise Abelian subgroup C1      NOp   1
                         Standard orientation:                         
 ---------------------------------------------------------------------
 Center     Atomic      Atomic             Coordinates (Angstroms)
 Number     Number       Type             X           Y           Z
 ---------------------------------------------------------------------
      1          6           0       -1.210079    1.169322    0.009376
      2          6           0       -0.478168    0.064096    0.073203
      3          6           0        0.925006   -0.124928    0.482719
      4          6           0        1.963028    0.126728   -0.320900
      5          1           0       -2.256076    1.135434   -0.268368
      6          1           0       -0.758687    2.128968    0.226210
      7          9           0       -1.118607   -1.176675   -0.174901
      8          1           0        1.077589   -0.561208    1.467697
      9          1           0        1.822716    0.524613   -1.321595
     10          1           0        2.983201   -0.049042    0.003779
 ---------------------------------------------------------------------
 Rotational constants (GHZ):      8.7559654      3.9294901      2.9907558
 Leave Link  202 at Wed May 12 11:56:09 2021, MaxMem=  2147483648 cpu:         0.0
 (Enter /opt/cluster/programs/g09_d.01/g09/l601.exe)
 Copying SCF densities to generalized density rwf, IOpCl= 0 IROHF=0.

 **********************************************************************

            Population analysis using the SCF density.

 **********************************************************************

 Orbital symmetries:
       Occupied  (A) (A) (A) (A) (A) (A) (A) (A) (A) (A) (A) (A)
                 (A) (A) (A) (A) (A) (A) (A)
       Virtual   (A) (A) (A) (A) (A) (A) (A) (A) (A) (A) (A) (A)
                 (A) (A) (A) (A) (A) (A) (A) (A) (A) (A) (A) (A)
                 (A) (A) (A) (A) (A) (A) (A) (A) (A) (A) (A) (A)
                 (A) (A) (A) (A) (A) (A) (A) (A) (A) (A) (A) (A)
                 (A) (A) (A) (A) (A) (A) (A) (A)
 The electronic state is 1-A.
 Alpha  occ. eigenvalues --  -24.82783 -10.40117 -10.33080 -10.32126 -10.30899
 Alpha  occ. eigenvalues --   -1.30601  -0.92880  -0.86152  -0.73835  -0.65432
 Alpha  occ. eigenvalues --   -0.60800  -0.57487  -0.56389  -0.52523  -0.50631
 Alpha  occ. eigenvalues --   -0.48487  -0.45078  -0.38123  -0.35098
 Alpha virt. eigenvalues --    0.03870   0.06080   0.07746   0.08433   0.09550
 Alpha virt. eigenvalues --    0.11259   0.11797   0.13273   0.13934   0.14483
 Alpha virt. eigenvalues --    0.16270   0.17589   0.18197   0.18618   0.19617
 Alpha virt. eigenvalues --    0.19685   0.23079   0.24595   0.26731   0.28344
 Alpha virt. eigenvalues --    0.28838   0.31509   0.31886   0.38857   0.41680
 Alpha virt. eigenvalues --    0.42512   0.45502   0.46356   0.48596   0.50298
 Alpha virt. eigenvalues --    0.52623   0.69843   0.72527   0.75920   0.78058
 Alpha virt. eigenvalues --    0.80706   0.82380   0.84974   0.90496   0.92610
 Alpha virt. eigenvalues --    0.94453   1.01295   1.04881   1.06966   1.12988
 Alpha virt. eigenvalues --    1.13425   1.16057   1.22096   1.23408   1.32273
 Alpha virt. eigenvalues --    1.39636   1.48793   1.67700   1.82057   1.86097
 Alpha virt. eigenvalues --    2.36226
          Condensed to atoms (all electrons):
               1          2          3          4          5          6
     1  C    5.979680   0.183232  -0.249878  -0.044222   0.393262   0.320683
     2  C    0.183232   5.320977   0.255964  -0.012480  -0.057571   0.001206
     3  C   -0.249878   0.255964   5.332823   0.559929   0.010770   0.009103
     4  C   -0.044222  -0.012480   0.559929   5.117124   0.003175   0.008963
     5  H    0.393262  -0.057571   0.010770   0.003175   0.456263  -0.019784
     6  H    0.320683   0.001206   0.009103   0.008963  -0.019784   0.463542
     7  F   -0.185157   0.294788  -0.114347  -0.031858  -0.002835   0.004161
     8  H    0.017415  -0.043958   0.320709   0.014108  -0.000071   0.000172
     9  H    0.007646   0.002747  -0.055270   0.388871  -0.000019   0.000035
    10  H    0.003326   0.008485  -0.039110   0.376672   0.000002  -0.000015
               7          8          9         10
     1  C   -0.185157   0.017415   0.007646   0.003326
     2  C    0.294788  -0.043958   0.002747   0.008485
     3  C   -0.114347   0.320709  -0.055270  -0.039110
     4  C   -0.031858   0.014108   0.388871   0.376672
     5  H   -0.002835  -0.000071  -0.000019   0.000002
     6  H    0.004161   0.000172   0.000035  -0.000015
     7  F    9.306881   0.001880   0.000393  -0.000261
     8  H    0.001880   0.461974   0.002615  -0.003229
     9  H    0.000393   0.002615   0.468019  -0.023248
    10  H   -0.000261  -0.003229  -0.023248   0.478715
 Mulliken charges:
               1
     1  C   -0.425988
     2  C    0.046609
     3  C   -0.030693
     4  C   -0.380283
     5  H    0.216808
     6  H    0.211934
     7  F   -0.273645
     8  H    0.228385
     9  H    0.208210
    10  H    0.198663
 Sum of Mulliken charges =   0.00000
 Mulliken charges with hydrogens summed into heavy atoms:
               1
     1  C    0.002754
     2  C    0.046609
     3  C    0.197692
     4  C    0.026591
     7  F   -0.273645
 Electronic spatial extent (au):  <R**2>=            430.9957
 Charge=              0.0000 electrons
 Dipole moment (field-independent basis, Debye):
    X=              1.4949    Y=              1.8062    Z=              0.3894  Tot=              2.3768
 Quadrupole moment (field-independent basis, Debye-Ang):
   XX=            -26.9766   YY=            -31.5933   ZZ=            -29.4582
   XY=             -2.9027   XZ=              0.0437   YZ=             -1.4129
 Traceless Quadrupole moment (field-independent basis, Debye-Ang):
   XX=              2.3661   YY=             -2.2506   ZZ=             -0.1155
   XY=             -2.9027   XZ=              0.0437   YZ=             -1.4129
 Octapole moment (field-independent basis, Debye-Ang**2):
  XXX=             -1.9161  YYY=             -2.0583  ZZZ=             -0.7634  XYY=             -3.5078
  XXY=              0.7057  XXZ=             -2.1233  XZZ=              0.6511  YZZ=             -4.5980
  YYZ=              0.8123  XYZ=             -1.1031
 Hexadecapole moment (field-independent basis, Debye-Ang**3):
 XXXX=           -310.7078 YYYY=           -141.1265 ZZZZ=            -57.1639 XXXY=             -0.9654
 XXXZ=              4.8328 YYYX=              3.8220 YYYZ=              2.2079 ZZZX=              1.4524
 ZZZY=             -2.0716 XXYY=            -88.2030 XXZZ=            -68.4681 YYZZ=            -35.9609
 XXYZ=             -4.6418 YYXZ=              0.2478 ZZXY=              4.3290
 N-N= 1.563669394282D+02 E-N=-9.104174241966D+02  KE= 2.536619881020D+02
 No NMR shielding tensors so no spin-rotation constants.
 Leave Link  601 at Wed May 12 11:56:09 2021, MaxMem=  2147483648 cpu:         0.6
 (Enter /opt/cluster/programs/g09_d.01/g09/l9999.exe)
 1\1\GINC-NODE07\FOpt\RwB97XD\6-31+G\C4H5F1\BOITTIER\12-May-2021\0\\#p 
 wB97XD/6-31+G Opt=ModRedun\\B.pdb\\0,1\C,-1.2103300982,-1.1673366758,-
 0.0103490194\C,-0.4774006202,-0.0625604975,-0.070138542\C,0.9245437655
 ,0.1273549394,-0.4834357448\C,1.9650877597,-0.1302495992,0.3150219426\
 H,-2.2553100872,-1.1339510646,0.2712587373\H,-0.7607821755,-2.12616877
 19,-0.2344927483\F,-1.1155674409,1.1774139663,0.1876174049\H,1.0741714
 801,0.5693457246,-1.4663179715\H,1.8278294364,-0.5339540348,1.31380750
 03\H,2.9843159802,0.0463280134,-0.0121765591\\Version=ES64L-G09RevD.01
 \State=1-A\HF=-255.0940457\RMSD=6.406e-09\RMSF=1.921e-03\Dipole=0.5868
 101,-0.7103522,-0.1594999\Quadrupole=1.7637713,-1.6654293,-0.0983421,2
 .1507372,-0.0273049,-1.067391\PG=C01 [X(C4H5F1)]\\@


 I WANT IT ALL - RICH, THIN, AND CHOCOLATE.
 Job cpu time:       0 days  0 hours  1 minutes 18.3 seconds.
 File lengths (MBytes):  RWF=      5 Int=      0 D2E=      0 Chk=      2 Scr=      1
 Normal termination of Gaussian 09 at Wed May 12 11:56:09 2021.
