N.pdb                                                                   
FOpt      RwB97XD                                                     6-31+G              
Number of atoms                            I               13
Info1-9                                    I   N=           9
          24          24           0           0           0         100
           2          18        -802
Charge                                     I                0
Multiplicity                               I                1
Number of electrons                        I               64
Number of alpha electrons                  I               32
Number of beta electrons                   I               32
Number of basis functions                  I              114
Number of independent functions            I              114
Number of point charges in /Mol/           I                0
Number of translation vectors              I                0
Atomic numbers                             I   N=          13
           6           6           1           1           1           6
           8           6           1           1           9           9
           9
Nuclear charges                            R   N=          13
  6.00000000E+00  6.00000000E+00  1.00000000E+00  1.00000000E+00  1.00000000E+00
  6.00000000E+00  8.00000000E+00  6.00000000E+00  1.00000000E+00  1.00000000E+00
  9.00000000E+00  9.00000000E+00  9.00000000E+00
Current cartesian coordinates              R   N=          39
  3.18141253E+00  2.39515795E+00 -4.53156327E-02  2.92799836E+00 -4.28712719E-01
 -8.45331191E-02  2.51004196E+00  3.21457533E+00 -1.82323045E+00  5.16355950E+00
  2.88118040E+00  2.37253226E-01  2.04421880E+00  3.22109678E+00  1.47281475E+00
  3.57303748E-01 -1.68703033E+00 -5.01355681E-01  4.77102369E+00 -1.84286848E+00
  1.38184334E-01 -1.96562698E+00 -1.44770029E-01 -2.78545632E-03  2.80208591E-01
 -3.37529276E+00  6.86382547E-01  2.72755511E-01 -2.32411181E+00 -2.47073755E+00
 -2.03389901E+00  8.26399915E-01  2.44415099E+00 -4.13849456E+00 -1.59070154E+00
 -3.00572280E-01 -2.21044100E+00  1.91070587E+00 -1.63291235E+00
Force Field                                I                0
Int Atom Types                             I   N=          13
           0           0           0           0           0           0
           0           0           0           0           0           0
           0
MM charges                                 R   N=          13
  0.00000000E+00  0.00000000E+00  0.00000000E+00  0.00000000E+00  0.00000000E+00
  0.00000000E+00  0.00000000E+00  0.00000000E+00  0.00000000E+00  0.00000000E+00
  0.00000000E+00  0.00000000E+00  0.00000000E+00
Integer atomic weights                     I   N=          13
          12          12           1           1           1          12
          16          12           1           1          19          19
          19
Real atomic weights                        R   N=          13
  1.20000000E+01  1.20000000E+01  1.00782504E+00  1.00782504E+00  1.00782504E+00
  1.20000000E+01  1.59949146E+01  1.20000000E+01  1.00782504E+00  1.00782504E+00
  1.89984032E+01  1.89984032E+01  1.89984032E+01
Atom fragment info                         I   N=          13
           0           0           0           0           0           0
           0           0           0           0           0           0
           0
Atom residue num                           I   N=          13
           0           0           0           0           0           0
           0           0           0           0           0           0
           0
Nuclear spins                              I   N=          13
           0           0           1           1           1           0
           0           0           1           1           1           1
           1
Nuclear ZEff                               R   N=          13
 -3.60000000E+00 -3.60000000E+00 -1.00000000E+00 -1.00000000E+00 -1.00000000E+00
 -3.60000000E+00 -5.60000000E+00 -3.60000000E+00 -1.00000000E+00 -1.00000000E+00
 -6.75000000E+00 -6.75000000E+00 -6.75000000E+00
Nuclear ZNuc                               R   N=          13
  6.00000000E+00  6.00000000E+00  1.00000000E+00  1.00000000E+00  1.00000000E+00
  6.00000000E+00  8.00000000E+00  6.00000000E+00  1.00000000E+00  1.00000000E+00
  9.00000000E+00  9.00000000E+00  9.00000000E+00
Nuclear QMom                               R   N=          13
  0.00000000E+00  0.00000000E+00  0.00000000E+00  0.00000000E+00  0.00000000E+00
  0.00000000E+00  0.00000000E+00  0.00000000E+00  0.00000000E+00  0.00000000E+00
  0.00000000E+00  0.00000000E+00  0.00000000E+00
Nuclear GFac                               R   N=          13
  0.00000000E+00  0.00000000E+00  2.79284600E+00  2.79284600E+00  2.79284600E+00
  0.00000000E+00  0.00000000E+00  0.00000000E+00  2.79284600E+00  2.79284600E+00
  2.62886700E+00  2.62886700E+00  2.62886700E+00
MicOpt                                     I   N=          13
          -1          -1          -1          -1          -1          -1
          -1          -1          -1          -1          -1          -1
          -1
Number of contracted shells                I               42
Number of primitive shells                 I              108
Pure/Cartesian d shells                    I                1
Pure/Cartesian f shells                    I                0
Highest angular momentum                   I                1
Largest degree of contraction              I                6
Shell types                                I   N=          42
           0          -1          -1          -1           0          -1
          -1          -1           0           0           0           0
           0           0           0          -1          -1          -1
           0          -1          -1          -1           0          -1
          -1          -1           0           0           0           0
           0          -1          -1          -1           0          -1
          -1          -1           0          -1          -1          -1
Number of primitives per shell             I   N=          42
           6           3           1           1           6           3
           1           1           3           1           3           1
           3           1           6           3           1           1
           6           3           1           1           6           3
           1           1           3           1           3           1
           6           3           1           1           6           3
           1           1           6           3           1           1
Shell to atom map                          I   N=          42
           1           1           1           1           2           2
           2           2           3           3           4           4
           5           5           6           6           6           6
           7           7           7           7           8           8
           8           8           9           9          10          10
          11          11          11          11          12          12
          12          12          13          13          13          13
Primitive exponents                        R   N=         108
  3.04752488E+03  4.57369518E+02  1.03948685E+02  2.92101553E+01  9.28666296E+00
  3.16392696E+00  7.86827235E+00  1.88128854E+00  5.44249258E-01  1.68714478E-01
  4.38000000E-02  3.04752488E+03  4.57369518E+02  1.03948685E+02  2.92101553E+01
  9.28666296E+00  3.16392696E+00  7.86827235E+00  1.88128854E+00  5.44249258E-01
  1.68714478E-01  4.38000000E-02  1.87311370E+01  2.82539436E+00  6.40121692E-01
  1.61277759E-01  1.87311370E+01  2.82539436E+00  6.40121692E-01  1.61277759E-01
  1.87311370E+01  2.82539436E+00  6.40121692E-01  1.61277759E-01  3.04752488E+03
  4.57369518E+02  1.03948685E+02  2.92101553E+01  9.28666296E+00  3.16392696E+00
  7.86827235E+00  1.88128854E+00  5.44249258E-01  1.68714478E-01  4.38000000E-02
  5.48467166E+03  8.25234946E+02  1.88046958E+02  5.29645000E+01  1.68975704E+01
  5.79963534E+00  1.55396162E+01  3.59993359E+00  1.01376175E+00  2.70005823E-01
  8.45000000E-02  3.04752488E+03  4.57369518E+02  1.03948685E+02  2.92101553E+01
  9.28666296E+00  3.16392696E+00  7.86827235E+00  1.88128854E+00  5.44249258E-01
  1.68714478E-01  4.38000000E-02  1.87311370E+01  2.82539436E+00  6.40121692E-01
  1.61277759E-01  1.87311370E+01  2.82539436E+00  6.40121692E-01  1.61277759E-01
  7.00171309E+03  1.05136609E+03  2.39285690E+02  6.73974453E+01  2.15199573E+01
  7.40310130E+00  2.08479528E+01  4.80830834E+00  1.34406986E+00  3.58151393E-01
  1.07600000E-01  7.00171309E+03  1.05136609E+03  2.39285690E+02  6.73974453E+01
  2.15199573E+01  7.40310130E+00  2.08479528E+01  4.80830834E+00  1.34406986E+00
  3.58151393E-01  1.07600000E-01  7.00171309E+03  1.05136609E+03  2.39285690E+02
  6.73974453E+01  2.15199573E+01  7.40310130E+00  2.08479528E+01  4.80830834E+00
  1.34406986E+00  3.58151393E-01  1.07600000E-01
Contraction coefficients                   R   N=         108
  1.83473713E-03  1.40373228E-02  6.88426223E-02  2.32184443E-01  4.67941348E-01
  3.62311985E-01 -1.19332420E-01 -1.60854152E-01  1.14345644E+00  1.00000000E+00
  1.00000000E+00  1.83473713E-03  1.40373228E-02  6.88426223E-02  2.32184443E-01
  4.67941348E-01  3.62311985E-01 -1.19332420E-01 -1.60854152E-01  1.14345644E+00
  1.00000000E+00  1.00000000E+00  3.34946043E-02  2.34726953E-01  8.13757326E-01
  1.00000000E+00  3.34946043E-02  2.34726953E-01  8.13757326E-01  1.00000000E+00
  3.34946043E-02  2.34726953E-01  8.13757326E-01  1.00000000E+00  1.83473713E-03
  1.40373228E-02  6.88426223E-02  2.32184443E-01  4.67941348E-01  3.62311985E-01
 -1.19332420E-01 -1.60854152E-01  1.14345644E+00  1.00000000E+00  1.00000000E+00
  1.83107443E-03  1.39501722E-02  6.84450781E-02  2.32714336E-01  4.70192898E-01
  3.58520853E-01 -1.10777550E-01 -1.48026263E-01  1.13076702E+00  1.00000000E+00
  1.00000000E+00  1.83473713E-03  1.40373228E-02  6.88426223E-02  2.32184443E-01
  4.67941348E-01  3.62311985E-01 -1.19332420E-01 -1.60854152E-01  1.14345644E+00
  1.00000000E+00  1.00000000E+00  3.34946043E-02  2.34726953E-01  8.13757326E-01
  1.00000000E+00  3.34946043E-02  2.34726953E-01  8.13757326E-01  1.00000000E+00
  1.81961690E-03  1.39160796E-02  6.84053245E-02  2.33185760E-01  4.71267439E-01
  3.56618546E-01 -1.08506975E-01 -1.46451658E-01  1.12868858E+00  1.00000000E+00
  1.00000000E+00  1.81961690E-03  1.39160796E-02  6.84053245E-02  2.33185760E-01
  4.71267439E-01  3.56618546E-01 -1.08506975E-01 -1.46451658E-01  1.12868858E+00
  1.00000000E+00  1.00000000E+00  1.81961690E-03  1.39160796E-02  6.84053245E-02
  2.33185760E-01  4.71267439E-01  3.56618546E-01 -1.08506975E-01 -1.46451658E-01
  1.12868858E+00  1.00000000E+00  1.00000000E+00
P(S=P) Contraction coefficients            R   N=         108
  0.00000000E+00  0.00000000E+00  0.00000000E+00  0.00000000E+00  0.00000000E+00
  0.00000000E+00  6.89990666E-02  3.16423961E-01  7.44308291E-01  1.00000000E+00
  1.00000000E+00  0.00000000E+00  0.00000000E+00  0.00000000E+00  0.00000000E+00
  0.00000000E+00  0.00000000E+00  6.89990666E-02  3.16423961E-01  7.44308291E-01
  1.00000000E+00  1.00000000E+00  0.00000000E+00  0.00000000E+00  0.00000000E+00
  0.00000000E+00  0.00000000E+00  0.00000000E+00  0.00000000E+00  0.00000000E+00
  0.00000000E+00  0.00000000E+00  0.00000000E+00  0.00000000E+00  0.00000000E+00
  0.00000000E+00  0.00000000E+00  0.00000000E+00  0.00000000E+00  0.00000000E+00
  6.89990666E-02  3.16423961E-01  7.44308291E-01  1.00000000E+00  1.00000000E+00
  0.00000000E+00  0.00000000E+00  0.00000000E+00  0.00000000E+00  0.00000000E+00
  0.00000000E+00  7.08742682E-02  3.39752839E-01  7.27158577E-01  1.00000000E+00
  1.00000000E+00  0.00000000E+00  0.00000000E+00  0.00000000E+00  0.00000000E+00
  0.00000000E+00  0.00000000E+00  6.89990666E-02  3.16423961E-01  7.44308291E-01
  1.00000000E+00  1.00000000E+00  0.00000000E+00  0.00000000E+00  0.00000000E+00
  0.00000000E+00  0.00000000E+00  0.00000000E+00  0.00000000E+00  0.00000000E+00
  0.00000000E+00  0.00000000E+00  0.00000000E+00  0.00000000E+00  0.00000000E+00
  0.00000000E+00  7.16287242E-02  3.45912103E-01  7.22469956E-01  1.00000000E+00
  1.00000000E+00  0.00000000E+00  0.00000000E+00  0.00000000E+00  0.00000000E+00
  0.00000000E+00  0.00000000E+00  7.16287242E-02  3.45912103E-01  7.22469956E-01
  1.00000000E+00  1.00000000E+00  0.00000000E+00  0.00000000E+00  0.00000000E+00
  0.00000000E+00  0.00000000E+00  0.00000000E+00  7.16287242E-02  3.45912103E-01
  7.22469956E-01  1.00000000E+00  1.00000000E+00
Coordinates of each shell                  R   N=         126
  3.18141245E+00  2.39515817E+00 -4.53158689E-02  3.18141245E+00  2.39515817E+00
 -4.53158689E-02  3.18141245E+00  2.39515817E+00 -4.53158689E-02  3.18141245E+00
  2.39515817E+00 -4.53158689E-02  2.92799858E+00 -4.28712531E-01 -8.45333553E-02
  2.92799858E+00 -4.28712531E-01 -8.45333553E-02  2.92799858E+00 -4.28712531E-01
 -8.45333553E-02  2.92799858E+00 -4.28712531E-01 -8.45333553E-02  2.51004181E+00
  3.21457547E+00 -1.82323069E+00  2.51004181E+00  3.21457547E+00 -1.82323069E+00
  5.16355937E+00  2.88118082E+00  2.37252990E-01  5.16355937E+00  2.88118082E+00
  2.37252990E-01  2.04421864E+00  3.22109687E+00  1.47281452E+00  2.04421864E+00
  3.22109687E+00  1.47281452E+00  3.57304101E-01 -1.68703041E+00 -5.01355918E-01
  3.57304101E-01 -1.68703041E+00 -5.01355918E-01  3.57304101E-01 -1.68703041E+00
 -5.01355918E-01  3.57304101E-01 -1.68703041E+00 -5.01355918E-01  4.77102406E+00
 -1.84286810E+00  1.38184098E-01  4.77102406E+00 -1.84286810E+00  1.38184098E-01
  4.77102406E+00 -1.84286810E+00  1.38184098E-01  4.77102406E+00 -1.84286810E+00
  1.38184098E-01 -1.96562679E+00 -1.44770353E-01 -2.78569254E-03 -1.96562679E+00
 -1.44770353E-01 -2.78569254E-03 -1.96562679E+00 -1.44770353E-01 -2.78569254E-03
 -1.96562679E+00 -1.44770353E-01 -2.78569254E-03  2.80209121E-01 -3.37529285E+00
  6.86382310E-01  2.80209121E-01 -3.37529285E+00  6.86382310E-01  2.72755931E-01
 -2.32411190E+00 -2.47073779E+00  2.72755931E-01 -2.32411190E+00 -2.47073779E+00
 -2.03389892E+00  8.26399584E-01  2.44415076E+00 -2.03389892E+00  8.26399584E-01
  2.44415076E+00 -2.03389892E+00  8.26399584E-01  2.44415076E+00 -2.03389892E+00
  8.26399584E-01  2.44415076E+00 -4.13849422E+00 -1.59070209E+00 -3.00572516E-01
 -4.13849422E+00 -1.59070209E+00 -3.00572516E-01 -4.13849422E+00 -1.59070209E+00
 -3.00572516E-01 -4.13849422E+00 -1.59070209E+00 -3.00572516E-01 -2.21044103E+00
  1.91070552E+00 -1.63291259E+00 -2.21044103E+00  1.91070552E+00 -1.63291259E+00
 -2.21044103E+00  1.91070552E+00 -1.63291259E+00 -2.21044103E+00  1.91070552E+00
 -1.63291259E+00
Constraint Structure                       R   N=          39
  3.18141245E+00  2.39515817E+00 -4.53158689E-02  2.92799858E+00 -4.28712531E-01
 -8.45333553E-02  2.51004181E+00  3.21457547E+00 -1.82323069E+00  5.16355937E+00
  2.88118082E+00  2.37252990E-01  2.04421864E+00  3.22109687E+00  1.47281452E+00
  3.57304101E-01 -1.68703041E+00 -5.01355918E-01  4.77102406E+00 -1.84286810E+00
  1.38184098E-01 -1.96562679E+00 -1.44770353E-01 -2.78569254E-03  2.80209121E-01
 -3.37529285E+00  6.86382310E-01  2.72755931E-01 -2.32411190E+00 -2.47073779E+00
 -2.03389892E+00  8.26399584E-01  2.44415076E+00 -4.13849422E+00 -1.59070209E+00
 -3.00572516E-01 -2.21044103E+00  1.91070552E+00 -1.63291259E+00
Num ILSW                                   I              100
ILSW                                       I   N=         100
           0           1           0           0           2           0
           0           0           0           0        4639          -1
           0           0           0           0           2           0
           0           0           0           0           1           0
           1           0           0           0           0           0
           0           0      100000           0          -1           0
           0           0           0           0           0           0
           0           0           0           1           0           0
           0           0           1           0           0           0
           0           0         121          41           0           0
           0           0          58           0           0           0
           0           0           0          13           0           0
           0           0           0           0           0           0
           0           0           0           0           0           0
           0           0           0           0           0           0
           0           0           0           0           0           0
           0           0           0           0
Num RLSW                                   I               41
RLSW                                       R   N=          41
  1.00000000E+00  1.00000000E+00  1.00000000E+00  1.00000000E+00  1.00000000E+00
  0.00000000E+00  2.00000000E-01  2.22036000E-01  0.00000000E+00  7.77964000E-01
  0.00000000E+00  2.00000000E-01  0.00000000E+00  0.00000000E+00  1.00000000E+00
  0.00000000E+00  0.00000000E+00  1.00000000E+00  0.00000000E+00  0.00000000E+00
  0.00000000E+00  0.00000000E+00  1.00000000E+00  0.00000000E+00  0.00000000E+00
  0.00000000E+00  0.00000000E+00  1.00000000E+00  0.00000000E+00  0.00000000E+00
  0.00000000E+00  0.00000000E+00  1.00000000E+00  0.00000000E+00  0.00000000E+00
  0.00000000E+00  0.00000000E+00  0.00000000E+00  1.00000000E+00  1.00000000E+00
  0.00000000E+00
MxBond                                     I                4
NBond                                      I   N=          13
           4           3           1           1           1           4
           1           4           1           1           1           1
           1
IBond                                      I   N=          52
           2           3           4           5           1           6
           7           0           1           0           0           0
           1           0           0           0           1           0
           0           0           2           8           9          10
           2           0           0           0           6          11
          12          13           6           0           0           0
           6           0           0           0           8           0
           0           0           8           0           0           0
           8           0           0           0
RBond                                      R   N=          52
  1.00000000E+00  1.00000000E+00  1.00000000E+00  1.00000000E+00  1.00000000E+00
  1.00000000E+00  2.00000000E+00  0.00000000E+00  1.00000000E+00  0.00000000E+00
  0.00000000E+00  0.00000000E+00  1.00000000E+00  0.00000000E+00  0.00000000E+00
  0.00000000E+00  1.00000000E+00  0.00000000E+00  0.00000000E+00  0.00000000E+00
  1.00000000E+00  1.00000000E+00  1.00000000E+00  1.00000000E+00  2.00000000E+00
  0.00000000E+00  0.00000000E+00  0.00000000E+00  1.00000000E+00  1.00000000E+00
  1.00000000E+00  1.00000000E+00  1.00000000E+00  0.00000000E+00  0.00000000E+00
  0.00000000E+00  1.00000000E+00  0.00000000E+00  0.00000000E+00  0.00000000E+00
  1.00000000E+00  0.00000000E+00  0.00000000E+00  0.00000000E+00  1.00000000E+00
  0.00000000E+00  0.00000000E+00  0.00000000E+00  1.00000000E+00  0.00000000E+00
  0.00000000E+00  0.00000000E+00
Virial Ratio                               R      2.005192852533567E+00
SCF Energy                                 R     -5.299276408545009E+02
Total Energy                               R     -5.299276408545009E+02
RMS Force                                  R      2.025229066870445E-04
RMS Density                                R      4.587360152884982E-09
External E-field                           R   N=          35
  0.00000000E+00  0.00000000E+00  0.00000000E+00  0.00000000E+00  0.00000000E+00
  0.00000000E+00  0.00000000E+00  0.00000000E+00  0.00000000E+00  0.00000000E+00
  0.00000000E+00  0.00000000E+00  0.00000000E+00  0.00000000E+00  0.00000000E+00
  0.00000000E+00  0.00000000E+00  0.00000000E+00  0.00000000E+00  0.00000000E+00
  0.00000000E+00  0.00000000E+00  0.00000000E+00  0.00000000E+00  0.00000000E+00
  0.00000000E+00  0.00000000E+00  0.00000000E+00  0.00000000E+00  0.00000000E+00
  0.00000000E+00  0.00000000E+00  0.00000000E+00  0.00000000E+00  0.00000000E+00
IOpCl                                      I                0
IROHF                                      I                0
Alpha Orbital Energies                     R   N=         114
 -2.48928811E+01 -2.48927661E+01 -2.48911760E+01 -1.93018112E+01 -1.05955094E+01
 -1.04398272E+01 -1.03646959E+01 -1.03199427E+01 -1.44061874E+00 -1.35579251E+00
 -1.35518981E+00 -1.19435237E+00 -9.52610579E-01 -8.72303975E-01 -8.02721778E-01
 -7.11253161E-01 -7.04535648E-01 -6.93087796E-01 -6.42581192E-01 -5.98251580E-01
 -5.84753160E-01 -5.77300878E-01 -5.70710582E-01 -5.51036571E-01 -5.42108441E-01
 -5.37655419E-01 -5.29222462E-01 -5.22963768E-01 -5.04469866E-01 -4.95588178E-01
 -4.59655730E-01 -3.69645934E-01  1.40094058E-02  6.24877426E-02  8.16084605E-02
  9.54145882E-02  1.00728264E-01  1.06434937E-01  1.12150635E-01  1.16166515E-01
  1.28948861E-01  1.34026393E-01  1.37572232E-01  1.60470757E-01  1.65882455E-01
  1.75422029E-01  1.77163097E-01  1.80664979E-01  1.85077049E-01  2.07029411E-01
  2.10366762E-01  2.22365170E-01  2.50843879E-01  2.66763221E-01  2.79334908E-01
  2.93298029E-01  3.13432568E-01  3.32590085E-01  3.38242353E-01  3.46039478E-01
  3.61214279E-01  3.72982490E-01  3.81313092E-01  3.86640315E-01  3.89493052E-01
  4.04118172E-01  4.18007364E-01  4.29691430E-01  4.34180192E-01  4.43001967E-01
  4.50577353E-01  4.52499684E-01  4.71093151E-01  4.94218425E-01  5.09048260E-01
  5.23743876E-01  5.44264192E-01  7.22243947E-01  7.36244144E-01  7.52363945E-01
  7.67561131E-01  8.07641860E-01  8.29904549E-01  8.37998323E-01  8.66946423E-01
  9.13083531E-01  9.37056025E-01  9.53111754E-01  1.06867551E+00  1.10683371E+00
  1.14758564E+00  1.16524498E+00  1.19996157E+00  1.22167911E+00  1.22823968E+00
  1.34072341E+00  1.38851489E+00  1.43731750E+00  1.47549891E+00  1.51226489E+00
  1.56917892E+00  1.59068913E+00  1.65235625E+00  1.67010349E+00  1.68802622E+00
  1.74124765E+00  1.79546961E+00  1.82305207E+00  1.83610109E+00  1.85446344E+00
  1.97109152E+00  2.28909862E+00  2.33794387E+00  2.69653349E+00
Alpha MO coefficients                      R   N=       12996
  5.57854410E-05  5.38750525E-04 -2.20814184E-04  1.08958584E-05 -1.78067600E-05
 -1.64200421E-03  1.53739889E-03  5.82752641E-04  1.55407454E-04  5.17413330E-03
 -6.21971438E-04 -8.28055356E-04  2.80046880E-05 -2.89078073E-05 -1.29942936E-04
 -7.40015170E-05  1.03921447E-05 -3.21911280E-06  2.86962330E-03 -8.38298935E-04
  2.86782379E-04 -2.91932323E-04  1.61126907E-03 -8.16971547E-04 -3.16135015E-03
 -5.10857390E-07  2.25434523E-04 -1.91260440E-05 -4.56691801E-05 -7.64590212E-04
  2.12942375E-04  4.62298901E-04  1.08576331E-04  5.91585172E-04  1.71955538E-04
 -1.25345297E-04 -1.03762594E-04 -4.18885637E-03  4.13034865E-04 -2.11694230E-03
  6.84409444E-04  1.22822253E-02 -5.65945178E-03  2.52226019E-03  2.21860831E-04
  4.39055304E-06  7.29028453E-05 -3.84880021E-05  3.43217722E-05 -1.92056131E-05
 -1.73254659E-04  3.00340725E-04 -2.15246486E-04  1.24586110E-04 -8.56350941E-04
  3.47108439E-05  2.86041742E-04 -1.05859568E-04 -2.16514188E-04 -1.01299614E-03
 -2.20704659E-04  6.20621474E-04 -3.84681874E-04  8.15755350E-03  9.42230819E-06
  1.32232746E-03 -2.40938051E-04 -2.26314995E-02 -5.73320910E-03  1.68647025E-03
  1.57644593E-03 -2.44636951E-05 -5.97407209E-05  3.19834027E-04  3.46361596E-04
  1.19860709E-01  3.78152496E-03  3.18107971E-05 -6.10830692E-05 -2.05696198E-04
 -3.68368127E-03 -1.07050706E-04  1.33931432E-04  1.36427876E-03  3.72773659E-04
  4.54846654E-04 -5.47459984E-04  1.11754888E-03  5.11577640E-03  4.80827282E-04
  3.71315505E-05  3.58982666E-05 -2.09789193E-06 -1.49532132E-03 -7.15946021E-04
 -8.16453839E-04  6.36389624E-05 -1.02020427E-03 -1.98442420E-04 -8.72183144E-04
  3.00635211E-04  9.87792119E-01  2.78718189E-02  1.87680229E-04 -1.10009895E-03
  8.92634441E-04 -1.69685480E-02 -4.55721142E-04  2.18200739E-03 -1.93248633E-03
  1.11084862E-02  1.01727066E-03 -2.18165422E-03  1.80379009E-03 -3.21107570E-06
  4.42603082E-05 -1.00245219E-04 -5.96004808E-05  2.75399663E-05  1.10614650E-03
  6.21530185E-05 -1.43811579E-04  3.62073585E-05  1.16079973E-02 -1.73505856E-03
 -2.48437624E-03  5.36606230E-04  7.49321144E-06  1.89708588E-04 -1.13856673E-04
  6.27665737E-05  2.78772105E-05  9.60910155E-04  3.40644261E-04 -1.42264117E-03
  1.54958731E-04 -1.29061506E-02  2.28745640E-03 -4.00116664E-03 -6.95696580E-04
 -2.69472979E-05  1.28573873E-04 -2.39091351E-05 -3.02100418E-04  1.10108990E-04
 -9.32972446E-04  6.24709804E-05  2.95957232E-04  1.93595292E-04 -1.52771746E-04
  5.45165046E-05 -2.00094520E-03 -2.73081598E-04 -4.46247381E-05 -1.92612531E-03
  2.26050653E-02 -4.57149979E-03  4.36488855E-03  1.56425717E-03  9.16897375E-06
  1.10362390E-04 -2.21155887E-05  1.68214957E-05 -1.28905046E-05 -8.51585557E-04
  4.19059535E-04 -1.63364709E-04  4.32892250E-05 -4.10743923E-04 -2.98838904E-04
  1.59769887E-04  1.94722344E-04 -1.50028144E-04 -6.73710070E-04 -1.37657637E-04
  2.13278300E-04  7.48625842E-04  5.26634164E-03 -3.23046693E-04  9.00267689E-04
  1.48455253E-03 -2.44233292E-02 -5.99597807E-03  2.05523941E-03 -4.26343992E-05
  3.18619304E-04  5.20516179E-04 -1.07857238E-04 -3.49361034E-04  9.87790085E-01
  2.77306179E-02  8.25459864E-05 -5.08523099E-04 -1.32287793E-03 -1.63937395E-02
 -1.82783319E-04  9.34507140E-04  2.49105438E-03  1.09167199E-02  6.15059224E-04
 -8.66932551E-04 -2.61569919E-03  2.91998599E-03  3.00182661E-04  1.85084931E-05
  2.19337804E-05  2.37650139E-05 -9.57758527E-04 -4.79918458E-04 -4.87810107E-04
 -4.67754642E-04 -8.91887984E-04 -3.21164622E-04 -4.67545022E-04 -7.49053388E-04
 -1.19821125E-01 -2.96731560E-03 -8.96446123E-06  1.17605617E-04 -7.64665501E-05
  3.92986911E-04 -5.15293561E-05  1.90131868E-04 -6.16164026E-04 -1.46998138E-03
  7.35278172E-06  3.56689591E-04 -1.44435630E-03  9.53514495E-06  3.03467127E-05
  5.47980024E-05  3.62668983E-05  2.77415284E-05 -1.27119608E-03  2.82256956E-05
  6.66130228E-04 -2.63020053E-04 -4.03234744E-03  8.83364305E-04  9.00003180E-04
 -1.27360644E-05 -6.95284353E-06 -1.43213332E-04  6.31305477E-05 -8.19990775E-05
 -2.76678528E-05 -9.91808436E-04 -3.77410177E-04  2.20740414E-03  2.71825801E-04
  4.20866552E-03 -1.33950150E-03  9.19406628E-04 -1.88130709E-04  3.75659168E-05
 -2.73745169E-04  2.19125833E-05  1.49140926E-04  2.53317319E-06  3.36632824E-04
  6.32201903E-05  2.36823671E-04  7.63573570E-05 -6.54914275E-05 -5.59002934E-05
 -2.06230690E-03  3.24469730E-03 -4.43688895E-04  1.85287593E-04  7.21581039E-03
 -1.20477428E-03  8.19788549E-04  6.72574158E-04 -1.12103015E-05 -1.41150797E-04
  1.37846179E-05 -1.06061958E-05  1.27242310E-05  1.15148486E-03 -4.29376014E-04
  1.26999415E-04 -1.35941487E-04 -4.71748896E-05  5.08724038E-04  9.54254010E-05
  6.16425507E-05 -2.13030716E-04 -1.08071887E-03 -6.05313423E-04 -3.48872396E-04
 -5.44138078E-05  9.35298546E-03 -1.75075179E-03 -1.10083627E-03 -4.15384909E-04
 -9.03420934E-03 -1.06735975E-03  2.48005146E-03  2.92101019E-04  1.89452487E-04
 -4.91615373E-04  2.54030332E-04 -2.37193908E-04 -3.47232319E-03  1.59249918E-04
 -3.62678770E-05 -3.13232820E-05 -1.92631643E-05 -1.02669443E-03  4.53134394E-04
  5.61311056E-04  7.73043362E-04 -2.21540762E-03  3.26925726E-04  7.37511493E-04
  1.02761885E-03  9.95024120E-01  2.79526271E-02  1.22793072E-03  8.05258296E-04
  1.60246075E-04 -1.66818284E-02 -2.54682777E-03 -1.72843757E-03 -3.33260119E-04
  8.79391337E-03  1.96091397E-03  1.14660390E-03  2.64979138E-04 -4.67837085E-03
  1.81387714E-04 -2.22742373E-05 -3.35062197E-05  5.76573851E-07 -1.28469829E-03
  3.19168365E-04  9.09087721E-04 -4.32704877E-04 -1.95178706E-03  6.37564946E-04
  1.12229961E-03 -3.78644443E-04 -2.46213927E-05 -3.83762348E-04 -7.51127858E-05
  1.12753103E-04 -1.26377069E-05  3.11534008E-03 -2.04385537E-03 -9.75832368E-04
 -1.79665476E-04  1.69456579E-02 -4.12791584E-04 -4.25776550E-03 -8.33747903E-05
  2.27523483E-04  4.04565049E-04 -8.14815627E-05  1.50597166E-04  1.25448928E-05
  7.59292648E-03  6.65243613E-03 -7.42792011E-03  8.56291232E-04 -3.22565103E-02
  1.53859973E-03 -3.16237792E-03  4.95029868E-04 -1.11346376E-04 -4.16851764E-04
  1.01854150E-04  1.49841026E-04 -6.20978110E-05 -7.59022354E-04 -2.18557856E-05
 -4.60281021E-04 -6.36687943E-05 -4.56235552E-05  9.59123146E-05  1.19280393E-03
 -2.24956116E-03  1.62362516E-03 -1.19603890E-03  2.18340319E-02 -1.57419110E-04
  3.87281149E-03 -3.43664832E-05  9.95242447E-01  2.98232824E-02 -1.82540902E-03
  1.31595576E-03 -2.33784321E-04 -2.37225339E-02  4.91020984E-03 -3.27930327E-03
  6.10137137E-04  8.06658852E-03 -8.93981649E-04  4.40819948E-04 -1.39061280E-04
 -1.89623226E-05 -2.74579973E-04 -2.57209307E-04 -3.57132609E-05 -4.76424622E-05
 -1.12325920E-03  1.03760887E-03  1.84217276E-03  1.29387432E-03 -1.05147509E-02
 -2.13601247E-03  1.08007414E-03  1.32373182E-03  1.42627232E-04  3.75958967E-05
  3.54205145E-05 -1.48215192E-03  6.91725735E-06  1.21572386E-04  1.38964432E-05
  1.90064577E-05 -2.44103808E-05 -6.68663398E-04 -1.93233162E-04 -5.43603984E-05
  2.77083410E-04 -3.11900158E-04  4.42330189E-04  3.00905173E-05  2.20571062E-04
 -6.44754122E-06 -1.24138217E-04 -2.92836712E-05 -2.93295069E-05  1.00437213E-05
  6.72761773E-04  3.34734109E-04  2.11887274E-04 -6.25073082E-05  1.18207680E-03
  1.46072652E-04  2.99674172E-04  5.06551775E-05  2.14012694E-06  6.99887688E-05
  3.50246011E-05 -2.35277960E-06  3.21045899E-05 -2.08609196E-04 -2.25848880E-04
 -4.59603466E-06 -2.10055239E-04 -1.42472654E-04 -2.66889355E-04 -1.36237527E-04