L.pdb                                                                   
Freq      RB3LYP                                                      6-31+G              
Number of atoms                            I                8
Info1-9                                    I   N=           9
          17          17        1002           0           0         100
           6          18        -502
Charge                                     I                0
Multiplicity                               I                1
Number of electrons                        I               30
Number of alpha electrons                  I               15
Number of beta electrons                   I               15
Number of basis functions                  I               60
Number of independent functions            I               60
Number of point charges in /Mol/           I                0
Number of translation vectors              I                0
Atomic numbers                             I   N=           8
           6           6           6           8           1           1
           1           1
Nuclear charges                            R   N=           8
  6.00000000E+00  6.00000000E+00  6.00000000E+00  8.00000000E+00  1.00000000E+00
  1.00000000E+00  1.00000000E+00  1.00000000E+00
Current cartesian coordinates              R   N=          24
 -3.35634028E+00  2.55632790E-01 -3.48982325E-06 -1.06124659E+00 -8.38500656E-01
  1.64009456E-06  1.26165884E+00  6.77828819E-01  2.07919856E-05  3.42682432E+00
 -2.37752713E-01 -8.12699685E-06  1.00052171E+00  2.75033245E+00 -3.68791225E-05
 -5.08924519E+00 -8.40492079E-01 -7.15746619E-06 -3.56576967E+00  2.30184640E+00
 -8.19934652E-07 -8.24533228E-01 -2.87943078E+00 -3.78104326E-06
Force Field                                I                0
Int Atom Types                             I   N=           8
           0           0           0           0           0           0
           0           0
MM charges                                 R   N=           8
  0.00000000E+00  0.00000000E+00  0.00000000E+00  0.00000000E+00  0.00000000E+00
  0.00000000E+00  0.00000000E+00  0.00000000E+00
Integer atomic weights                     I   N=           8
          12          12          12          16           1           1
           1           1
Real atomic weights                        R   N=           8
  1.20000000E+01  1.20000000E+01  1.20000000E+01  1.59949146E+01  1.00782504E+00
  1.00782504E+00  1.00782504E+00  1.00782504E+00
Atom fragment info                         I   N=           8
           0           0           0           0           0           0
           0           0
Atom residue num                           I   N=           8
           0           0           0           0           0           0
           0           0
Nuclear spins                              I   N=           8
           0           0           0           0           1           1
           1           1
Nuclear ZEff                               R   N=           8
 -3.60000000E+00 -3.60000000E+00 -3.60000000E+00 -5.60000000E+00 -1.00000000E+00
 -1.00000000E+00 -1.00000000E+00 -1.00000000E+00
Nuclear ZNuc                               R   N=           8
  6.00000000E+00  6.00000000E+00  6.00000000E+00  8.00000000E+00  1.00000000E+00
  1.00000000E+00  1.00000000E+00  1.00000000E+00
Nuclear QMom                               R   N=           8
  0.00000000E+00  0.00000000E+00  0.00000000E+00  0.00000000E+00  0.00000000E+00
  0.00000000E+00  0.00000000E+00  0.00000000E+00
Nuclear GFac                               R   N=           8
  0.00000000E+00  0.00000000E+00  0.00000000E+00  0.00000000E+00  2.79284600E+00
  2.79284600E+00  2.79284600E+00  2.79284600E+00
MicOpt                                     I   N=           8
          -1          -1          -1          -1          -1          -1
          -1          -1
Number of contracted shells                I               24
Number of primitive shells                 I               60
Pure/Cartesian d shells                    I                1
Pure/Cartesian f shells                    I                0
Highest angular momentum                   I                1
Largest degree of contraction              I                6
Shell types                                I   N=          24
           0          -1          -1          -1           0          -1
          -1          -1           0          -1          -1          -1
           0          -1          -1          -1           0           0
           0           0           0           0           0           0
Number of primitives per shell             I   N=          24
           6           3           1           1           6           3
           1           1           6           3           1           1
           6           3           1           1           3           1
           3           1           3           1           3           1
Shell to atom map                          I   N=          24
           1           1           1           1           2           2
           2           2           3           3           3           3
           4           4           4           4           5           5
           6           6           7           7           8           8
Primitive exponents                        R   N=          60
  3.04752488E+03  4.57369518E+02  1.03948685E+02  2.92101553E+01  9.28666296E+00
  3.16392696E+00  7.86827235E+00  1.88128854E+00  5.44249258E-01  1.68714478E-01
  4.38000000E-02  3.04752488E+03  4.57369518E+02  1.03948685E+02  2.92101553E+01
  9.28666296E+00  3.16392696E+00  7.86827235E+00  1.88128854E+00  5.44249258E-01
  1.68714478E-01  4.38000000E-02  3.04752488E+03  4.57369518E+02  1.03948685E+02
  2.92101553E+01  9.28666296E+00  3.16392696E+00  7.86827235E+00  1.88128854E+00
  5.44249258E-01  1.68714478E-01  4.38000000E-02  5.48467166E+03  8.25234946E+02
  1.88046958E+02  5.29645000E+01  1.68975704E+01  5.79963534E+00  1.55396162E+01
  3.59993359E+00  1.01376175E+00  2.70005823E-01  8.45000000E-02  1.87311370E+01
  2.82539436E+00  6.40121692E-01  1.61277759E-01  1.87311370E+01  2.82539436E+00
  6.40121692E-01  1.61277759E-01  1.87311370E+01  2.82539436E+00  6.40121692E-01
  1.61277759E-01  1.87311370E+01  2.82539436E+00  6.40121692E-01  1.61277759E-01
Contraction coefficients                   R   N=          60
  1.83473713E-03  1.40373228E-02  6.88426223E-02  2.32184443E-01  4.67941348E-01
  3.62311985E-01 -1.19332420E-01 -1.60854152E-01  1.14345644E+00  1.00000000E+00
  1.00000000E+00  1.83473713E-03  1.40373228E-02  6.88426223E-02  2.32184443E-01
  4.67941348E-01  3.62311985E-01 -1.19332420E-01 -1.60854152E-01  1.14345644E+00
  1.00000000E+00  1.00000000E+00  1.83473713E-03  1.40373228E-02  6.88426223E-02
  2.32184443E-01  4.67941348E-01  3.62311985E-01 -1.19332420E-01 -1.60854152E-01
  1.14345644E+00  1.00000000E+00  1.00000000E+00  1.83107443E-03  1.39501722E-02
  6.84450781E-02  2.32714336E-01  4.70192898E-01  3.58520853E-01 -1.10777550E-01
 -1.48026263E-01  1.13076702E+00  1.00000000E+00  1.00000000E+00  3.34946043E-02
  2.34726953E-01  8.13757326E-01  1.00000000E+00  3.34946043E-02  2.34726953E-01
  8.13757326E-01  1.00000000E+00  3.34946043E-02  2.34726953E-01  8.13757326E-01
  1.00000000E+00  3.34946043E-02  2.34726953E-01  8.13757326E-01  1.00000000E+00
P(S=P) Contraction coefficients            R   N=          60
  0.00000000E+00  0.00000000E+00  0.00000000E+00  0.00000000E+00  0.00000000E+00
  0.00000000E+00  6.89990666E-02  3.16423961E-01  7.44308291E-01  1.00000000E+00
  1.00000000E+00  0.00000000E+00  0.00000000E+00  0.00000000E+00  0.00000000E+00
  0.00000000E+00  0.00000000E+00  6.89990666E-02  3.16423961E-01  7.44308291E-01
  1.00000000E+00  1.00000000E+00  0.00000000E+00  0.00000000E+00  0.00000000E+00
  0.00000000E+00  0.00000000E+00  0.00000000E+00  6.89990666E-02  3.16423961E-01
  7.44308291E-01  1.00000000E+00  1.00000000E+00  0.00000000E+00  0.00000000E+00
  0.00000000E+00  0.00000000E+00  0.00000000E+00  0.00000000E+00  7.08742682E-02
  3.39752839E-01  7.27158577E-01  1.00000000E+00  1.00000000E+00  0.00000000E+00
  0.00000000E+00  0.00000000E+00  0.00000000E+00  0.00000000E+00  0.00000000E+00
  0.00000000E+00  0.00000000E+00  0.00000000E+00  0.00000000E+00  0.00000000E+00
  0.00000000E+00  0.00000000E+00  0.00000000E+00  0.00000000E+00  0.00000000E+00
Coordinates of each shell                  R   N=          72
 -3.35634028E+00  2.55632790E-01 -3.48982325E-06 -3.35634028E+00  2.55632790E-01
 -3.48982325E-06 -3.35634028E+00  2.55632790E-01 -3.48982325E-06 -3.35634028E+00
  2.55632790E-01 -3.48982325E-06 -1.06124659E+00 -8.38500656E-01  1.64009456E-06
 -1.06124659E+00 -8.38500656E-01  1.64009456E-06 -1.06124659E+00 -8.38500656E-01
  1.64009456E-06 -1.06124659E+00 -8.38500656E-01  1.64009456E-06  1.26165884E+00
  6.77828819E-01  2.07919856E-05  1.26165884E+00  6.77828819E-01  2.07919856E-05
  1.26165884E+00  6.77828819E-01  2.07919856E-05  1.26165884E+00  6.77828819E-01
  2.07919856E-05  3.42682432E+00 -2.37752713E-01 -8.12699685E-06  3.42682432E+00
 -2.37752713E-01 -8.12699685E-06  3.42682432E+00 -2.37752713E-01 -8.12699685E-06
  3.42682432E+00 -2.37752713E-01 -8.12699685E-06  1.00052171E+00  2.75033245E+00
 -3.68791225E-05  1.00052171E+00  2.75033245E+00 -3.68791225E-05 -5.08924519E+00
 -8.40492079E-01 -7.15746619E-06 -5.08924519E+00 -8.40492079E-01 -7.15746619E-06
 -3.56576967E+00  2.30184640E+00 -8.19934652E-07 -3.56576967E+00  2.30184640E+00
 -8.19934652E-07 -8.24533228E-01 -2.87943078E+00 -3.78104326E-06 -8.24533228E-01
 -2.87943078E+00 -3.78104326E-06
Constraint Structure                       R   N=          24
 -3.35634028E+00  2.55632790E-01 -3.48982325E-06 -1.06124659E+00 -8.38500656E-01
  1.64009456E-06  1.26165884E+00  6.77828819E-01  2.07919856E-05  3.42682432E+00
 -2.37752713E-01 -8.12699685E-06  1.00052171E+00  2.75033245E+00 -3.68791225E-05
 -5.08924519E+00 -8.40492079E-01 -7.15746619E-06 -3.56576967E+00  2.30184640E+00
 -8.19934652E-07 -8.24533228E-01 -2.87943078E+00 -3.78104326E-06
Num ILSW                                   I              100
ILSW                                       I   N=         100
           0           1           0           0           2           0
           0           0           0           0         402          -1
           0           0           0           0           2           0
           0           0           0           0           1           0
           1           0           0           0           0           0
           0           0      100000           0          -1           0
           0           0           0           0           0           0
           0           0           0           1           0           0
           0           0           1           0           0           0
           0           0           4          41           0           0
           0           0           5           0           0           0
           0           0           0           8           0           0
           0           0           0           0           0           0
           0           0           0           0           0           0
           0           0           0           0           0           0
           0           0           0           0           0           0
           0           0           0           0
Num RLSW                                   I               41
RLSW                                       R   N=          41
  8.00000000E-01  7.20000000E-01  1.00000000E+00  8.10000000E-01  2.00000000E-01
  0.00000000E+00  0.00000000E+00  1.00000000E+00  0.00000000E+00  0.00000000E+00
  0.00000000E+00  0.00000000E+00  1.00000000E+00  0.00000000E+00  0.00000000E+00
  0.00000000E+00  0.00000000E+00  1.00000000E+00  0.00000000E+00  0.00000000E+00
  0.00000000E+00  0.00000000E+00  1.00000000E+00  0.00000000E+00  0.00000000E+00
  0.00000000E+00  0.00000000E+00  1.00000000E+00  0.00000000E+00  0.00000000E+00
  0.00000000E+00  0.00000000E+00  1.00000000E+00  0.00000000E+00  0.00000000E+00
  0.00000000E+00  0.00000000E+00  0.00000000E+00  1.00000000E+00  1.00000000E+00
  0.00000000E+00
MxBond                                     I                3
NBond                                      I   N=           8
           3           3           3           1           1           1
           1           1
IBond                                      I   N=          24
           2           6           7           1           3           8
           2           4           5           3           0           0
           3           0           0           1           0           0
           1           0           0           2           0           0
RBond                                      R   N=          24
  3.00000000E+00  1.00000000E+00  1.00000000E+00  3.00000000E+00  1.00000000E+00
  1.00000000E+00  1.00000000E+00  1.00000000E+00  1.00000000E+00  1.00000000E+00
  0.00000000E+00  0.00000000E+00  1.00000000E+00  0.00000000E+00  0.00000000E+00
  1.00000000E+00  0.00000000E+00  0.00000000E+00  1.00000000E+00  0.00000000E+00
  0.00000000E+00  1.00000000E+00  0.00000000E+00  0.00000000E+00
Virial Ratio                               R      2.006133277620752E+00
SCF Energy                                 R     -1.918687548841115E+02
Total Energy                               R     -1.918687548841115E+02
RMS Force                                  R      1.000762532992760E-04
RMS Density                                R      1.944368587821862E-09
External E-field                           R   N=          35
  0.00000000E+00  0.00000000E+00  0.00000000E+00  0.00000000E+00  0.00000000E+00
  0.00000000E+00  0.00000000E+00  0.00000000E+00  0.00000000E+00  0.00000000E+00
  0.00000000E+00  0.00000000E+00  0.00000000E+00  0.00000000E+00  0.00000000E+00
  0.00000000E+00  0.00000000E+00  0.00000000E+00  0.00000000E+00  0.00000000E+00
  0.00000000E+00  0.00000000E+00  0.00000000E+00  0.00000000E+00  0.00000000E+00
  0.00000000E+00  0.00000000E+00  0.00000000E+00  0.00000000E+00  0.00000000E+00
  0.00000000E+00  0.00000000E+00  0.00000000E+00  0.00000000E+00  0.00000000E+00
IOpCl                                      I                0
IROHF                                      I                0
Alpha Orbital Energies                     R   N=          60
 -1.91675964E+01 -1.02947807E+01 -1.02323022E+01 -1.02251940E+01 -1.06683584E+00
 -8.22774926E-01 -6.68449950E-01 -5.91806576E-01 -4.97675413E-01 -4.90577859E-01
 -4.28904534E-01 -4.11407802E-01 -4.08882248E-01 -3.06965962E-01 -2.73213052E-01
 -8.92058147E-02  5.27630577E-03  1.31783816E-02  1.94385173E-02  3.26431938E-02
  6.01549814E-02  6.09568849E-02  6.61817461E-02  9.14915302E-02  9.29097839E-02
  1.15553037E-01  1.24179698E-01  1.35847192E-01  1.59978441E-01  1.89114418E-01
  2.14021966E-01  2.21398043E-01  2.53616215E-01  2.53826700E-01  2.70524143E-01
  2.89146463E-01  3.08791311E-01  3.56841429E-01  3.89045279E-01  4.09136091E-01
  6.26091416E-01  6.30083136E-01  6.76608958E-01  6.80695464E-01  7.14229770E-01
  7.69926569E-01  7.85742190E-01  8.84394319E-01  9.26776002E-01  9.90390750E-01
  1.00136619E+00  1.03005237E+00  1.12216768E+00  1.14719238E+00  1.21185926E+00
  1.22043503E+00  1.28181795E+00  1.31026416E+00  1.37227809E+00  1.83424839E+00
Alpha MO coefficients                      R   N=        3600
 -1.86705479E-05 -2.34884998E-04 -3.08010367E-04 -1.19972832E-04 -5.24859642E-09
 -2.22568680E-03  8.24594118E-04  1.80934568E-03  1.40481930E-08  3.05827451E-03
  8.81518340E-04 -3.81683905E-04  1.16760221E-09  3.64994039E-05  1.47404965E-04
 -2.60809089E-05 -1.47360926E-04  5.88685099E-10 -1.75963885E-03 -3.81922606E-03
  1.53171797E-03  1.12033922E-10  9.40216436E-03  3.97788829E-03  1.13949611E-03
 -2.13631659E-08  2.00139164E-04  1.35802665E-04 -1.72301731E-06  1.90283484E-04
 -8.67770808E-09  8.70461247E-03  5.67898747E-03 -5.72051593E-03 -4.96236720E-08
 -1.70869165E-02  8.69178123E-04  3.55651089E-03  1.31521781E-07  9.95159576E-01
  3.01104448E-02 -2.01092514E-03  7.58883680E-04  3.02508816E-08 -2.27705779E-02
  5.12181769E-03 -1.47226203E-03 -7.16624870E-08  8.53852988E-03 -7.99098246E-04
 -1.72908745E-04 -3.53734456E-08 -1.03540737E-05  1.94644833E-03  1.86998206E-04
  1.29084600E-03 -2.01794816E-04 -6.05416902E-04  3.00614178E-04  8.98168102E-04
 -5.69455830E-06 -1.65252910E-04 -1.36202812E-04 -4.81689328E-05 -7.93421451E-10
 -1.76614609E-04  3.74247314E-04  2.05004734E-04  5.45722459E-09 -2.30295740E-02
 -3.51940651E-03  3.50839954E-03  1.97254734E-09  1.95306323E-03 -6.82764027E-04
 -5.29290659E-04 -4.68590362E-04 -5.75606091E-09  5.74060112E-03  3.04602639E-03
  2.05503176E-03  4.88421698E-09  5.78315722E-03 -1.37521084E-02  1.34137912E-03
 -8.19694774E-08  9.95337470E-01  3.73264464E-02  1.20811077E-03 -6.80091693E-04
 -3.76319716E-08 -3.35723949E-02 -5.32688593E-04  2.36372186E-03  1.54284697E-07
  1.46989631E-02 -2.76931797E-03 -5.13718826E-03  3.64631674E-08 -9.02824491E-05
 -1.35900385E-05  6.39991917E-04 -2.44710050E-04 -7.30968131E-09  9.89092204E-04
 -2.50528889E-04 -2.36184875E-04 -1.70612128E-08  1.14720278E-02 -5.92785424E-03
  2.23015249E-03  3.28041508E-08 -6.19026726E-04  3.66275362E-03 -1.68975658E-05
  8.66597380E-04 -5.06360236E-05 -2.61656003E-04 -1.44673438E-04 -8.09839857E-05
  9.93779421E-01  3.62777673E-02  3.44906798E-04 -8.88638535E-05  6.42682876E-10
 -3.11620379E-02 -3.45940948E-03  1.48488045E-03 -1.18314331E-08  2.14072605E-02
  6.56380426E-03 -3.81947684E-03 -6.01680347E-10  5.34894116E-02  6.55760179E-04
  1.16639983E-03 -5.67972059E-04  1.82490448E-09  7.51958592E-03 -5.21860197E-03
  2.19950915E-03 -1.37623375E-08  1.98377554E-02  1.29354916E-02  6.79698534E-03
  1.05359537E-07 -1.30219728E-04 -1.79872771E-04  1.12495560E-04 -4.45789218E-05
 -2.21648531E-09 -1.32711401E-03 -1.59569645E-03  5.68454416E-04  2.32463520E-08
 -4.13115867E-02  1.01377889E-02  5.46305221E-03  9.48619887E-08 -1.26957329E-05
 -1.93456660E-04  5.66838697E-05 -2.48654918E-05 -2.10639386E-09  9.53361431E-04
 -7.43900341E-04  2.91100905E-04  1.39580619E-08  3.86235527E-03 -1.61025245E-03
 -1.15104441E-04  1.57358416E-09 -2.32034596E-04  3.19844742E-04 -8.29212895E-04
  4.27794924E-03 -7.00151718E-04  3.98488628E-03 -1.84560055E-04  2.22315145E-04
 -5.36951438E-02 -3.38122942E-03 -9.62965858E-04  4.73459401E-04 -1.00159032E-09
  1.23690275E-02  5.82123659E-03 -8.20450856E-04  1.57767229E-08 -4.13821919E-02
 -9.80706616E-03  3.12406209E-03 -3.51289627E-08  9.93860746E-01  3.74400316E-02
 -2.49252389E-04  6.26147275E-04  4.92258225E-09 -3.70784370E-02  9.61491550E-04
 -6.00163457E-03 -2.16306579E-08  7.58946720E-02 -2.41434154E-03  1.34791148E-02
  6.93189669E-08 -1.90618691E-03 -9.06199415E-04  5.69179744E-04  3.55361505E-04
  6.40457281E-09  7.55283244E-03 -5.43326046E-03 -1.52681583E-03 -4.78955648E-08
 -3.38792484E-02  7.48369589E-03  4.48889263E-03  5.38329802E-08 -8.26206642E-07
 -3.98637863E-05  6.04379382E-05 -7.59780995E-05 -1.55331993E-09  1.05206744E-04
 -1.05399846E-04  5.91111578E-04  1.57274684E-08  3.28697043E-03 -6.98108921E-04
 -1.83505917E-04  2.41743656E-08 -2.87049353E-04 -4.43053408E-04 -8.28865939E-05
  7.97159517E-04 -3.20103395E-04 -9.00128262E-04 -7.89114740E-04  2.39565455E-03
 -3.57117822E-03  9.62336643E-03  7.37913895E-03 -1.15629098E-04  3.37258898E-08
  1.99592854E-02 -9.21097630E-03 -1.74218645E-02 -1.34087267E-07  5.94334821E-02
  1.03650528E-02 -5.49214607E-03 -6.64346095E-08 -1.99877055E-02  3.76371186E-02
  2.58105566E-02  1.04047029E-02  2.87970571E-08  1.98490926E-02  2.68753226E-02
 -1.23701641E-02  1.29276590E-08 -1.16104040E-01  1.43090980E-03 -2.11674907E-02
  4.64439666E-07 -1.14919702E-01  2.37382386E-01  1.68241624E-01 -7.88022186E-02
 -2.68629070E-06  2.47099509E-02 -6.14648260E-02  4.72488536E-02  1.22579503E-07
  6.91646077E-02 -3.34689199E-03 -8.77566461E-03 -1.06999937E-06 -1.92959510E-01
  4.25852119E-01 -1.68457876E-01  6.90393132E-02  2.11624436E-06  4.31207437E-01
 -7.43595094E-02  2.60231512E-02  1.01274424E-06  1.91313677E-03 -7.30937628E-03
  4.76987894E-03  5.11742266E-07  2.78708301E-02 -2.49881010E-02 -4.05399076E-04
 -1.49952644E-02  3.35882053E-03  6.14072126E-03  6.12142072E-03 -5.22251252E-03
 -1.41735927E-01  2.76931671E-01  1.01452188E-01 -3.77351819E-02  3.04271835E-07
  2.14363404E-01  1.75887495E-02  8.05369697E-03  3.78726087E-08  1.15200162E-02
  3.84808381E-03  5.34075724E-03 -7.73905035E-09 -1.60567719E-01  3.18141713E-01
 -6.09561043E-02  7.12150754E-02  1.34103277E-07  2.01797165E-01  1.39002189E-03
 -1.69283858E-02  3.24902099E-08 -9.87652998E-02 -2.09582999E-02 -3.17248942E-02
 -1.45547030E-07 -5.48250512E-02  1.08151664E-01 -1.37050046E-01 -1.58936148E-02
 -6.25660677E-07  1.00337682E-01 -3.31298834E-02  3.59567663E-03 -5.07181535E-07
  8.82017555E-02 -2.60929234E-02 -4.58010282E-03 -2.60994078E-07  3.96264532E-02
 -9.21964007E-02  4.92647330E-03 -1.62053072E-02 -5.48244180E-07 -8.90228228E-02
  2.94260313E-04 -1.74972501E-03  4.35519125E-08 -3.45805228E-03  6.83794098E-03
 -3.11655697E-03  6.94692668E-08  3.44514528E-02  3.22747052E-03  6.93786331E-02
  1.54902971E-02  7.33215439E-02  6.54694507E-03  7.54505924E-02 -1.44001951E-03
 -1.34166145E-01  2.73107606E-01 -7.04304508E-02 -8.41625063E-03 -1.36105314E-07
  2.56368679E-01 -3.30534507E-02 -8.39494700E-03  4.45684929E-09 -7.73913145E-02
 -1.71908524E-02  1.34453725E-02 -2.58831725E-09  5.53055091E-02 -1.13824335E-01
 -2.23244360E-01 -2.80398934E-02 -1.03323520E-06 -1.03540296E-01 -3.40418516E-02
 -2.87877795E-03 -3.21947943E-07 -1.46726017E-02 -6.26201880E-02 -4.49986818E-03
 -2.45282017E-07  1.15459702E-01 -2.45170136E-01  1.73241926E-01  4.62111460E-04
  2.10801453E-06 -2.54021494E-01  1.95554599E-02  3.44229155E-03  9.82397700E-07
  9.31457515E-02 -1.10162020E-02 -2.31063151E-02 -2.65723514E-07 -6.59645183E-02
  1.52661603E-01  4.80672880E-02  2.07453340E-03  6.15774120E-07  2.01994191E-01
  9.20719393E-03  6.57444422E-03  2.82271027E-07  3.14830490E-02 -1.11337443E-02
  5.07840787E-03  9.79807985E-08 -1.00347227E-01 -3.34778360E-02  1.34389590E-01
  3.68181295E-02  1.08453577E-01  3.65718388E-02 -4.31763066E-02 -1.07780950E-02
 -4.69443963E-02  9.28252071E-02 -7.79600699E-02  1.47601852E-01 -1.24479317E-07
  1.07385129E-01 -9.99382619E-03  4.72224170E-02 -1.70373420E-07 -3.26512681E-02
 -1.51811767E-02  4.68368918E-03 -9.74463916E-08  9.44400483E-02 -1.93769280E-01
  8.68618921E-03  1.89058223E-01 -1.62367508E-07 -2.06614143E-01 -1.87784474E-03
  5.91065783E-02  1.93388991E-07  6.08412290E-02  7.66120591E-03  1.35725003E-02
  2.18212691E-07 -8.46951727E-02  1.82198307E-01 -4.79054075E-03  2.36110788E-01
 -3.94253386E-06  1.92110348E-01 -1.75427083E-02  8.46212824E-02 -1.65909077E-06
 -2.55135553E-02  3.76052347E-04  1.60039780E-02 -2.06794039E-07  3.64534577E-02
 -8.57572251E-02 -1.86319616E-02  1.08671268E-01 -1.04811870E-06 -1.04280881E-01
 -7.83335117E-03  4.68854901E-02 -2.11232529E-07 -1.05502191E-02  3.36703504E-03
 -2.65871335E-03  1.85171811E-07  1.84093590E-01  7.84668293E-02  3.92989454E-02
  2.32364961E-02  1.20113677E-01  5.99996972E-02 -1.71987853E-01 -7.12596863E-02
  1.30650421E-02 -2.51197148E-02  1.17876092E-01 -2.83833547E-01 -8.90934644E-07
 -6.26780700E-02  2.30590542E-02 -1.06690731E-01 -6.31857125E-07 -8.86118429E-02
 -9.76551292E-04 -7.82669057E-04 -3.62469954E-08 -1.94352780E-02  3.62543741E-02
 -2.67663419E-01 -1.00820690E-01 -3.34124144E-06  6.63271173E-02 -7.02811487E-02
 -2.47993822E-02 -6.43901864E-07  5.05404241E-02 -5.93482132E-02  1.72265612E-03
  7.60525592E-09 -1.17525462E-03  4.22279212E-04  1.34948192E-01  3.13595973E-01
 -5.09223360E-06  1.18913552E-02  5.64082687E-02  1.29861667E-01 -2.55898374E-06
  4.40735365E-02  1.03351161E-02  6.71127440E-03 -6.24017189E-07  1.35551614E-03
 -2.42351045E-03  7.38765739E-02  1.85948001E-01 -3.07673283E-06 -6.72640524E-03
  3.93395342E-02  8.95726768E-02 -1.46999539E-06 -8.84115156E-03  1.50530269E-03
 -2.48265661E-03  8.35570694E-08  1.49827522E-01  7.72147061E-02  1.14900737E-02
  2.85928834E-03 -1.79862962E-01 -1.03463805E-01  5.72571856E-02  3.34124452E-02
  7.52162704E-03 -1.43369484E-02  3.62590715E-01  9.41535956E-02  9.87034976E-07
 -1.55275630E-02  1.31524533E-01  4.36355808E-02  3.63493116E-07 -4.24975132E-02
  1.35376109E-02  9.51082463E-03 -7.79369179E-08 -2.63282302E-02  5.77753575E-02
 -1.60030064E-01  2.36376407E-01 -4.22496506E-08  3.09081062E-02 -1.28850353E-02
  6.07668936E-02  1.50905275E-08  2.26243518E-02 -2.65960011E-02  7.24602455E-03
  3.08671221E-07  5.28279146E-02 -1.27554249E-01 -1.14933918E-01  4.70035342E-02
  8.76403484E-07 -1.83004104E-01 -6.85040737E-02  5.25232014E-02  2.20521527E-07
 -9.83646577E-03 -3.14686902E-03  4.67519406E-05 -4.76677051E-07 -6.45100203E-02
  1.42235321E-01  2.17685225E-01 -7.38635504E-02 -3.11663587E-06  2.73579884E-01
  6.31720457E-02 -1.57903522E-02 -8.20518554E-07  8.91525212E-02 -8.05160898E-05
 -2.52547316E-03  2.80010395E-07 -2.91105727E-02 -2.99806235E-02 -2.16829739E-01
 -1.34277164E-01  2.02020011E-02  7.46900978E-03 -1.10970694E-01 -8.24933329E-02
  1.79416386E-02 -4.34795104E-02 -2.16405428E-01  2.22223422E-02 -4.23076459E-06
 -5.04403340E-02 -6.65220308E-02  1.65947034E-02 -2.04807984E-06  2.25137126E-02
 -5.41895084E-03  3.69362354E-03  1.31158623E-07 -1.03500761E-03 -1.70484007E-03
  1.77349278E-01 -1.13181688E-01 -6.95398419E-06  2.99090969E-02  3.73328085E-02
 -3.43597056E-02 -3.23901932E-06 -2.37385715E-02  9.89005862E-03 -1.41773376E-02
 -6.01036307E-07  1.68038751E-02 -6.54752249E-02 -2.91177140E-01  1.83896303E-01
 -1.67090645E-05 -2.25807564E-02 -6.52547994E-02  4.94767793E-02 -8.75148552E-06
  1.59856066E-02 -9.34878404E-03  6.07661089E-03 -1.03483187E-06 -6.84144094E-02
  1.48345436E-01  4.33529827E-01 -1.51043104E-01 -2.57271680E-05  2.65831486E-01
  1.82301344E-01 -6.28064017E-02 -1.39819305E-05  8.58964996E-02  2.39152143E-02
 -1.17978733E-02 -1.01489740E-06  1.15526891E-01  9.68986775E-02  9.27729158E-02
  8.49511767E-02  1.32884914E-02  1.45907733E-02  9.22720178E-02  7.18498828E-02
 -2.24341659E-07  4.27735711E-07 -1.65719853E-05 -3.93987936E-05  1.05599459E-01
 -3.33009259E-06 -8.42999219E-06 -1.63943687E-05  5.47439845E-02  3.74575074E-06
 -2.94858727E-07 -4.07101343E-06 -7.39206311E-04  1.74219265E-06 -3.38955659E-06
  6.27554044E-06  2.95235262E-05  1.91678298E-01 -4.71788914E-06 -4.47644690E-07
  1.61532033E-05  9.18432774E-02  1.47796382E-08  2.71822767E-06  4.35132375E-06
  1.28223522E-02 -4.29191806E-06  8.49046606E-06 -3.23764920E-05 -1.79905977E-06
  3.76290750E-01  1.10545895E-05 -8.09901194E-06 -4.90335124E-06  1.97581538E-01
 -5.02954678E-06  1.41788151E-06 -6.49208670E-07  2.76690315E-02 -4.07955495E-06
  8.75415452E-06  2.90733883E-05 -2.31896900E-05  4.27898253E-01  1.67098138E-05
  1.26592517E-05 -1.05176184E-05  2.50774281E-01  4.98661332E-06  1.89868054E-06
 -1.58865777E-06  1.47608118E-02  1.33900407E-07  3.00437322E-06  2.53029256E-05
  1.96212366E-05 -2.67557379E-05 -2.08951630E-05 -2.26013599E-05 -1.41535431E-05
  1.00863774E-02 -2.24769260E-02  5.95545483E-02  3.19633693E-01  1.24171848E-05
 -1.97858567E-02  3.58477178E-02  1.33893258E-01  6.35130813E-06 -2.69721413E-02
  6.53358804E-03  3.71105929E-02 -1.46548319E-07 -1.48306820E-02  2.32983484E-02
 -5.31778972E-03 -2.90226354E-01  2.08461183E-05  8.35842407E-02  8.11181237E-03
 -1.19272558E-01  1.04194995E-05  7.82042348E-03 -3.24554375E-02 -3.64293371E-02
  1.54249972E-06  2.46520975E-02 -5.26882775E-02  1.71746728E-01  1.20792251E-01
  4.47521104E-05 -8.26814936E-02  6.73787929E-02  7.05057783E-02  2.36896784E-05
  3.65562877E-02  2.04948633E-03  6.44735751E-03  3.03210084E-06  1.08364961E-02
 -2.46493601E-02 -6.36122162E-03  1.62470739E-01  5.36182128E-05 -4.39751520E-02
  2.77726853E-03  8.22488865E-02  3.13776708E-05 -8.48945194E-03 -5.34094243E-03
  6.52441691E-03  2.07792237E-06  4.14126697E-02  3.25711656E-02 -1.74737705E-01
 -1.31389088E-01  2.17432372E-01  1.77865249E-01  2.21559503E-01  1.59020065E-01
  2.79227714E-09  2.46925729E-09 -3.17249676E-07  2.80870277E-07  3.76822557E-01
  2.30091119E-06 -1.59466297E-07 -7.09284600E-07  2.41584004E-01 -5.64727419E-06
 -1.94812864E-06  1.90436590E-07  5.48477642E-02 -1.00557803E-07  2.23519132E-07
 -1.55405366E-06 -1.19254565E-06  3.59493171E-01  5.20087245E-07  1.48889071E-06
 -3.01838003E-06  2.34379573E-01  6.76387766E-06 -2.61404752E-07 -5.77278756E-08
  3.10895344E-02  2.89153509E-07 -5.63533429E-07  6.04712143E-07 -1.22052305E-06
 -4.95276663E-02 -2.17033708E-06 -1.88799684E-06  3.99762862E-06 -3.29510938E-02
 -1.75874426E-06 -1.19552661E-06  1.86902434E-06 -1.56630347E-02 -4.32380537E-08
  1.61339626E-08 -3.56616214E-06  7.22257293E-06 -2.97991229E-01  1.87352752E-06
 -3.15864932E-06  4.63018530E-06 -1.99680296E-01  2.31107679E-06 -5.07931200E-07
  7.28896362E-07 -3.60430817E-02 -1.78697430E-06 -5.92971503E-06 -5.77739293E-07
 -1.20252804E-06  6.35491816E-07  7.85297669E-07  1.33877328E-07 -1.61947731E-06
  7.07210306E-03 -8.85945516E-03 -6.20878106E-02  1.54192854E-02 -5.65817524E-06
 -1.09467079E-01 -9.99669131E-02 -4.01174874E-03 -4.47755105E-06 -4.70705822E-01
 -1.07942726E-01  2.84031420E-02 -1.08831990E-06 -3.90483397E-02  7.13603655E-02
  1.83507971E-01  1.05770772E-01 -3.30066402E-06  3.56794777E-01  1.00385304E-01
  1.77556356E-01 -7.13647916E-07  6.03249899E-01 -1.21655480E-01  1.32375194E-01
  2.32312953E-08  1.18905322E-03  1.52556822E-02 -5.36880282E-02 -1.25321168E-01
  1.04161317E-06 -7.66073570E-02  1.16130613E-01  3.97371646E-02 -4.72554630E-07
 -1.44676692E-01  7.93211224E-02 -5.20360468E-03 -6.56748751E-08 -1.32325224E-03
  6.55355937E-03  2.30572722E-01  5.50673400E-01 -3.53000950E-06 -2.14341487E-02
  1.60478985E-01  3.55991590E-01 -2.63038387E-06 -3.14986962E-02  2.51844178E-02