 Entering Gaussian System, Link 0=/opt/cluster/programs/g09_d.01/g09//g09
 Input=/home/unibas/boittier/RDKit_G2/L.pdb/OPT_B3LYP_6-31+G/OPT_L.pdb.com
 Output=/scratch/boittier/OPT_L.pdb/OPT_L.pdb.out
 Initial command:
 /opt/cluster/programs/g09_d.01/g09/l1.exe "/scratch/boittier/OPT_L.pdb/Gau-108909.inp" -scrdir="/scratch/boittier/OPT_L.pdb/"
 Entering Link 1 = /opt/cluster/programs/g09_d.01/g09/l1.exe PID=    108910.
  
 Copyright (c) 1988,1990,1992,1993,1995,1998,2003,2009,2013,
            Gaussian, Inc.  All Rights Reserved.
  
 This is part of the Gaussian(R) 09 program.  It is based on
 the Gaussian(R) 03 system (copyright 2003, Gaussian, Inc.),
 the Gaussian(R) 98 system (copyright 1998, Gaussian, Inc.),
 the Gaussian(R) 94 system (copyright 1995, Gaussian, Inc.),
 the Gaussian 92(TM) system (copyright 1992, Gaussian, Inc.),
 the Gaussian 90(TM) system (copyright 1990, Gaussian, Inc.),
 the Gaussian 88(TM) system (copyright 1988, Gaussian, Inc.),
 the Gaussian 86(TM) system (copyright 1986, Carnegie Mellon
 University), and the Gaussian 82(TM) system (copyright 1983,
 Carnegie Mellon University). Gaussian is a federally registered
 trademark of Gaussian, Inc.
  
 This software contains proprietary and confidential information,
 including trade secrets, belonging to Gaussian, Inc.
  
 This software is provided under written license and may be
 used, copied, transmitted, or stored only in accord with that
 written license.
  
 The following legend is applicable only to US Government
 contracts under FAR:
  
                    RESTRICTED RIGHTS LEGEND
  
 Use, reproduction and disclosure by the US Government is
 subject to restrictions as set forth in subparagraphs (a)
 and (c) of the Commercial Computer Software - Restricted
 Rights clause in FAR 52.227-19.
  
 Gaussian, Inc.
 340 Quinnipiac St., Bldg. 40, Wallingford CT 06492
  
  
 ---------------------------------------------------------------
 Warning -- This program may not be used in any manner that
 competes with the business of Gaussian, Inc. or will provide
 assistance to any competitor of Gaussian, Inc.  The licensee
 of this program is prohibited from giving any competitor of
 Gaussian, Inc. access to this program.  By using this program,
 the user acknowledges that Gaussian, Inc. is engaged in the
 business of creating and licensing software in the field of
 computational chemistry and represents and warrants to the
 licensee that it is not a competitor of Gaussian, Inc. and that
 it will not use this program in any manner prohibited above.
 ---------------------------------------------------------------
  

 Cite this work as:
 Gaussian 09, Revision D.01,
 M. J. Frisch, G. W. Trucks, H. B. Schlegel, G. E. Scuseria, 
 M. A. Robb, J. R. Cheeseman, G. Scalmani, V. Barone, B. Mennucci, 
 G. A. Petersson, H. Nakatsuji, M. Caricato, X. Li, H. P. Hratchian, 
 A. F. Izmaylov, J. Bloino, G. Zheng, J. L. Sonnenberg, M. Hada, 
 M. Ehara, K. Toyota, R. Fukuda, J. Hasegawa, M. Ishida, T. Nakajima, 
 Y. Honda, O. Kitao, H. Nakai, T. Vreven, J. A. Montgomery, Jr., 
 J. E. Peralta, F. Ogliaro, M. Bearpark, J. J. Heyd, E. Brothers, 
 K. N. Kudin, V. N. Staroverov, T. Keith, R. Kobayashi, J. Normand, 
 K. Raghavachari, A. Rendell, J. C. Burant, S. S. Iyengar, J. Tomasi, 
 M. Cossi, N. Rega, J. M. Millam, M. Klene, J. E. Knox, J. B. Cross, 
 V. Bakken, C. Adamo, J. Jaramillo, R. Gomperts, R. E. Stratmann, 
 O. Yazyev, A. J. Austin, R. Cammi, C. Pomelli, J. W. Ochterski, 
 R. L. Martin, K. Morokuma, V. G. Zakrzewski, G. A. Voth, 
 P. Salvador, J. J. Dannenberg, S. Dapprich, A. D. Daniels, 
 O. Farkas, J. B. Foresman, J. V. Ortiz, J. Cioslowski, 
 and D. J. Fox, Gaussian, Inc., Wallingford CT, 2013.
 
 ******************************************
 Gaussian 09:  ES64L-G09RevD.01 24-Apr-2013
                11-May-2021 
 ******************************************
 %chk=/home/unibas/boittier/RDKit_G2/L.pdb/OPT_B3LYP_6-31+G/L.pdb.chk
 %nproc=8
 Will use up to    8 processors via shared memory.
 %mem=16GB
 --------------------------------
 #p B3LYP/6-31+G Opt Freq=NoRaman
 --------------------------------
 1/14=-1,18=20,19=15,26=3,38=1/1,3;
 2/9=110,12=2,17=6,18=5,40=1/2;
 3/5=1,6=6,7=10,11=2,16=1,25=1,30=1,71=1,74=-5/1,2,3;
 4//1;
 5/5=2,38=5/2;
 6/7=2,8=2,9=2,10=2,28=1/1;
 7//1,2,3,16;
 1/14=-1,18=20,19=15,26=3/3(2);
 2/9=110/2;
 99//99;
 2/9=110/2;
 3/5=1,6=6,7=10,11=2,16=1,25=1,30=1,71=1,74=-5/1,2,3;
 4/5=5,16=3,69=1/1;
 5/5=2,38=5/2;
 7//1,2,3,16;
 1/14=-1,18=20,19=15,26=3/3(-5);
 2/9=110/2;
 6/7=2,8=2,9=2,10=2,19=2,28=1/1;
 99/9=1/99;
 Leave Link    1 at Tue May 11 16:34:58 2021, MaxMem=  2147483648 cpu:         0.2
 (Enter /opt/cluster/programs/g09_d.01/g09/l101.exe)
 -----
 L.pdb
 -----
 Symbolic Z-matrix:
 Charge =  0 Multiplicity = 1
 C                     3.349    -0.05     -0.896 
 C                     2.12     -0.041    -1.102 
 C                     1.352    -0.04      0.151 
 O                    -0.127    -0.029    -0.189 
 H                     1.751    -0.047     1.102 
 H                     4.006    -0.051    -1.692 
 H                     3.71     -0.056     0.071 
 H                     1.692    -0.034    -2.041 
 
 NAtoms=      8 NQM=        8 NQMF=       0 NMMI=      0 NMMIF=      0
                NMic=       0 NMicF=      0.
                    Isotopes and Nuclear Properties:
 (Nuclear quadrupole moments (NQMom) in fm**2, nuclear magnetic moments (NMagM)
  in nuclear magnetons)

  Atom         1           2           3           4           5           6           7           8
 IAtWgt=          12          12          12          16           1           1           1           1
 AtmWgt=  12.0000000  12.0000000  12.0000000  15.9949146   1.0078250   1.0078250   1.0078250   1.0078250
 NucSpn=           0           0           0           0           1           1           1           1
 AtZEff=   0.0000000   0.0000000   0.0000000   0.0000000   0.0000000   0.0000000   0.0000000   0.0000000
 NQMom=    0.0000000   0.0000000   0.0000000   0.0000000   0.0000000   0.0000000   0.0000000   0.0000000
 NMagM=    0.0000000   0.0000000   0.0000000   0.0000000   2.7928460   2.7928460   2.7928460   2.7928460
 AtZNuc=   6.0000000   6.0000000   6.0000000   8.0000000   1.0000000   1.0000000   1.0000000   1.0000000
 Leave Link  101 at Tue May 11 16:35:03 2021, MaxMem=  2147483648 cpu:         4.0
 (Enter /opt/cluster/programs/g09_d.01/g09/l103.exe)

 GradGradGradGradGradGradGradGradGradGradGradGradGradGradGradGradGradGrad
 Berny optimization.
 Initialization pass.
                           ----------------------------
                           !    Initial Parameters    !
                           ! (Angstroms and Degrees)  !
 --------------------------                            --------------------------
 ! Name  Definition              Value          Derivative Info.                !
 --------------------------------------------------------------------------------
 ! R1    R(1,2)                  1.2462         estimate D2E/DX2                !
 ! R2    R(1,6)                  1.0321         estimate D2E/DX2                !
 ! R3    R(1,7)                  1.0322         estimate D2E/DX2                !
 ! R4    R(2,3)                  1.4696         estimate D2E/DX2                !
 ! R5    R(2,8)                  1.032          estimate D2E/DX2                !
 ! R6    R(3,4)                  1.5176         estimate D2E/DX2                !
 ! R7    R(3,5)                  1.0313         estimate D2E/DX2                !
 ! A1    A(2,1,6)              120.0198         estimate D2E/DX2                !
 ! A2    A(2,1,7)              119.9882         estimate D2E/DX2                !
 ! A3    A(6,1,7)              119.992          estimate D2E/DX2                !
 ! A4    A(1,2,3)              111.9898         estimate D2E/DX2                !
 ! A5    A(1,2,8)              124.0204         estimate D2E/DX2                !
 ! A6    A(3,2,8)              123.9898         estimate D2E/DX2                !
 ! A7    A(2,3,4)              108.5586         estimate D2E/DX2                !
 ! A8    A(2,3,5)              125.7325         estimate D2E/DX2                !
 ! A9    A(4,3,5)              125.7088         estimate D2E/DX2                !
 ! D1    D(6,1,2,3)           -179.9501         estimate D2E/DX2                !
 ! D2    D(6,1,2,8)             -0.0146         estimate D2E/DX2                !
 ! D3    D(7,1,2,3)              0.0207         estimate D2E/DX2                !
 ! D4    D(7,1,2,8)            179.9562         estimate D2E/DX2                !
 ! D5    D(1,2,3,4)           -179.9945         estimate D2E/DX2                !
 ! D6    D(1,2,3,5)             -0.0766         estimate D2E/DX2                !
 ! D7    D(8,2,3,4)              0.07           estimate D2E/DX2                !
 ! D8    D(8,2,3,5)            179.9879         estimate D2E/DX2                !
 --------------------------------------------------------------------------------
 Trust Radius=3.00D-01 FncErr=1.00D-07 GrdErr=1.00D-06
 Number of steps in this run=     34 maximum allowed number of steps=    100.
 GradGradGradGradGradGradGradGradGradGradGradGradGradGradGradGradGradGrad

 Leave Link  103 at Tue May 11 16:35:03 2021, MaxMem=  2147483648 cpu:         0.1
 (Enter /opt/cluster/programs/g09_d.01/g09/l202.exe)
                          Input orientation:                          
 ---------------------------------------------------------------------
 Center     Atomic      Atomic             Coordinates (Angstroms)
 Number     Number       Type             X           Y           Z
 ---------------------------------------------------------------------
      1          6           0        3.349000   -0.050000   -0.896000
      2          6           0        2.120000   -0.041000   -1.102000
      3          6           0        1.352000   -0.040000    0.151000
      4          8           0       -0.127000   -0.029000   -0.189000
      5          1           0        1.751000   -0.047000    1.102000
      6          1           0        4.006000   -0.051000   -1.692000
      7          1           0        3.710000   -0.056000    0.071000
      8          1           0        1.692000   -0.034000   -2.041000
 ---------------------------------------------------------------------
                    Distance matrix (angstroms):
                    1          2          3          4          5
     1  C    0.000000
     2  C    1.246177   0.000000
     3  C    2.254843   1.469637   0.000000
     4  O    3.547234   2.425432   1.517617   0.000000
     5  H    2.558440   2.234684   1.031335   2.279011   0.000000
     6  H    1.032117   1.976157   3.231174   4.397861   3.590470
     7  H    1.032204   1.975919   2.359411   3.845894   2.213758
     8  H    2.014182   1.031966   2.218220   2.595899   3.143581
                    6          7          8
     6  H    0.000000
     7  H    1.787683   0.000000
     8  H    2.340232   2.921190   0.000000
 Stoichiometry    C3H4O
 Framework group  C1[X(C3H4O)]
 Deg. of freedom    18
 Full point group                 C1      NOp   1
 Largest Abelian subgroup         C1      NOp   1
 Largest concise Abelian subgroup C1      NOp   1
                         Standard orientation:                         
 ---------------------------------------------------------------------
 Center     Atomic      Atomic             Coordinates (Angstroms)
 Number     Number       Type             X           Y           Z
 ---------------------------------------------------------------------
      1          6           0       -1.690645    0.078833   -0.000068
      2          6           0       -0.566214   -0.458395   -0.000195
      3          6           0        0.517788    0.533963    0.000275
      4          8           0        1.845529   -0.201064   -0.000053
      5          1           0        0.396741    1.558169   -0.000452
      6          1           0       -2.541823   -0.504915    0.000419
      7          1           0       -1.770746    1.107924    0.000007
      8          1           0       -0.413982   -1.479071    0.000380
 ---------------------------------------------------------------------
 Rotational constants (GHZ):     39.4857583      4.7894315      4.2713389
 Leave Link  202 at Tue May 11 16:35:03 2021, MaxMem=  2147483648 cpu:         0.0
 (Enter /opt/cluster/programs/g09_d.01/g09/l301.exe)
 Standard basis: 6-31+G (6D, 7F)
 Ernie: Thresh=  0.10000D-02 Tol=  0.10000D-05 Strict=F.
 There are    60 symmetry adapted cartesian basis functions of A   symmetry.
 There are    60 symmetry adapted basis functions of A   symmetry.
    60 basis functions,   120 primitive gaussians,    60 cartesian basis functions
    15 alpha electrons       15 beta electrons
       nuclear repulsion energy       101.3974662796 Hartrees.
 IExCor=  402 DFT=T Ex+Corr=B3LYP ExCW=0 ScaHFX=  0.200000
 ScaDFX=  0.800000  0.720000  1.000000  0.810000 ScalE2=  1.000000  1.000000
 IRadAn=      0 IRanWt=     -1 IRanGd=            0 ICorTp=0 IEmpDi=  4
 NAtoms=    8 NActive=    8 NUniq=    8 SFac= 1.00D+00 NAtFMM=   60 NAOKFM=F Big=F
 Integral buffers will be    131072 words long.
 Raffenetti 2 integral format.
 Two-electron integral symmetry is turned on.
 Leave Link  301 at Tue May 11 16:35:04 2021, MaxMem=  2147483648 cpu:         0.3
 (Enter /opt/cluster/programs/g09_d.01/g09/l302.exe)
 NPDir=0 NMtPBC=     1 NCelOv=     1 NCel=       1 NClECP=     1 NCelD=      1
         NCelK=      1 NCelE2=     1 NClLst=     1 CellRange=     0.0.
 One-electron integrals computed using PRISM.
 NBasis=    60 RedAO= T EigKep=  7.95D-05  NBF=    60
 NBsUse=    60 1.00D-06 EigRej= -1.00D+00 NBFU=    60
 Precomputing XC quadrature grid using
 IXCGrd= 4 IRadAn=           0 IRanWt=          -1 IRanGd=           0 AccXCQ= 0.00D+00.
 Generated NRdTot=       0 NPtTot=           0 NUsed=           0 NTot=          32
 NSgBfM=    60    60    60    60    60 MxSgAt=     8 MxSgA2=     8.
 Leave Link  302 at Tue May 11 16:35:04 2021, MaxMem=  2147483648 cpu:         0.7
 (Enter /opt/cluster/programs/g09_d.01/g09/l303.exe)
 DipDrv:  MaxL=1.
 Leave Link  303 at Tue May 11 16:35:11 2021, MaxMem=  2147483648 cpu:         0.2
 (Enter /opt/cluster/programs/g09_d.01/g09/l401.exe)
 ExpMin= 4.38D-02 ExpMax= 5.48D+03 ExpMxC= 8.25D+02 IAcc=2 IRadAn=         4 AccDes= 0.00D+00
 Harris functional with IExCor=  402 and IRadAn=       4 diagonalized for initial guess.
 HarFok:  IExCor=  402 AccDes= 0.00D+00 IRadAn=         4 IDoV= 1 UseB2=F ITyADJ=14
 ICtDFT=  3500011 ScaDFX=  1.000000  1.000000  1.000000  1.000000
 FoFCou: FMM=F IPFlag=           0 FMFlag=      100000 FMFlg1=           0
         NFxFlg=           0 DoJE=T BraDBF=F KetDBF=T FulRan=T
         wScrn=  0.000000 ICntrl=     500 IOpCl=  0 I1Cent=   200000004 NGrid=           0
         NMat0=    1 NMatS0=      1 NMatT0=    0 NMatD0=    1 NMtDS0=    0 NMtDT0=    0
 Petite list used in FoFCou.
 Harris En= -191.827850245590    
 JPrj=0 DoOrth=F DoCkMO=F.
 Leave Link  401 at Tue May 11 16:35:19 2021, MaxMem=  2147483648 cpu:         0.9
 (Enter /opt/cluster/programs/g09_d.01/g09/l502.exe)
 Closed shell SCF:
 Using DIIS extrapolation, IDIIS=  1040.
 Integral symmetry usage will be decided dynamically.
 Keep R1 ints in memory in canonical form, NReq=2587125.
 IVT=       30290 IEndB=       30290 NGot=  2147483648 MDV=  2145777994
 LenX=  2145777994 LenY=  2145773953
 Requested convergence on RMS density matrix=1.00D-08 within 128 cycles.
 Requested convergence on MAX density matrix=1.00D-06.
 Requested convergence on             energy=1.00D-06.
 No special actions if energy rises.
 FoFCou: FMM=F IPFlag=           0 FMFlag=           0 FMFlg1=           0
         NFxFlg=           0 DoJE=F BraDBF=F KetDBF=F FulRan=T
         wScrn=  0.000000 ICntrl=     600 IOpCl=  0 I1Cent=           0 NGrid=           0
         NMat0=    1 NMatS0=   1830 NMatT0=    0 NMatD0=    1 NMtDS0=    0 NMtDT0=    0
 Symmetry not used in FoFCou.

 Cycle   1  Pass 1  IDiag  1:
 E= -191.634696888687    
 DIIS: error= 4.37D-02 at cycle   1 NSaved=   1.
 NSaved= 1 IEnMin= 1 EnMin= -191.634696888687     IErMin= 1 ErrMin= 4.37D-02
 ErrMax= 4.37D-02  0.00D+00 EMaxC= 1.00D-01 BMatC= 1.36D-01 BMatP= 1.36D-01
 IDIUse=3 WtCom= 5.63D-01 WtEn= 4.37D-01
 Coeff-Com:  0.100D+01
 Coeff-En:   0.100D+01
 Coeff:      0.100D+01
 Gap=     0.017 Goal=   None    Shift=    0.000
 GapD=    0.017 DampG=0.250 DampE=0.500 DampFc=0.2500 IDamp=-1.
 Damping current iteration by 2.50D-01
 RMSDP=6.76D-02 MaxDP=1.69D+00              OVMax= 4.46D-01

 Cycle   2  Pass 1  IDiag  1:
 E= -191.669966844770     Delta-E=       -0.035269956083 Rises=F Damp=T
 DIIS: error= 1.80D-02 at cycle   2 NSaved=   2.
 NSaved= 2 IEnMin= 2 EnMin= -191.669966844770     IErMin= 2 ErrMin= 1.80D-02
 ErrMax= 1.80D-02  0.00D+00 EMaxC= 1.00D-01 BMatC= 2.37D-02 BMatP= 1.36D-01
 IDIUse=3 WtCom= 8.20D-01 WtEn= 1.80D-01
 Coeff-Com: -0.484D-01 0.105D+01
 Coeff-En:   0.257D+00 0.743D+00
 Coeff:      0.639D-02 0.994D+00
 Gap=     0.119 Goal=   None    Shift=    0.000
 RMSDP=1.43D-02 MaxDP=3.63D-01 DE=-3.53D-02 OVMax= 3.99D-01

 Cycle   3  Pass 1  IDiag  1:
 E= -191.711955381094     Delta-E=       -0.041988536324 Rises=F Damp=F
 DIIS: error= 5.01D-02 at cycle   3 NSaved=   3.
 NSaved= 3 IEnMin= 3 EnMin= -191.711955381094     IErMin= 2 ErrMin= 1.80D-02
 ErrMax= 5.01D-02  0.00D+00 EMaxC= 1.00D-01 BMatC= 5.96D-02 BMatP= 2.37D-02
 IDIUse=2 WtCom= 0.00D+00 WtEn= 1.00D+00
 Coeff-En:   0.000D+00 0.286D+00 0.714D+00
 Coeff:      0.000D+00 0.286D+00 0.714D+00
 Gap=     0.185 Goal=   None    Shift=    0.000
 RMSDP=2.05D-02 MaxDP=3.61D-01 DE=-4.20D-02 OVMax= 4.31D-01

 Cycle   4  Pass 1  IDiag  1:
 E= -191.490022732661     Delta-E=        0.221932648433 Rises=F Damp=F
 DIIS: error= 1.17D-01 at cycle   4 NSaved=   4.
 NSaved= 4 IEnMin= 3 EnMin= -191.711955381094     IErMin= 2 ErrMin= 1.80D-02
 ErrMax= 1.17D-01  0.00D+00 EMaxC= 1.00D-01 BMatC= 2.97D-01 BMatP= 2.37D-02
 IDIUse=2 WtCom= 0.00D+00 WtEn= 1.00D+00
 EnCoef did     3 forward-backward iterations
 Coeff-En:   0.241D-01 0.000D+00 0.720D+00 0.255D+00
 Coeff:      0.241D-01 0.000D+00 0.720D+00 0.255D+00
 Gap=     0.126 Goal=   None    Shift=    0.000
 RMSDP=1.64D-02 MaxDP=3.30D-01 DE= 2.22D-01 OVMax= 2.63D-01

 Cycle   5  Pass 1  IDiag  1:
 E= -191.764805513363     Delta-E=       -0.274782780703 Rises=F Damp=F
 DIIS: error= 1.69D-02 at cycle   5 NSaved=   5.
 NSaved= 5 IEnMin= 5 EnMin= -191.764805513363     IErMin= 5 ErrMin= 1.69D-02
 ErrMax= 1.69D-02  0.00D+00 EMaxC= 1.00D-01 BMatC= 1.10D-02 BMatP= 2.37D-02
 IDIUse=3 WtCom= 8.31D-01 WtEn= 1.69D-01
 Coeff-Com: -0.214D+00 0.358D+00 0.276D+00-0.858D-01 0.666D+00
 Coeff-En:   0.000D+00 0.000D+00 0.194D+00 0.000D+00 0.806D+00
 Coeff:     -0.178D+00 0.297D+00 0.262D+00-0.713D-01 0.690D+00
 Gap=     0.150 Goal=   None    Shift=    0.000
 RMSDP=2.33D-03 MaxDP=2.76D-02 DE=-2.75D-01 OVMax= 5.99D-02

 Cycle   6  Pass 1  IDiag  1:
 E= -191.777294222602     Delta-E=       -0.012488709239 Rises=F Damp=F
 DIIS: error= 1.53D-03 at cycle   6 NSaved=   6.
 NSaved= 6 IEnMin= 6 EnMin= -191.777294222602     IErMin= 6 ErrMin= 1.53D-03
 ErrMax= 1.53D-03  0.00D+00 EMaxC= 1.00D-01 BMatC= 1.39D-04 BMatP= 1.10D-02
 IDIUse=3 WtCom= 9.85D-01 WtEn= 1.53D-02
 Coeff-Com: -0.478D-01 0.529D-01 0.582D-01-0.250D-01 0.258D+00 0.704D+00
 Coeff-En:   0.000D+00 0.000D+00 0.000D+00 0.000D+00 0.000D+00 0.100D+01
 Coeff:     -0.471D-01 0.521D-01 0.573D-01-0.247D-01 0.254D+00 0.708D+00
 Gap=     0.149 Goal=   None    Shift=    0.000
 RMSDP=2.78D-04 MaxDP=3.33D-03 DE=-1.25D-02 OVMax= 7.05D-03

 Cycle   7  Pass 1  IDiag  1:
 E= -191.777455290293     Delta-E=       -0.000161067691 Rises=F Damp=F
 DIIS: error= 3.95D-04 at cycle   7 NSaved=   7.
 NSaved= 7 IEnMin= 7 EnMin= -191.777455290293     IErMin= 7 ErrMin= 3.95D-04
 ErrMax= 3.95D-04  0.00D+00 EMaxC= 1.00D-01 BMatC= 7.91D-06 BMatP= 1.39D-04
 IDIUse=3 WtCom= 9.96D-01 WtEn= 3.95D-03
 Coeff-Com: -0.409D-02 0.412D-02-0.114D-02-0.508D-02 0.331D-01 0.303D+00
 Coeff-Com:  0.670D+00
 Coeff-En:   0.000D+00 0.000D+00 0.000D+00 0.000D+00 0.000D+00 0.000D+00
 Coeff-En:   0.100D+01
 Coeff:     -0.407D-02 0.410D-02-0.113D-02-0.506D-02 0.330D-01 0.302D+00
 Coeff:      0.672D+00
 Gap=     0.149 Goal=   None    Shift=    0.000
 RMSDP=1.26D-04 MaxDP=2.22D-03 DE=-1.61D-04 OVMax= 1.49D-03

 Cycle   8  Pass 1  IDiag  1:
 E= -191.777463885156     Delta-E=       -0.000008594863 Rises=F Damp=F
 DIIS: error= 1.24D-04 at cycle   8 NSaved=   8.
 NSaved= 8 IEnMin= 8 EnMin= -191.777463885156     IErMin= 8 ErrMin= 1.24D-04
 ErrMax= 1.24D-04  0.00D+00 EMaxC= 1.00D-01 BMatC= 9.56D-07 BMatP= 7.91D-06
 IDIUse=3 WtCom= 9.99D-01 WtEn= 1.24D-03
 Coeff-Com:  0.344D-02-0.560D-02-0.486D-02 0.289D-04-0.927D-04 0.141D+00
 Coeff-Com:  0.378D+00 0.488D+00
 Coeff-En:   0.000D+00 0.000D+00 0.000D+00 0.000D+00 0.000D+00 0.000D+00
 Coeff-En:   0.000D+00 0.100D+01
 Coeff:      0.343D-02-0.560D-02-0.486D-02 0.289D-04-0.925D-04 0.141D+00
 Coeff:      0.378D+00 0.489D+00
 Gap=     0.149 Goal=   None    Shift=    0.000
 RMSDP=2.53D-05 MaxDP=4.02D-04 DE=-8.59D-06 OVMax= 3.72D-04

 Cycle   9  Pass 1  IDiag  1:
 E= -191.777464725442     Delta-E=       -0.000000840286 Rises=F Damp=F
 DIIS: error= 6.85D-05 at cycle   9 NSaved=   9.
 NSaved= 9 IEnMin= 9 EnMin= -191.777464725442     IErMin= 9 ErrMin= 6.85D-05
 ErrMax= 6.85D-05  0.00D+00 EMaxC= 1.00D-01 BMatC= 1.02D-07 BMatP= 9.56D-07
 IDIUse=1 WtCom= 1.00D+00 WtEn= 0.00D+00
 Coeff-Com:  0.244D-03-0.211D-03 0.387D-03-0.379D-03 0.656D-03 0.293D-02
 Coeff-Com:  0.355D-02 0.342D-01 0.959D+00
 Coeff:      0.244D-03-0.211D-03 0.387D-03-0.379D-03 0.656D-03 0.293D-02
 Coeff:      0.355D-02 0.342D-01 0.959D+00
 Gap=     0.149 Goal=   None    Shift=    0.000
 RMSDP=1.03D-05 MaxDP=1.56D-04 DE=-8.40D-07 OVMax= 1.44D-04

 Cycle  10  Pass 1  IDiag  1:
 E= -191.777464826149     Delta-E=       -0.000000100707 Rises=F Damp=F
 DIIS: error= 5.26D-06 at cycle  10 NSaved=  10.
 NSaved=10 IEnMin=10 EnMin= -191.777464826149     IErMin=10 ErrMin= 5.26D-06
 ErrMax= 5.26D-06  0.00D+00 EMaxC= 1.00D-01 BMatC= 8.96D-10 BMatP= 1.02D-07
 IDIUse=1 WtCom= 1.00D+00 WtEn= 0.00D+00
 Coeff-Com:  0.536D-04-0.240D-04 0.105D-03-0.242D-04-0.243D-03-0.289D-02
 Coeff-Com: -0.926D-02-0.979D-02 0.122D+00 0.900D+00
 Coeff:      0.536D-04-0.240D-04 0.105D-03-0.242D-04-0.243D-03-0.289D-02
 Coeff:     -0.926D-02-0.979D-02 0.122D+00 0.900D+00
 Gap=     0.149 Goal=   None    Shift=    0.000
 RMSDP=1.55D-06 MaxDP=2.68D-05 DE=-1.01D-07 OVMax= 7.77D-06

 Cycle  11  Pass 1  IDiag  1:
 E= -191.777464826962     Delta-E=       -0.000000000813 Rises=F Damp=F
 DIIS: error= 1.56D-06 at cycle  11 NSaved=  11.
 NSaved=11 IEnMin=11 EnMin= -191.777464826962     IErMin=11 ErrMin= 1.56D-06
 ErrMax= 1.56D-06  0.00D+00 EMaxC= 1.00D-01 BMatC= 5.42D-11 BMatP= 8.96D-10
 IDIUse=1 WtCom= 1.00D+00 WtEn= 0.00D+00
 Coeff-Com:  0.895D-05-0.836D-05 0.679D-05 0.413D-06-0.322D-04-0.152D-03
 Coeff-Com: -0.558D-03-0.739D-03-0.109D-01 0.870D-01 0.925D+00
 Coeff:      0.895D-05-0.836D-05 0.679D-05 0.413D-06-0.322D-04-0.152D-03
 Coeff:     -0.558D-03-0.739D-03-0.109D-01 0.870D-01 0.925D+00
 Gap=     0.149 Goal=   None    Shift=    0.000
 RMSDP=1.83D-07 MaxDP=2.19D-06 DE=-8.13D-10 OVMax= 2.66D-06

 Cycle  12  Pass 1  IDiag  1:
 E= -191.777464827014     Delta-E=       -0.000000000052 Rises=F Damp=F
 DIIS: error= 2.71D-07 at cycle  12 NSaved=  12.
 NSaved=12 IEnMin=12 EnMin= -191.777464827014     IErMin=12 ErrMin= 2.71D-07
 ErrMax= 2.71D-07  0.00D+00 EMaxC= 1.00D-01 BMatC= 1.74D-12 BMatP= 5.42D-11
 IDIUse=1 WtCom= 1.00D+00 WtEn= 0.00D+00
 Coeff-Com:  0.998D-06-0.196D-05-0.334D-06 0.366D-06 0.378D-05 0.620D-04
 Coeff-Com:  0.162D-03 0.906D-04-0.523D-02-0.126D-01 0.923D-01 0.925D+00
 Coeff:      0.998D-06-0.196D-05-0.334D-06 0.366D-06 0.378D-05 0.620D-04
 Coeff:      0.162D-03 0.906D-04-0.523D-02-0.126D-01 0.923D-01 0.925D+00
 Gap=     0.149 Goal=   None    Shift=    0.000
 RMSDP=2.97D-08 MaxDP=3.54D-07 DE=-5.17D-11 OVMax= 4.94D-07

 Cycle  13  Pass 1  IDiag  1:
 E= -191.777464827017     Delta-E=       -0.000000000003 Rises=F Damp=F
 DIIS: error= 2.82D-08 at cycle  13 NSaved=  13.
 NSaved=13 IEnMin=13 EnMin= -191.777464827017     IErMin=13 ErrMin= 2.82D-08
 ErrMax= 2.82D-08  0.00D+00 EMaxC= 1.00D-01 BMatC= 1.99D-14 BMatP= 1.74D-12
 IDIUse=1 WtCom= 1.00D+00 WtEn= 0.00D+00
 Coeff-Com:  0.217D-06-0.342D-06-0.112D-06 0.283D-07 0.621D-06 0.834D-05
 Coeff-Com:  0.203D-04 0.285D-04-0.832D-04-0.101D-02-0.134D-01 0.283D-02
 Coeff-Com:  0.101D+01
 Coeff:      0.217D-06-0.342D-06-0.112D-06 0.283D-07 0.621D-06 0.834D-05
 Coeff:      0.203D-04 0.285D-04-0.832D-04-0.101D-02-0.134D-01 0.283D-02
 Coeff:      0.101D+01
 Gap=     0.149 Goal=   None    Shift=    0.000
 RMSDP=2.15D-09 MaxDP=2.38D-08 DE=-3.07D-12 OVMax= 4.73D-08

 SCF Done:  E(RB3LYP) =  -191.777464827     A.U. after   13 cycles
            NFock= 13  Conv=0.21D-08     -V/T= 2.0048
 KE= 1.908552664392D+02 PE=-6.503787097876D+02 EE= 1.663485122417D+02
 Leave Link  502 at Tue May 11 16:35:21 2021, MaxMem=  2147483648 cpu:         7.2
 (Enter /opt/cluster/programs/g09_d.01/g09/l601.exe)
 Copying SCF densities to generalized density rwf, IOpCl= 0 IROHF=0.

 **********************************************************************

            Population analysis using the SCF density.

 **********************************************************************

 Orbital symmetries:
       Occupied  (A) (A) (A) (A) (A) (A) (A) (A) (A) (A) (A) (A)
                 (A) (A) (A)
       Virtual   (A) (A) (A) (A) (A) (A) (A) (A) (A) (A) (A) (A)
                 (A) (A) (A) (A) (A) (A) (A) (A) (A) (A) (A) (A)
                 (A) (A) (A) (A) (A) (A) (A) (A) (A) (A) (A) (A)
                 (A) (A) (A) (A) (A) (A) (A) (A) (A)
 The electronic state is 1-A.
 Alpha  occ. eigenvalues --  -19.16489 -10.30628 -10.21895 -10.21165  -0.94336
 Alpha  occ. eigenvalues --   -0.86023  -0.68567  -0.61939  -0.52805  -0.49296
 Alpha  occ. eigenvalues --   -0.42732  -0.38127  -0.37822  -0.29414  -0.26284
 Alpha virt. eigenvalues --   -0.11375   0.00016   0.00253   0.01634   0.03338
 Alpha virt. eigenvalues --    0.04925   0.05878   0.06654   0.08932   0.09356
 Alpha virt. eigenvalues --    0.11873   0.12627   0.13592   0.14450   0.16308
 Alpha virt. eigenvalues --    0.20265   0.22526   0.24073   0.25101   0.25251
 Alpha virt. eigenvalues --    0.29886   0.31889   0.34079   0.38207   0.39678
 Alpha virt. eigenvalues --    0.59015   0.62424   0.66275   0.67884   0.70975
 Alpha virt. eigenvalues --    0.73203   0.84948   0.90748   0.95325   0.96496
 Alpha virt. eigenvalues --    1.03290   1.07525   1.09712   1.15837   1.20910
 Alpha virt. eigenvalues --    1.26489   1.30701   1.33312   1.39538   1.79100
          Condensed to atoms (all electrons):
               1          2          3          4          5          6
     1  C    5.772590  -0.287804   0.078154   0.053753   0.089381   0.401674
     2  C   -0.287804   5.971321   0.262956  -0.153604  -0.186224  -0.058637
     3  C    0.078154   0.262956   5.051755   0.323992   0.359552   0.007383
     4  O    0.053753  -0.153604   0.323992   8.201823  -0.027935  -0.000394
     5  H    0.089381  -0.186224   0.359552  -0.027935   0.565934   0.000071
     6  H    0.401674  -0.058637   0.007383  -0.000394   0.000071   0.500669
     7  H    0.405850  -0.067018  -0.007680   0.001199   0.002065  -0.029747
     8  H   -0.069414   0.411599  -0.022229  -0.012320   0.001075  -0.004566
               7          8
     1  C    0.405850  -0.069414
     2  C   -0.067018   0.411599
     3  C   -0.007680  -0.022229
     4  O    0.001199  -0.012320
     5  H    0.002065   0.001075
     6  H   -0.029747  -0.004566
     7  H    0.513021   0.004630
     8  H    0.004630   0.471363
 Mulliken charges:
               1
     1  C   -0.444183
     2  C    0.107413
     3  C   -0.053883
     4  O   -0.386514
     5  H    0.196081
     6  H    0.183546
     7  H    0.177678
     8  H    0.219862
 Sum of Mulliken charges =   0.00000
 Mulliken charges with hydrogens summed into heavy atoms:
               1
     1  C   -0.082958
     2  C    0.327274
     3  C    0.142198
     4  O   -0.386514
 Electronic spatial extent (au):  <R**2>=            297.0417
 Charge=              0.0000 electrons
 Dipole moment (field-independent basis, Debye):
    X=             -4.5020    Y=              1.2976    Z=              0.0007  Tot=              4.6853
 Quadrupole moment (field-independent basis, Debye-Ang):
   XX=            -30.2565   YY=            -20.6442   ZZ=            -25.4468
   XY=              1.5391   XZ=             -0.0018   YZ=             -0.0013
 Traceless Quadrupole moment (field-independent basis, Debye-Ang):
   XX=             -4.8073   YY=              4.8050   ZZ=              0.0023
   XY=              1.5391   XZ=             -0.0018   YZ=             -0.0013
 Octapole moment (field-independent basis, Debye-Ang**2):
  XXX=            -19.4569  YYY=              1.2791  ZZZ=              0.0004  XYY=             -0.9163
  XXY=             -0.0257  XXZ=              0.0024  XZZ=              2.2783  YZZ=              0.0370
  YYZ=              0.0001  XYZ=              0.0010
 Hexadecapole moment (field-independent basis, Debye-Ang**3):
 XXXX=           -316.9583 YYYY=            -55.7720 ZZZZ=            -28.1088 XXXY=              1.9176
 XXXZ=             -0.0134 YYYX=              1.4412 YYYZ=             -0.0051 ZZZX=             -0.0039
 ZZZY=             -0.0011 XXYY=            -58.5854 XXZZ=            -57.0389 YYZZ=            -15.9007
 XXYZ=             -0.0009 YYXZ=             -0.0027 ZZXY=             -0.4795
 N-N= 1.013974662796D+02 E-N=-6.503787101892D+02  KE= 1.908552664392D+02
 No NMR shielding tensors so no spin-rotation constants.
 Leave Link  601 at Tue May 11 16:35:28 2021, MaxMem=  2147483648 cpu:         0.6
 (Enter /opt/cluster/programs/g09_d.01/g09/l701.exe)
 Compute integral first derivatives.
 ... and contract with generalized density number  0.
 Leave Link  701 at Tue May 11 16:35:29 2021, MaxMem=  2147483648 cpu:         0.6
 (Enter /opt/cluster/programs/g09_d.01/g09/l702.exe)
 L702 exits ... SP integral derivatives will be done elsewhere.
 Leave Link  702 at Tue May 11 16:35:29 2021, MaxMem=  2147483648 cpu:         0.2
 (Enter /opt/cluster/programs/g09_d.01/g09/l703.exe)
 Compute integral first derivatives, UseDBF=F ICtDFT=           0.
 Integral derivatives from FoFJK, PRISM(SPDF).
 Calling FoFJK, ICntrl=      2127 FMM=F ISym2X=0 I1Cent= 0 IOpClX= 0 NMat=1 NMatS=1 NMatT=0.
 FoFJK:  IHMeth= 1 ICntrl=    2127 DoSepK=F KAlg= 0 I1Cent=   0 FoldK=F
 IRaf=         0 NMat=   1 IRICut=       1 DoRegI=T DoRafI=F ISym2E= 0.
 FoFCou: FMM=F IPFlag=           0 FMFlag=      100000 FMFlg1=         800
         NFxFlg=           0 DoJE=F BraDBF=F KetDBF=F FulRan=T
         wScrn=  0.000000 ICntrl=    2127 IOpCl=  0 I1Cent=           0 NGrid=           0
         NMat0=    1 NMatS0=      1 NMatT0=    0 NMatD0=    1 NMtDS0=    0 NMtDT0=    0
 Symmetry not used in FoFCou.
 Leave Link  703 at Tue May 11 16:35:30 2021, MaxMem=  2147483648 cpu:         1.8
 (Enter /opt/cluster/programs/g09_d.01/g09/l716.exe)
 Dipole        =-1.77123743D+00 5.10511950D-01 2.82699186D-04
 ***** Axes restored to original set *****
 -------------------------------------------------------------------
 Center     Atomic                   Forces (Hartrees/Bohr)
 Number     Number              X              Y              Z
 -------------------------------------------------------------------
      1        6           0.117404738   -0.000776343   -0.002827891
      2        6          -0.112857160    0.000637556    0.056526576
      3        6          -0.187890553    0.001628463   -0.132916712
      4        8           0.138118703   -0.001085795    0.057048936
      5        1           0.011224006   -0.000230912    0.043983576
      6        1           0.036441624   -0.000149291   -0.027826573
      7        1           0.025301423   -0.000317905    0.037026511
      8        1          -0.027742780    0.000294227   -0.031014423
 -------------------------------------------------------------------
 Cartesian Forces:  Max     0.187890553 RMS     0.068597728
 Leave Link  716 at Tue May 11 16:35:30 2021, MaxMem=  2147483648 cpu:         0.2
 (Enter /opt/cluster/programs/g09_d.01/g09/l103.exe)

 GradGradGradGradGradGradGradGradGradGradGradGradGradGradGradGradGradGrad
 Berny optimization.
 FormGI is forming the generalized inverse of G from B-inverse, IUseBI=4.
 Internal  Forces:  Max     0.177739012 RMS     0.052961622
 Search for a local minimum.
 Step number   1 out of a maximum of   34
 All quantities printed in internal units (Hartrees-Bohrs-Radians)
 RMS Force = .52962D-01 SwitMx=.10000D-02 MixMth= 1
 Mixed Optimization -- RFO/linear search
 Second derivative matrix not updated -- first step.
 ITU=  0
     Eigenvalues ---    0.01168   0.01168   0.02646   0.04124   0.04124
     Eigenvalues ---    0.16000   0.16000   0.16000   0.16000   0.22000
     Eigenvalues ---    0.22000   0.30597   0.35784   0.42447   0.42460
     Eigenvalues ---    0.42483   0.42578   0.84665
 RFO step:  Lambda=-1.17546632D-01 EMin= 1.16758682D-02
 Linear search not attempted -- first point.
 Maximum step size (   0.300) exceeded in Quadratic search.
    -- Step size scaled by   0.612
 Iteration  1 RMS(Cart)=  0.07410313 RMS(Int)=  0.00312608
 Iteration  2 RMS(Cart)=  0.00343025 RMS(Int)=  0.00000399
 Iteration  3 RMS(Cart)=  0.00000552 RMS(Int)=  0.00000133
 Iteration  4 RMS(Cart)=  0.00000000 RMS(Int)=  0.00000133
 ITry= 1 IFail=0 DXMaxC= 1.94D-01 DCOld= 1.00D+10 DXMaxT= 3.00D-01 DXLimC= 3.00D+00 Rises=F
 Variable       Old X    -DE/DX   Delta X   Delta X   Delta X     New X
                                 (Linear)    (Quad)   (Total)
    R1        2.35493   0.17774   0.00000   0.11281   0.11281   2.46775
    R2        1.95042   0.04466   0.00000   0.05041   0.05041   2.00083
    R3        1.95058   0.04354   0.00000   0.04916   0.04916   1.99974
    R4        2.77721  -0.00704   0.00000  -0.00906  -0.00906   2.76815
    R5        1.95013   0.03973   0.00000   0.04483   0.04483   1.99496
    R6        2.86788  -0.14739   0.00000  -0.21299  -0.21299   2.65489
    R7        1.94894   0.04490   0.00000   0.05058   0.05058   1.99952
    A1        2.09474   0.00652   0.00000   0.01437   0.01437   2.10911
    A2        2.09419   0.00723   0.00000   0.01594   0.01594   2.11013
    A3        2.09426  -0.01375   0.00000  -0.03031  -0.03031   2.06394
    A4        1.95459   0.04516   0.00000   0.08188   0.08188   2.03647
    A5        2.16456  -0.01051   0.00000  -0.01432  -0.01432   2.15025
    A6        2.16403  -0.03465   0.00000  -0.06756  -0.06756   2.09647
    A7        1.89471   0.04281   0.00000   0.07762   0.07762   1.97233
    A8        2.19445  -0.01491   0.00000  -0.02449  -0.02449   2.16996
    A9        2.19403  -0.02790   0.00000  -0.05313  -0.05313   2.14090
    D1       -3.14072  -0.00004   0.00000  -0.00017  -0.00017  -3.14089
    D2       -0.00025  -0.00001   0.00000  -0.00002  -0.00001  -0.00027
    D3        0.00036   0.00000   0.00000  -0.00003  -0.00003   0.00033
    D4        3.14083   0.00003   0.00000   0.00013   0.00013   3.14095
    D5       -3.14150  -0.00003   0.00000  -0.00014  -0.00014   3.14155
    D6       -0.00134   0.00007   0.00000   0.00031   0.00031  -0.00103
    D7        0.00122  -0.00008   0.00000  -0.00033  -0.00033   0.00089
    D8        3.14138   0.00002   0.00000   0.00011   0.00012   3.14150
         Item               Value     Threshold  Converged?
 Maximum Force            0.177739     0.000450     NO 
 RMS     Force            0.052962     0.000300     NO 
 Maximum Displacement     0.193565     0.001800     NO 
 RMS     Displacement     0.074366     0.001200     NO 
 Predicted change in Energy=-5.521473D-02
 Lowest energy point so far.  Saving SCF results.
 GradGradGradGradGradGradGradGradGradGradGradGradGradGradGradGradGradGrad

 Leave Link  103 at Tue May 11 16:35:31 2021, MaxMem=  2147483648 cpu:         0.0
 (Enter /opt/cluster/programs/g09_d.01/g09/l202.exe)
                          Input orientation:                          
 ---------------------------------------------------------------------
 Center     Atomic      Atomic             Coordinates (Angstroms)
 Number     Number       Type             X           Y           Z
 ---------------------------------------------------------------------
      1          6           0        3.397723   -0.050253   -0.903457
      2          6           0        2.104047   -0.040944   -1.081303
      3          6           0        1.274161   -0.039513    0.125781
      4          8           0       -0.102493   -0.029235   -0.154374
      5          1           0        1.656104   -0.046374    1.112516
      6          1           0        4.059310   -0.051225   -1.730105
      7          1           0        3.812430   -0.056688    0.070093
      8          1           0        1.651718   -0.033769   -2.035151
 ---------------------------------------------------------------------
                    Distance matrix (angstroms):
                    1          2          3          4          5
     1  C    0.000000
     2  C    1.305876   0.000000
     3  C    2.359864   1.464843   0.000000
     4  O    3.579536   2.393357   1.404909   0.000000
     5  H    2.664095   2.239091   1.058099   2.167479   0.000000
     6  H    1.058794   2.060122   3.346865   4.450171   3.722354
     7  H    1.058218   2.060227   2.538938   3.921449   2.395098
     8  H    2.080753   1.055688   2.193674   2.571886   3.147695
                    6          7          8
     6  H    0.000000
     7  H    1.817057   0.000000
     8  H    2.426903   3.016829   0.000000
 Stoichiometry    C3H4O
 Framework group  C1[X(C3H4O)]
 Deg. of freedom    18
 Full point group                 C1      NOp   1
 RotChk:  IX=0 Diff= 1.34D-02
 Largest Abelian subgroup         C1      NOp   1
 Largest concise Abelian subgroup C1      NOp   1
                         Standard orientation:                         
 ---------------------------------------------------------------------
 Center     Atomic      Atomic             Coordinates (Angstroms)
 Number     Number       Type             X           Y           Z
 ---------------------------------------------------------------------
      1          6           0       -1.742105    0.096226   -0.000019
      2          6           0       -0.552781   -0.443054   -0.000203
      3          6           0        0.586778    0.477365    0.000165
      4          8           0        1.826474   -0.183636   -0.000004
      5          1           0        0.501951    1.532058   -0.000338
      6          1           0       -2.611894   -0.507522    0.000373
      7          1           0       -1.862092    1.147619    0.000077
      8          1           0       -0.391112   -1.486289    0.000261
 ---------------------------------------------------------------------
 Rotational constants (GHZ):     42.4375475      4.6783889      4.2138472
 Leave Link  202 at Tue May 11 16:35:31 2021, MaxMem=  2147483648 cpu:         0.0
 (Enter /opt/cluster/programs/g09_d.01/g09/l301.exe)
 Standard basis: 6-31+G (6D, 7F)
 Ernie: Thresh=  0.10000D-02 Tol=  0.10000D-05 Strict=F.
 There are    60 symmetry adapted cartesian basis functions of A   symmetry.
 There are    60 symmetry adapted basis functions of A   symmetry.
    60 basis functions,   120 primitive gaussians,    60 cartesian basis functions
    15 alpha electrons       15 beta electrons
       nuclear repulsion energy       101.1727281170 Hartrees.
 IExCor=  402 DFT=T Ex+Corr=B3LYP ExCW=0 ScaHFX=  0.200000
 ScaDFX=  0.800000  0.720000  1.000000  0.810000 ScalE2=  1.000000  1.000000
 IRadAn=      0 IRanWt=     -1 IRanGd=            0 ICorTp=0 IEmpDi=  4
 NAtoms=    8 NActive=    8 NUniq=    8 SFac= 1.00D+00 NAtFMM=   60 NAOKFM=F Big=F
 Integral buffers will be    131072 words long.
 Raffenetti 2 integral format.
 Two-electron integral symmetry is turned on.
 Leave Link  301 at Tue May 11 16:35:31 2021, MaxMem=  2147483648 cpu:         0.3
 (Enter /opt/cluster/programs/g09_d.01/g09/l302.exe)
 NPDir=0 NMtPBC=     1 NCelOv=     1 NCel=       1 NClECP=     1 NCelD=      1
         NCelK=      1 NCelE2=     1 NClLst=     1 CellRange=     0.0.
 One-electron integrals computed using PRISM.
 NBasis=    60 RedAO= T EigKep=  9.87D-05  NBF=    60
 NBsUse=    60 1.00D-06 EigRej= -1.00D+00 NBFU=    60
 Precomputing XC quadrature grid using
 IXCGrd= 4 IRadAn=           0 IRanWt=          -1 IRanGd=           0 AccXCQ= 0.00D+00.
 Generated NRdTot=       0 NPtTot=           0 NUsed=           0 NTot=          32
 NSgBfM=    60    60    60    60    60 MxSgAt=     8 MxSgA2=     8.
 Leave Link  302 at Tue May 11 16:35:31 2021, MaxMem=  2147483648 cpu:         0.8
 (Enter /opt/cluster/programs/g09_d.01/g09/l303.exe)
 DipDrv:  MaxL=1.
 Leave Link  303 at Tue May 11 16:35:31 2021, MaxMem=  2147483648 cpu:         0.2
 (Enter /opt/cluster/programs/g09_d.01/g09/l401.exe)
 Initial guess from the checkpoint file:  "/home/unibas/boittier/RDKit_G2/L.pdb/OPT_B3LYP_6-31+G/L.pdb.chk"
 B after Tr=     0.000000    0.000000    0.000000
         Rot=    0.999994   -0.000010    0.000000    0.003485 Ang=  -0.40 deg.
 Guess basis will be translated and rotated to current coordinates.
 JPrj=2 DoOrth=T DoCkMO=T.
 Generating alternative initial guess.
 ExpMin= 4.38D-02 ExpMax= 5.48D+03 ExpMxC= 8.25D+02 IAcc=2 IRadAn=         4 AccDes= 0.00D+00
 Harris functional with IExCor=  402 and IRadAn=       4 diagonalized for initial guess.
 HarFok:  IExCor=  402 AccDes= 0.00D+00 IRadAn=         4 IDoV= 1 UseB2=F ITyADJ=14
 ICtDFT=  3500011 ScaDFX=  1.000000  1.000000  1.000000  1.000000
 FoFCou: FMM=F IPFlag=           0 FMFlag=      100000 FMFlg1=           0
         NFxFlg=           0 DoJE=T BraDBF=F KetDBF=T FulRan=T
         wScrn=  0.000000 ICntrl=     500 IOpCl=  0 I1Cent=   200000004 NGrid=           0
         NMat0=    1 NMatS0=      1 NMatT0=    0 NMatD0=    1 NMtDS0=    0 NMtDT0=    0
 Petite list used in FoFCou.
 Harris En= -191.866566876421    
 Leave Link  401 at Tue May 11 16:35:31 2021, MaxMem=  2147483648 cpu:         1.3
 (Enter /opt/cluster/programs/g09_d.01/g09/l502.exe)
 Closed shell SCF:
 Using DIIS extrapolation, IDIIS=  1040.
 Integral symmetry usage will be decided dynamically.
 Keep R1 ints in memory in canonical form, NReq=2587125.
 IVT=       30290 IEndB=       30290 NGot=  2147483648 MDV=  2145777994
 LenX=  2145777994 LenY=  2145773953
 Requested convergence on RMS density matrix=1.00D-08 within 128 cycles.
 Requested convergence on MAX density matrix=1.00D-06.
 Requested convergence on             energy=1.00D-06.
 No special actions if energy rises.
 FoFCou: FMM=F IPFlag=           0 FMFlag=           0 FMFlg1=           0
         NFxFlg=           0 DoJE=F BraDBF=F KetDBF=F FulRan=T
         wScrn=  0.000000 ICntrl=     600 IOpCl=  0 I1Cent=           0 NGrid=           0
         NMat0=    1 NMatS0=   1830 NMatT0=    0 NMatD0=    1 NMtDS0=    0 NMtDT0=    0
 Symmetry not used in FoFCou.

 Cycle   1  Pass 1  IDiag  1:
 E= -191.827719648401    
 DIIS: error= 7.41D-03 at cycle   1 NSaved=   1.
 NSaved= 1 IEnMin= 1 EnMin= -191.827719648401     IErMin= 1 ErrMin= 7.41D-03
 ErrMax= 7.41D-03  0.00D+00 EMaxC= 1.00D-01 BMatC= 5.58D-03 BMatP= 5.58D-03
 IDIUse=3 WtCom= 9.26D-01 WtEn= 7.41D-02
 Coeff-Com:  0.100D+01
 Coeff-En:   0.100D+01
 Coeff:      0.100D+01
 Gap=     0.465 Goal=   None    Shift=    0.000
 GapD=    0.465 DampG=2.000 DampE=1.000 DampFc=2.0000 IDamp=-1.
 RMSDP=3.46D-03 MaxDP=3.18D-02              OVMax= 3.74D-02

 Cycle   2  Pass 1  IDiag  1:
 E= -191.832409085499     Delta-E=       -0.004689437098 Rises=F Damp=F
 DIIS: error= 1.25D-02 at cycle   2 NSaved=   2.
 NSaved= 2 IEnMin= 2 EnMin= -191.832409085499     IErMin= 1 ErrMin= 7.41D-03
 ErrMax= 1.25D-02  0.00D+00 EMaxC= 1.00D-01 BMatC= 3.43D-03 BMatP= 5.58D-03
 IDIUse=3 WtCom= 8.75D-01 WtEn= 1.25D-01
 Coeff-Com:  0.409D+00 0.591D+00
 Coeff-En:   0.000D+00 0.100D+01
 Coeff:      0.358D+00 0.642D+00
 Gap=     0.149 Goal=   None    Shift=    0.000
 RMSDP=4.02D-03 MaxDP=7.02D-02 DE=-4.69D-03 OVMax= 8.05D-02

 Cycle   3  Pass 1  IDiag  1:
 E= -191.827756442876     Delta-E=        0.004652642623 Rises=F Damp=F
 DIIS: error= 2.08D-02 at cycle   3 NSaved=   3.
 NSaved= 3 IEnMin= 2 EnMin= -191.832409085499     IErMin= 1 ErrMin= 7.41D-03
 ErrMax= 2.08D-02  0.00D+00 EMaxC= 1.00D-01 BMatC= 8.71D-03 BMatP= 3.43D-03
 IDIUse=2 WtCom= 0.00D+00 WtEn= 1.00D+00
 Coeff-En:   0.000D+00 0.651D+00 0.349D+00
 Coeff:      0.000D+00 0.651D+00 0.349D+00
 Gap=     0.162 Goal=   None    Shift=    0.000
 RMSDP=2.35D-03 MaxDP=4.14D-02 DE= 4.65D-03 OVMax= 4.06D-02

 Cycle   4  Pass 1  IDiag  1:
 E= -191.835306736969     Delta-E=       -0.007550294093 Rises=F Damp=F
 DIIS: error= 2.22D-03 at cycle   4 NSaved=   4.
 NSaved= 4 IEnMin= 4 EnMin= -191.835306736969     IErMin= 4 ErrMin= 2.22D-03
 ErrMax= 2.22D-03  0.00D+00 EMaxC= 1.00D-01 BMatC= 2.84D-04 BMatP= 3.43D-03
 IDIUse=3 WtCom= 9.78D-01 WtEn= 2.22D-02
 Coeff-Com: -0.157D-01 0.360D+00 0.183D+00 0.472D+00
 Coeff-En:   0.000D+00 0.762D-01 0.000D+00 0.924D+00
 Coeff:     -0.153D-01 0.354D+00 0.179D+00 0.482D+00
 Gap=     0.165 Goal=   None    Shift=    0.000
 RMSDP=4.52D-04 MaxDP=6.80D-03 DE=-7.55D-03 OVMax= 1.03D-02

 Cycle   5  Pass 1  IDiag  1:
 E= -191.835624825163     Delta-E=       -0.000318088194 Rises=F Damp=F
 DIIS: error= 5.77D-04 at cycle   5 NSaved=   5.
 NSaved= 5 IEnMin= 5 EnMin= -191.835624825163     IErMin= 5 ErrMin= 5.77D-04
 ErrMax= 5.77D-04  0.00D+00 EMaxC= 1.00D-01 BMatC= 9.53D-06 BMatP= 2.84D-04
 IDIUse=3 WtCom= 9.94D-01 WtEn= 5.77D-03
 Coeff-Com: -0.840D-02 0.149D+00 0.811D-01 0.244D+00 0.535D+00
 Coeff-En:   0.000D+00 0.000D+00 0.000D+00 0.000D+00 0.100D+01
 Coeff:     -0.835D-02 0.148D+00 0.806D-01 0.242D+00 0.538D+00
 Gap=     0.164 Goal=   None    Shift=    0.000
 RMSDP=9.55D-05 MaxDP=1.31D-03 DE=-3.18D-04 OVMax= 2.36D-03

 Cycle   6  Pass 1  IDiag  1:
 E= -191.835635425536     Delta-E=       -0.000010600373 Rises=F Damp=F
 DIIS: error= 1.76D-04 at cycle   6 NSaved=   6.
 NSaved= 6 IEnMin= 6 EnMin= -191.835635425536     IErMin= 6 ErrMin= 1.76D-04
 ErrMax= 1.76D-04  0.00D+00 EMaxC= 1.00D-01 BMatC= 1.24D-06 BMatP= 9.53D-06
 IDIUse=3 WtCom= 9.98D-01 WtEn= 1.76D-03
 Coeff-Com: -0.127D-02 0.439D-02 0.756D-02 0.368D-01 0.314D+00 0.639D+00
 Coeff-En:   0.000D+00 0.000D+00 0.000D+00 0.000D+00 0.215D-01 0.979D+00
 Coeff:     -0.127D-02 0.438D-02 0.755D-02 0.368D-01 0.313D+00 0.639D+00
 Gap=     0.164 Goal=   None    Shift=    0.000
 RMSDP=2.77D-05 MaxDP=3.16D-04 DE=-1.06D-05 OVMax= 5.28D-04

 Cycle   7  Pass 1  IDiag  1:
 E= -191.835636700305     Delta-E=       -0.000001274769 Rises=F Damp=F
 DIIS: error= 4.90D-05 at cycle   7 NSaved=   7.
 NSaved= 7 IEnMin= 7 EnMin= -191.835636700305     IErMin= 7 ErrMin= 4.90D-05
 ErrMax= 4.90D-05  0.00D+00 EMaxC= 1.00D-01 BMatC= 5.13D-08 BMatP= 1.24D-06
 IDIUse=1 WtCom= 1.00D+00 WtEn= 0.00D+00
 Coeff-Com: -0.238D-03-0.116D-02-0.698D-03 0.639D-02 0.839D-01 0.186D+00
 Coeff-Com:  0.726D+00
 Coeff:     -0.238D-03-0.116D-02-0.698D-03 0.639D-02 0.839D-01 0.186D+00
 Coeff:      0.726D+00
 Gap=     0.164 Goal=   None    Shift=    0.000
 RMSDP=1.01D-05 MaxDP=1.94D-04 DE=-1.27D-06 OVMax= 9.85D-05

 Cycle   8  Pass 1  IDiag  1:
 E= -191.835636749595     Delta-E=       -0.000000049290 Rises=F Damp=F
 DIIS: error= 1.18D-05 at cycle   8 NSaved=   8.
 NSaved= 8 IEnMin= 8 EnMin= -191.835636749595     IErMin= 8 ErrMin= 1.18D-05
 ErrMax= 1.18D-05  0.00D+00 EMaxC= 1.00D-01 BMatC= 3.74D-09 BMatP= 5.13D-08
 IDIUse=1 WtCom= 1.00D+00 WtEn= 0.00D+00
 Coeff-Com:  0.438D-04-0.120D-02-0.143D-02-0.718D-03 0.925D-02 0.273D-01
 Coeff-Com:  0.281D+00 0.685D+00
 Coeff:      0.438D-04-0.120D-02-0.143D-02-0.718D-03 0.925D-02 0.273D-01
 Coeff:      0.281D+00 0.685D+00
 Gap=     0.164 Goal=   None    Shift=    0.000
 RMSDP=1.77D-06 MaxDP=2.13D-05 DE=-4.93D-08 OVMax= 2.75D-05

 Cycle   9  Pass 1  IDiag  1:
 E= -191.835636753575     Delta-E=       -0.000000003980 Rises=F Damp=F
 DIIS: error= 3.84D-07 at cycle   9 NSaved=   9.
 NSaved= 9 IEnMin= 9 EnMin= -191.835636753575     IErMin= 9 ErrMin= 3.84D-07
 ErrMax= 3.84D-07  0.00D+00 EMaxC= 1.00D-01 BMatC= 9.47D-12 BMatP= 3.74D-09
 IDIUse=1 WtCom= 1.00D+00 WtEn= 0.00D+00
 Coeff-Com:  0.111D-04-0.530D-04-0.825D-04-0.270D-03-0.245D-02-0.433D-02
 Coeff-Com: -0.115D-01 0.531D-01 0.966D+00
 Coeff:      0.111D-04-0.530D-04-0.825D-04-0.270D-03-0.245D-02-0.433D-02
 Coeff:     -0.115D-01 0.531D-01 0.966D+00
 Gap=     0.164 Goal=   None    Shift=    0.000
 RMSDP=2.92D-07 MaxDP=5.93D-06 DE=-3.98D-09 OVMax= 3.40D-06

 Cycle  10  Pass 1  IDiag  1:
 E= -191.835636753594     Delta-E=       -0.000000000019 Rises=F Damp=F
 DIIS: error= 2.32D-07 at cycle  10 NSaved=  10.
 NSaved=10 IEnMin=10 EnMin= -191.835636753594     IErMin=10 ErrMin= 2.32D-07
 ErrMax= 2.32D-07  0.00D+00 EMaxC= 1.00D-01 BMatC= 1.36D-12 BMatP= 9.47D-12
 IDIUse=1 WtCom= 1.00D+00 WtEn= 0.00D+00
 Coeff-Com:  0.420D-06 0.145D-04 0.974D-05-0.484D-05-0.290D-03-0.908D-03
 Coeff-Com: -0.637D-02-0.108D-01 0.980D-01 0.920D+00
 Coeff:      0.420D-06 0.145D-04 0.974D-05-0.484D-05-0.290D-03-0.908D-03
 Coeff:     -0.637D-02-0.108D-01 0.980D-01 0.920D+00
 Gap=     0.164 Goal=   None    Shift=    0.000
 RMSDP=6.77D-08 MaxDP=1.27D-06 DE=-1.88D-11 OVMax= 4.21D-07

 Cycle  11  Pass 1  IDiag  1:
 E= -191.835636753596     Delta-E=       -0.000000000002 Rises=F Damp=F
 DIIS: error= 4.17D-08 at cycle  11 NSaved=  11.
 NSaved=11 IEnMin=11 EnMin= -191.835636753596     IErMin=11 ErrMin= 4.17D-08
 ErrMax= 4.17D-08  0.00D+00 EMaxC= 1.00D-01 BMatC= 4.99D-14 BMatP= 1.36D-12
 IDIUse=1 WtCom= 1.00D+00 WtEn= 0.00D+00
 Coeff-Com: -0.207D-06 0.326D-05 0.159D-05 0.780D-05 0.349D-04 0.402D-04
 Coeff-Com: -0.400D-03-0.283D-02-0.122D-01 0.850D-01 0.930D+00
 Coeff:     -0.207D-06 0.326D-05 0.159D-05 0.780D-05 0.349D-04 0.402D-04
 Coeff:     -0.400D-03-0.283D-02-0.122D-01 0.850D-01 0.930D+00
 Gap=     0.164 Goal=   None    Shift=    0.000
 RMSDP=1.17D-08 MaxDP=2.14D-07 DE=-1.82D-12 OVMax= 6.49D-08

 Cycle  12  Pass 1  IDiag  1:
 E= -191.835636753595     Delta-E=        0.000000000001 Rises=F Damp=F
 DIIS: error= 5.90D-09 at cycle  12 NSaved=  12.
 NSaved=12 IEnMin=11 EnMin= -191.835636753596     IErMin=12 ErrMin= 5.90D-09
 ErrMax= 5.90D-09  0.00D+00 EMaxC= 1.00D-01 BMatC= 1.07D-15 BMatP= 4.99D-14
 IDIUse=1 WtCom= 1.00D+00 WtEn= 0.00D+00
 Coeff-Com: -0.423D-07 0.266D-06-0.165D-06 0.187D-05 0.121D-04 0.267D-04
 Coeff-Com:  0.733D-04-0.234D-03-0.374D-02-0.772D-02 0.124D+00 0.888D+00
 Coeff:     -0.423D-07 0.266D-06-0.165D-06 0.187D-05 0.121D-04 0.267D-04
 Coeff:      0.733D-04-0.234D-03-0.374D-02-0.772D-02 0.124D+00 0.888D+00
 Gap=     0.164 Goal=   None    Shift=    0.000
 RMSDP=1.27D-09 MaxDP=1.60D-08 DE= 5.12D-13 OVMax= 9.48D-09

 SCF Done:  E(RB3LYP) =  -191.835636754     A.U. after   12 cycles
            NFock= 12  Conv=0.13D-08     -V/T= 2.0063
 KE= 1.906377206688D+02 PE=-6.498044438762D+02 EE= 1.661583583367D+02
 Leave Link  502 at Tue May 11 16:35:32 2021, MaxMem=  2147483648 cpu:         6.5
 (Enter /opt/cluster/programs/g09_d.01/g09/l701.exe)
 Compute integral first derivatives.
 ... and contract with generalized density number  0.
 Leave Link  701 at Tue May 11 16:35:32 2021, MaxMem=  2147483648 cpu:         0.6
 (Enter /opt/cluster/programs/g09_d.01/g09/l702.exe)
 L702 exits ... SP integral derivatives will be done elsewhere.
 Leave Link  702 at Tue May 11 16:35:32 2021, MaxMem=  2147483648 cpu:         0.2
 (Enter /opt/cluster/programs/g09_d.01/g09/l703.exe)
 Compute integral first derivatives, UseDBF=F ICtDFT=           0.
 Integral derivatives from FoFJK, PRISM(SPDF).
 Calling FoFJK, ICntrl=      2127 FMM=F ISym2X=0 I1Cent= 0 IOpClX= 0 NMat=1 NMatS=1 NMatT=0.
 FoFJK:  IHMeth= 1 ICntrl=    2127 DoSepK=F KAlg= 0 I1Cent=   0 FoldK=F
 IRaf=         0 NMat=   1 IRICut=       1 DoRegI=T DoRafI=F ISym2E= 0.
 FoFCou: FMM=F IPFlag=           0 FMFlag=      100000 FMFlg1=         800
         NFxFlg=           0 DoJE=F BraDBF=F KetDBF=F FulRan=T
         wScrn=  0.000000 ICntrl=    2127 IOpCl=  0 I1Cent=           0 NGrid=           0
         NMat0=    1 NMatS0=      1 NMatT0=    0 NMatD0=    1 NMtDS0=    0 NMtDT0=    0
 Symmetry not used in FoFCou.
 Leave Link  703 at Tue May 11 16:35:32 2021, MaxMem=  2147483648 cpu:         1.8
 (Enter /opt/cluster/programs/g09_d.01/g09/l716.exe)
 Dipole        =-1.65006200D+00 4.76201289D-01 2.33016973D-04
 ***** Axes restored to original set *****
 -------------------------------------------------------------------
 Center     Atomic                   Forces (Hartrees/Bohr)
 Number     Number              X              Y              Z
 -------------------------------------------------------------------
      1        6           0.036269866   -0.000207426   -0.007807642
      2        6          -0.027932434    0.000116149    0.040180441
      3        6          -0.142223232    0.001182276   -0.087561664
      4        8           0.113259560   -0.000890289    0.042921156
      5        1           0.006319880   -0.000107756    0.022646976
      6        1           0.016720638   -0.000074445   -0.012967643
      7        1           0.012126735   -0.000158501    0.018239687
      8        1          -0.014541013    0.000139992   -0.015651311
 -------------------------------------------------------------------
 Cartesian Forces:  Max     0.142223232 RMS     0.044849108
 Leave Link  716 at Tue May 11 16:35:32 2021, MaxMem=  2147483648 cpu:         0.2
 (Enter /opt/cluster/programs/g09_d.01/g09/l103.exe)

 GradGradGradGradGradGradGradGradGradGradGradGradGradGradGradGradGradGrad
 Berny optimization.
 Using GEDIIS/GDIIS optimizer.
 FormGI is forming the generalized inverse of G from B-inverse, IUseBI=4.
 Internal  Forces:  Max     0.119546861 RMS     0.030802502
 Search for a local minimum.
 Step number   2 out of a maximum of   34
 All quantities printed in internal units (Hartrees-Bohrs-Radians)
 RMS Force = .30803D-01 SwitMx=.10000D-02 MixMth= 1
 Mixed Optimization -- RFO/linear search
 Update second derivatives using D2CorX and points    1    2
 DE= -5.82D-02 DEPred=-5.52D-02 R= 1.05D+00
 TightC=F SS=  1.41D+00  RLast= 3.00D-01 DXNew= 5.0454D-01 9.0000D-01
 Trust test= 1.05D+00 RLast= 3.00D-01 DXMaxT set to 5.05D-01
 ITU=  1  0
 Use linear search instead of GDIIS.
     Eigenvalues ---    0.01168   0.01168   0.02695   0.04124   0.04124
     Eigenvalues ---    0.15904   0.16000   0.16000   0.16250   0.17334
     Eigenvalues ---    0.22877   0.23796   0.35777   0.42448   0.42469
     Eigenvalues ---    0.42547   0.44077   1.05567
 RFO step:  Lambda=-3.19990101D-02 EMin= 1.16758683D-02
 Quartic linear search produced a step of  1.47324.
 Iteration  1 RMS(Cart)=  0.08410896 RMS(Int)=  0.08547988
 Iteration  2 RMS(Cart)=  0.03895248 RMS(Int)=  0.04462936
 Iteration  3 RMS(Cart)=  0.03766922 RMS(Int)=  0.00380623
 Iteration  4 RMS(Cart)=  0.00350919 RMS(Int)=  0.00000439
 Iteration  5 RMS(Cart)=  0.00000029 RMS(Int)=  0.00000438
 ITry= 1 IFail=0 DXMaxC= 3.24D-01 DCOld= 1.00D+10 DXMaxT= 5.05D-01 DXLimC= 3.00D+00 Rises=F
 Variable       Old X    -DE/DX   Delta X   Delta X   Delta X     New X
                                 (Linear)    (Quad)   (Total)
    R1        2.46775   0.06417   0.16620  -0.07583   0.09037   2.55812
    R2        2.00083   0.02057   0.07427  -0.01685   0.05742   2.05825
    R3        1.99974   0.02153   0.07242  -0.00862   0.06380   2.06354
    R4        2.76815  -0.00530  -0.01335  -0.00937  -0.02272   2.74544
    R5        1.99496   0.02037   0.06604  -0.00405   0.06199   2.05696
    R6        2.65489  -0.11955  -0.31378  -0.28273  -0.59652   2.05838
    R7        1.99952   0.02340   0.07451  -0.00258   0.07194   2.07145
    A1        2.10911   0.00393   0.02117   0.00309   0.02426   2.13337
    A2        2.11013   0.00204   0.02349  -0.02577  -0.00228   2.10785
    A3        2.06394  -0.00598  -0.04466   0.02268  -0.02198   2.04196
    A4        2.03647   0.02173   0.12063  -0.03129   0.08934   2.12581
    A5        2.15025  -0.00445  -0.02109   0.01039  -0.01071   2.13954
    A6        2.09647  -0.01728  -0.09954   0.02090  -0.07863   2.01783
    A7        1.97233   0.03294   0.11435   0.08837   0.20272   2.17505
    A8        2.16996  -0.01419  -0.03608  -0.06170  -0.09777   2.07218
    A9        2.14090  -0.01875  -0.07828  -0.02667  -0.10495   2.03595
    D1       -3.14089  -0.00003  -0.00025  -0.00010  -0.00036  -3.14125
    D2       -0.00027   0.00000  -0.00002   0.00005   0.00004  -0.00023
    D3        0.00033  -0.00001  -0.00005  -0.00005  -0.00010   0.00023
    D4        3.14095   0.00002   0.00019   0.00010   0.00030   3.14125
    D5        3.14155  -0.00002  -0.00021  -0.00013  -0.00035   3.14120
    D6       -0.00103   0.00005   0.00045   0.00026   0.00070  -0.00033
    D7        0.00089  -0.00005  -0.00049  -0.00027  -0.00075   0.00014
    D8        3.14150   0.00002   0.00017   0.00012   0.00030  -3.14139
         Item               Value     Threshold  Converged?
 Maximum Force            0.119547     0.000450     NO 
 RMS     Force            0.030803     0.000300     NO 
 Maximum Displacement     0.324346     0.001800     NO 
 RMS     Displacement     0.110509     0.001200     NO 
 Predicted change in Energy=-5.435389D-02
 Lowest energy point so far.  Saving SCF results.
 GradGradGradGradGradGradGradGradGradGradGradGradGradGradGradGradGradGrad

 Leave Link  103 at Tue May 11 16:35:32 2021, MaxMem=  2147483648 cpu:         0.0
 (Enter /opt/cluster/programs/g09_d.01/g09/l202.exe)
                          Input orientation:                          
 ---------------------------------------------------------------------
 Center     Atomic      Atomic             Coordinates (Angstroms)
 Number     Number       Type             X           Y           Z
 ---------------------------------------------------------------------
      1          6           0        3.416460   -0.050302   -0.899843
      2          6           0        2.074265   -0.040688   -1.075677
      3          6           0        1.154788   -0.038680    0.049156
      4          8           0        0.069144   -0.030751   -0.038998
      5          1           0        1.565547   -0.045478    1.065430
      6          1           0        4.112147   -0.051556   -1.737895
      7          1           0        3.848487   -0.057089    0.103014
      8          1           0        1.612162   -0.033456   -2.061186
 ---------------------------------------------------------------------
                    Distance matrix (angstroms):
                    1          2          3          4          5
     1  C    0.000000
     2  C    1.353698   0.000000
     3  C    2.452732   1.452822   0.000000
     4  O    3.456293   2.257280   1.089246   0.000000
     5  H    2.699667   2.200717   1.096167   1.859893   0.000000
     6  H    1.089180   2.142806   3.455386   4.385495   3.787326
     7  H    1.091978   2.130128   2.694301   3.782103   2.477538
     8  H    2.145808   1.088494   2.159344   2.543651   3.126987
                    6          7          8
     6  H    0.000000
     7  H    1.859702   0.000000
     8  H    2.520867   3.112149   0.000000
 Stoichiometry    C3H4O
 Framework group  C1[X(C3H4O)]
 Deg. of freedom    18
 Full point group                 C1      NOp   1
 RotChk:  IX=0 Diff= 5.65D-02
 Largest Abelian subgroup         C1      NOp   1
 Largest concise Abelian subgroup C1      NOp   1
                         Standard orientation:                         
 ---------------------------------------------------------------------
 Center     Atomic      Atomic             Coordinates (Angstroms)
 Number     Number       Type             X           Y           Z
 ---------------------------------------------------------------------
      1          6           0       -1.741177    0.154411    0.000053
      2          6           0       -0.527765   -0.445696   -0.000175
      3          6           0        0.705843    0.321704   -0.000075
      4          8           0        1.704792   -0.112529    0.000103
      5          1           0        0.645467    1.416207   -0.000123
      6          1           0       -2.670335   -0.413902    0.000292
      7          1           0       -1.826015    1.243088    0.000108
      8          1           0       -0.408858   -1.527676    0.000077
 ---------------------------------------------------------------------
 Rotational constants (GHZ):     49.5100507      4.9062824      4.4639225
 Leave Link  202 at Tue May 11 16:35:32 2021, MaxMem=  2147483648 cpu:         0.0
 (Enter /opt/cluster/programs/g09_d.01/g09/l301.exe)
 Standard basis: 6-31+G (6D, 7F)
 Ernie: Thresh=  0.10000D-02 Tol=  0.10000D-05 Strict=F.
 There are    60 symmetry adapted cartesian basis functions of A   symmetry.
 There are    60 symmetry adapted basis functions of A   symmetry.
    60 basis functions,   120 primitive gaussians,    60 cartesian basis functions
    15 alpha electrons       15 beta electrons
       nuclear repulsion energy       106.3604309143 Hartrees.
 IExCor=  402 DFT=T Ex+Corr=B3LYP ExCW=0 ScaHFX=  0.200000
 ScaDFX=  0.800000  0.720000  1.000000  0.810000 ScalE2=  1.000000  1.000000
 IRadAn=      0 IRanWt=     -1 IRanGd=            0 ICorTp=0 IEmpDi=  4
 NAtoms=    8 NActive=    8 NUniq=    8 SFac= 1.00D+00 NAtFMM=   60 NAOKFM=F Big=F
 Integral buffers will be    131072 words long.
 Raffenetti 2 integral format.
 Two-electron integral symmetry is turned on.
 Leave Link  301 at Tue May 11 16:35:32 2021, MaxMem=  2147483648 cpu:         0.3
 (Enter /opt/cluster/programs/g09_d.01/g09/l302.exe)
 NPDir=0 NMtPBC=     1 NCelOv=     1 NCel=       1 NClECP=     1 NCelD=      1
         NCelK=      1 NCelE2=     1 NClLst=     1 CellRange=     0.0.
 One-electron integrals computed using PRISM.
 NBasis=    60 RedAO= T EigKep=  1.21D-04  NBF=    60
 NBsUse=    60 1.00D-06 EigRej= -1.00D+00 NBFU=    60
 Precomputing XC quadrature grid using
 IXCGrd= 4 IRadAn=           0 IRanWt=          -1 IRanGd=           0 AccXCQ= 0.00D+00.
 Generated NRdTot=       0 NPtTot=           0 NUsed=           0 NTot=          32
 NSgBfM=    60    60    60    60    60 MxSgAt=     8 MxSgA2=     8.
 Leave Link  302 at Tue May 11 16:35:32 2021, MaxMem=  2147483648 cpu:         0.8
 (Enter /opt/cluster/programs/g09_d.01/g09/l303.exe)
 DipDrv:  MaxL=1.
 Leave Link  303 at Tue May 11 16:35:32 2021, MaxMem=  2147483648 cpu:         0.2
 (Enter /opt/cluster/programs/g09_d.01/g09/l401.exe)
 Initial guess from the checkpoint file:  "/home/unibas/boittier/RDKit_G2/L.pdb/OPT_B3LYP_6-31+G/L.pdb.chk"
 B after Tr=     0.000000    0.000000    0.000000
         Rot=    0.999949    0.000007    0.000002    0.010081 Ang=   1.16 deg.
 Guess basis will be translated and rotated to current coordinates.
 JPrj=2 DoOrth=T DoCkMO=T.
 Generating alternative initial guess.
 ExpMin= 4.38D-02 ExpMax= 5.48D+03 ExpMxC= 8.25D+02 IAcc=2 IRadAn=         4 AccDes= 0.00D+00
 Harris functional with IExCor=  402 and IRadAn=       4 diagonalized for initial guess.
 HarFok:  IExCor=  402 AccDes= 0.00D+00 IRadAn=         4 IDoV= 1 UseB2=F ITyADJ=14
 ICtDFT=  3500011 ScaDFX=  1.000000  1.000000  1.000000  1.000000
 FoFCou: FMM=F IPFlag=           0 FMFlag=      100000 FMFlg1=           0
         NFxFlg=           0 DoJE=T BraDBF=F KetDBF=T FulRan=T
         wScrn=  0.000000 ICntrl=     500 IOpCl=  0 I1Cent=   200000004 NGrid=           0
         NMat0=    1 NMatS0=      1 NMatT0=    0 NMatD0=    1 NMtDS0=    0 NMtDT0=    0
 Petite list used in FoFCou.
 Harris En= -191.843753271269    
 Leave Link  401 at Tue May 11 16:35:33 2021, MaxMem=  2147483648 cpu:         1.3
 (Enter /opt/cluster/programs/g09_d.01/g09/l502.exe)
 Closed shell SCF:
 Using DIIS extrapolation, IDIIS=  1040.
 Integral symmetry usage will be decided dynamically.
 Keep R1 ints in memory in canonical form, NReq=2587125.
 IVT=       30290 IEndB=       30290 NGot=  2147483648 MDV=  2145777994
 LenX=  2145777994 LenY=  2145773953
 Requested convergence on RMS density matrix=1.00D-08 within 128 cycles.
 Requested convergence on MAX density matrix=1.00D-06.
 Requested convergence on             energy=1.00D-06.
 No special actions if energy rises.
 FoFCou: FMM=F IPFlag=           0 FMFlag=           0 FMFlg1=           0
         NFxFlg=           0 DoJE=F BraDBF=F KetDBF=F FulRan=T
         wScrn=  0.000000 ICntrl=     600 IOpCl=  0 I1Cent=           0 NGrid=           0
         NMat0=    1 NMatS0=   1830 NMatT0=    0 NMatD0=    1 NMtDS0=    0 NMtDT0=    0
 Symmetry not used in FoFCou.

 Cycle   1  Pass 1  IDiag  1:
 E= -191.745080949852    
 DIIS: error= 2.56D-02 at cycle   1 NSaved=   1.
 NSaved= 1 IEnMin= 1 EnMin= -191.745080949852     IErMin= 1 ErrMin= 2.56D-02
 ErrMax= 2.56D-02  0.00D+00 EMaxC= 1.00D-01 BMatC= 5.89D-02 BMatP= 5.89D-02
 IDIUse=3 WtCom= 7.44D-01 WtEn= 2.56D-01
 Coeff-Com:  0.100D+01
 Coeff-En:   0.100D+01
 Coeff:      0.100D+01
 Recover alternate guess density for next cycle.
 RMSDP=1.24D-02 MaxDP=1.21D-01              OVMax= 0.00D+00

 Cycle   2  Pass 1  IDiag  1:
 E= -191.715428808332     Delta-E=        0.029652141520 Rises=F Damp=F
 Switch densities from cycles 1 and 2 for lowest energy.
 DIIS: error= 3.32D-02 at cycle   2 NSaved=   2.
 NSaved= 2 IEnMin= 1 EnMin= -191.745080949852     IErMin= 1 ErrMin= 2.56D-02
 ErrMax= 3.32D-02  0.00D+00 EMaxC= 1.00D+00 BMatC= 1.10D-01 BMatP= 5.89D-02
 IDIUse=1 WtCom= 1.00D+00 WtEn= 0.00D+00
 Coeff-Com:  0.630D+00 0.370D+00
 Coeff:      0.630D+00 0.370D+00
 Gap=     0.197 Goal=   None    Shift=    0.000
 RMSDP=1.87D-02 MaxDP=4.08D-01 DE= 2.97D-02 OVMax= 1.22D-01

 Cycle   3  Pass 1  IDiag  1:
 E= -191.802925803478     Delta-E=       -0.087496995147 Rises=F Damp=F
 DIIS: error= 1.66D-02 at cycle   3 NSaved=   3.
 NSaved= 3 IEnMin= 3 EnMin= -191.802925803478     IErMin= 3 ErrMin= 1.66D-02
 ErrMax= 1.66D-02  0.00D+00 EMaxC= 1.00D+00 BMatC= 2.14D-02 BMatP= 5.89D-02
 IDIUse=1 WtCom= 1.00D+00 WtEn= 0.00D+00
 Coeff-Com:  0.673D-01 0.283D+00 0.650D+00
 Coeff:      0.673D-01 0.283D+00 0.650D+00
 Gap=     0.198 Goal=   None    Shift=    0.000
 RMSDP=6.83D-03 MaxDP=1.58D-01 DE=-8.75D-02 OVMax= 5.60D-02

 Cycle   4  Pass 1  IDiag  1:
 E= -191.820901895005     Delta-E=       -0.017976091527 Rises=F Damp=F
 DIIS: error= 4.82D-03 at cycle   4 NSaved=   4.
 NSaved= 4 IEnMin= 4 EnMin= -191.820901895005     IErMin= 4 ErrMin= 4.82D-03
 ErrMax= 4.82D-03  0.00D+00 EMaxC= 1.00D+00 BMatC= 1.21D-03 BMatP= 2.14D-02
 IDIUse=1 WtCom= 1.00D+00 WtEn= 0.00D+00
 Coeff-Com:  0.262D-02 0.110D+00 0.309D+00 0.578D+00
 Coeff:      0.262D-02 0.110D+00 0.309D+00 0.578D+00
 Gap=     0.196 Goal=   None    Shift=    0.000
 RMSDP=1.08D-03 MaxDP=1.84D-02 DE=-1.80D-02 OVMax= 1.62D-02

 Cycle   5  Pass 1  IDiag  1:
 E= -191.821944009184     Delta-E=       -0.001042114179 Rises=F Damp=F
 DIIS: error= 1.71D-03 at cycle   5 NSaved=   5.
 NSaved= 5 IEnMin= 5 EnMin= -191.821944009184     IErMin= 5 ErrMin= 1.71D-03
 ErrMax= 1.71D-03  0.00D+00 EMaxC= 1.00D+00 BMatC= 1.21D-04 BMatP= 1.21D-03
 IDIUse=1 WtCom= 1.00D+00 WtEn= 0.00D+00
 Coeff-Com: -0.485D-02 0.315D-01 0.953D-01 0.291D+00 0.587D+00
 Coeff:     -0.485D-02 0.315D-01 0.953D-01 0.291D+00 0.587D+00
 Gap=     0.198 Goal=   None    Shift=    0.000
 RMSDP=3.56D-04 MaxDP=3.94D-03 DE=-1.04D-03 OVMax= 5.34D-03

 Cycle   6  Pass 1  IDiag  1:
 E= -191.822047292888     Delta-E=       -0.000103283704 Rises=F Damp=F
 DIIS: error= 5.75D-04 at cycle   6 NSaved=   6.
 NSaved= 6 IEnMin= 6 EnMin= -191.822047292888     IErMin= 6 ErrMin= 5.75D-04
 ErrMax= 5.75D-04  0.00D+00 EMaxC= 1.00D+00 BMatC= 1.74D-05 BMatP= 1.21D-04
 IDIUse=1 WtCom= 1.00D+00 WtEn= 0.00D+00
 Coeff-Com: -0.108D-02 0.322D-02 0.161D-01 0.951D-01 0.324D+00 0.563D+00
 Coeff:     -0.108D-02 0.322D-02 0.161D-01 0.951D-01 0.324D+00 0.563D+00
 Gap=     0.197 Goal=   None    Shift=    0.000
 RMSDP=1.14D-04 MaxDP=2.08D-03 DE=-1.03D-04 OVMax= 1.99D-03

 Cycle   7  Pass 1  IDiag  1:
 E= -191.822063816202     Delta-E=       -0.000016523314 Rises=F Damp=F
 DIIS: error= 1.42D-04 at cycle   7 NSaved=   7.
 NSaved= 7 IEnMin= 7 EnMin= -191.822063816202     IErMin= 7 ErrMin= 1.42D-04
 ErrMax= 1.42D-04  0.00D+00 EMaxC= 1.00D+00 BMatC= 6.72D-07 BMatP= 1.74D-05
 IDIUse=1 WtCom= 1.00D+00 WtEn= 0.00D+00
 Coeff-Com: -0.155D-03 0.249D-03 0.419D-02 0.379D-01 0.146D+00 0.291D+00
 Coeff-Com:  0.521D+00
 Coeff:     -0.155D-03 0.249D-03 0.419D-02 0.379D-01 0.146D+00 0.291D+00
 Coeff:      0.521D+00
 Gap=     0.197 Goal=   None    Shift=    0.000
 RMSDP=3.70D-05 MaxDP=8.05D-04 DE=-1.65D-05 OVMax= 7.15D-04

 Cycle   8  Pass 1  IDiag  1:
 E= -191.822064389417     Delta-E=       -0.000000573215 Rises=F Damp=F
 DIIS: error= 7.99D-05 at cycle   8 NSaved=   8.
 NSaved= 8 IEnMin= 8 EnMin= -191.822064389417     IErMin= 8 ErrMin= 7.99D-05
 ErrMax= 7.99D-05  0.00D+00 EMaxC= 1.00D+00 BMatC= 1.41D-07 BMatP= 6.72D-07
 IDIUse=1 WtCom= 1.00D+00 WtEn= 0.00D+00
 Coeff-Com: -0.356D-04-0.265D-03-0.715D-03 0.325D-02 0.191D-01 0.537D-01
 Coeff-Com:  0.323D+00 0.602D+00
 Coeff:     -0.356D-04-0.265D-03-0.715D-03 0.325D-02 0.191D-01 0.537D-01
 Coeff:      0.323D+00 0.602D+00
 Gap=     0.197 Goal=   None    Shift=    0.000
 RMSDP=2.23D-05 MaxDP=5.24D-04 DE=-5.73D-07 OVMax= 2.42D-04

 Cycle   9  Pass 1  IDiag  1:
 E= -191.822064548400     Delta-E=       -0.000000158983 Rises=F Damp=F
 DIIS: error= 2.62D-06 at cycle   9 NSaved=   9.
 NSaved= 9 IEnMin= 9 EnMin= -191.822064548400     IErMin= 9 ErrMin= 2.62D-06
 ErrMax= 2.62D-06  0.00D+00 EMaxC= 1.00D+00 BMatC= 2.19D-10 BMatP= 1.41D-07
 IDIUse=1 WtCom= 1.00D+00 WtEn= 0.00D+00
 Coeff-Com: -0.317D-05-0.340D-04-0.147D-03-0.217D-03 0.167D-03 0.205D-02
 Coeff-Com:  0.277D-01 0.843D-01 0.886D+00
 Coeff:     -0.317D-05-0.340D-04-0.147D-03-0.217D-03 0.167D-03 0.205D-02
 Coeff:      0.277D-01 0.843D-01 0.886D+00
 Gap=     0.197 Goal=   None    Shift=    0.000
 RMSDP=1.18D-06 MaxDP=2.16D-05 DE=-1.59D-07 OVMax= 1.04D-05

 Cycle  10  Pass 1  IDiag  1:
 E= -191.822064548759     Delta-E=       -0.000000000359 Rises=F Damp=F
 DIIS: error= 3.50D-07 at cycle  10 NSaved=  10.
 NSaved=10 IEnMin=10 EnMin= -191.822064548759     IErMin=10 ErrMin= 3.50D-07
 ErrMax= 3.50D-07  0.00D+00 EMaxC= 1.00D+00 BMatC= 5.15D-12 BMatP= 2.19D-10
 IDIUse=1 WtCom= 1.00D+00 WtEn= 0.00D+00
 Coeff-Com:  0.508D-06 0.261D-05-0.149D-05-0.106D-03-0.464D-03-0.123D-02
 Coeff-Com: -0.490D-02-0.655D-02 0.131D+00 0.883D+00
 Coeff:      0.508D-06 0.261D-05-0.149D-05-0.106D-03-0.464D-03-0.123D-02
 Coeff:     -0.490D-02-0.655D-02 0.131D+00 0.883D+00
 Gap=     0.197 Goal=   None    Shift=    0.000
 RMSDP=2.33D-07 MaxDP=3.87D-06 DE=-3.59D-10 OVMax= 1.25D-06

 Cycle  11  Pass 1  IDiag  1:
 E= -191.822064548767     Delta-E=       -0.000000000008 Rises=F Damp=F
 DIIS: error= 4.55D-08 at cycle  11 NSaved=  11.
 NSaved=11 IEnMin=11 EnMin= -191.822064548767     IErMin=11 ErrMin= 4.55D-08
 ErrMax= 4.55D-08  0.00D+00 EMaxC= 1.00D+00 BMatC= 9.37D-14 BMatP= 5.15D-12
 IDIUse=1 WtCom= 1.00D+00 WtEn= 0.00D+00
 Coeff-Com:  0.198D-06 0.559D-06 0.124D-05-0.115D-04-0.712D-04-0.185D-03
 Coeff-Com: -0.923D-03-0.226D-02 0.717D-02 0.113D+00 0.884D+00
 Coeff:      0.198D-06 0.559D-06 0.124D-05-0.115D-04-0.712D-04-0.185D-03
 Coeff:     -0.923D-03-0.226D-02 0.717D-02 0.113D+00 0.884D+00
 Gap=     0.197 Goal=   None    Shift=    0.000
 RMSDP=4.19D-08 MaxDP=1.12D-06 DE=-7.50D-12 OVMax= 1.32D-07

 Cycle  12  Pass 1  IDiag  1:
 E= -191.822064548768     Delta-E=       -0.000000000001 Rises=F Damp=F
 DIIS: error= 3.95D-09 at cycle  12 NSaved=  12.
 NSaved=12 IEnMin=12 EnMin= -191.822064548768     IErMin=12 ErrMin= 3.95D-09
 ErrMax= 3.95D-09  0.00D+00 EMaxC= 1.00D+00 BMatC= 1.15D-15 BMatP= 9.37D-14
 IDIUse=1 WtCom= 1.00D+00 WtEn= 0.00D+00
 Coeff-Com:  0.117D-07-0.262D-07 0.770D-07 0.809D-06 0.120D-05 0.671D-05
 Coeff-Com:  0.238D-04-0.877D-04-0.143D-02-0.706D-02 0.620D-01 0.947D+00
 Coeff:      0.117D-07-0.262D-07 0.770D-07 0.809D-06 0.120D-05 0.671D-05
 Coeff:      0.238D-04-0.877D-04-0.143D-02-0.706D-02 0.620D-01 0.947D+00
 Gap=     0.197 Goal=   None    Shift=    0.000
 RMSDP=5.98D-09 MaxDP=1.56D-07 DE=-9.09D-13 OVMax= 2.17D-08

 SCF Done:  E(RB3LYP) =  -191.822064549     A.U. after   12 cycles
            NFock= 12  Conv=0.60D-08     -V/T= 2.0019
 KE= 1.914528909629D+02 PE=-6.604903254586D+02 EE= 1.708549390327D+02
 Leave Link  502 at Tue May 11 16:35:34 2021, MaxMem=  2147483648 cpu:        11.0
 (Enter /opt/cluster/programs/g09_d.01/g09/l701.exe)
 Compute integral first derivatives.
 ... and contract with generalized density number  0.
 Leave Link  701 at Tue May 11 16:35:34 2021, MaxMem=  2147483648 cpu:         0.6
 (Enter /opt/cluster/programs/g09_d.01/g09/l702.exe)
 L702 exits ... SP integral derivatives will be done elsewhere.
 Leave Link  702 at Tue May 11 16:35:34 2021, MaxMem=  2147483648 cpu:         0.2
 (Enter /opt/cluster/programs/g09_d.01/g09/l703.exe)
 Compute integral first derivatives, UseDBF=F ICtDFT=           0.
 Integral derivatives from FoFJK, PRISM(SPDF).
 Calling FoFJK, ICntrl=      2127 FMM=F ISym2X=0 I1Cent= 0 IOpClX= 0 NMat=1 NMatS=1 NMatT=0.
 FoFJK:  IHMeth= 1 ICntrl=    2127 DoSepK=F KAlg= 0 I1Cent=   0 FoldK=F
 IRaf=         0 NMat=   1 IRICut=       1 DoRegI=T DoRafI=F ISym2E= 0.
 FoFCou: FMM=F IPFlag=           0 FMFlag=      100000 FMFlg1=         800
         NFxFlg=           0 DoJE=F BraDBF=F KetDBF=F FulRan=T
         wScrn=  0.000000 ICntrl=    2127 IOpCl=  0 I1Cent=           0 NGrid=           0
         NMat0=    1 NMatS0=      1 NMatT0=    0 NMatD0=    1 NMtDS0=    0 NMtDT0=    0
 Symmetry not used in FoFCou.
 Leave Link  703 at Tue May 11 16:35:34 2021, MaxMem=  2147483648 cpu:         1.8
 (Enter /opt/cluster/programs/g09_d.01/g09/l716.exe)
 Dipole        =-1.13862592D+00 2.29444032D-01 6.55825496D-05
 ***** Axes restored to original set *****
 -------------------------------------------------------------------
 Center     Atomic                   Forces (Hartrees/Bohr)
 Number     Number              X              Y              Z
 -------------------------------------------------------------------
      1        6          -0.009552985    0.000075915   -0.003200989
      2        6           0.033827713   -0.000153993   -0.011519311
      3        6           0.315343725   -0.002376221    0.042262302
      4        8          -0.364143161    0.002688307   -0.037332643
      5        1           0.025106170   -0.000215642    0.010181257
      6        1          -0.001285303   -0.000005165    0.002567536
      7        1          -0.000695103    0.000008871   -0.002317067
      8        1           0.001398944   -0.000022074   -0.000641086
 -------------------------------------------------------------------
 Cartesian Forces:  Max     0.364143161 RMS     0.099449242
 Leave Link  716 at Tue May 11 16:35:34 2021, MaxMem=  2147483648 cpu:         0.2
 (Enter /opt/cluster/programs/g09_d.01/g09/l103.exe)

 GradGradGradGradGradGradGradGradGradGradGradGradGradGradGradGradGradGrad
 Berny optimization.
 Using GEDIIS/GDIIS optimizer.
 FormGI is forming the generalized inverse of G from B-inverse, IUseBI=4.
 Internal  Forces:  Max     0.365979896 RMS     0.075275618
 Search for a local minimum.
 Step number   3 out of a maximum of   34
 All quantities printed in internal units (Hartrees-Bohrs-Radians)
 RMS Force = .75276D-01 SwitMx=.10000D-02 MixMth= 1
 Mixed Optimization -- RFO/linear search
 Update second derivatives using D2CorX and points    1    3    2
 DE=  1.36D-02 DEPred=-5.44D-02 R=-2.50D-01
 Trust test=-2.50D-01 RLast= 6.77D-01 DXMaxT set to 2.52D-01
 ITU= -1  1  0
 Use linear search instead of GDIIS.
 Energy rises -- skip Quadratic/GDIIS search.
 Quartic linear search produced a step of -0.46644.
 Iteration  1 RMS(Cart)=  0.04071042 RMS(Int)=  0.01538360
 Iteration  2 RMS(Cart)=  0.01390094 RMS(Int)=  0.00003038
 Iteration  3 RMS(Cart)=  0.00004195 RMS(Int)=  0.00000061
 Iteration  4 RMS(Cart)=  0.00000000 RMS(Int)=  0.00000061
 ITry= 1 IFail=0 DXMaxC= 1.59D-01 DCOld= 1.00D+10 DXMaxT= 2.52D-01 DXLimC= 3.00D+00 Rises=T
 Variable       Old X    -DE/DX   Delta X   Delta X   Delta X     New X
                                 (Linear)    (Quad)   (Total)
    R1        2.55812  -0.01182  -0.04215   0.00000  -0.04215   2.51597
    R2        2.05825  -0.00280  -0.02678   0.00000  -0.02678   2.03147
    R3        2.06354  -0.00240  -0.02976   0.00000  -0.02976   2.03378
    R4        2.74544   0.02669   0.01060   0.00000   0.01060   2.75603
    R5        2.05696  -0.00001  -0.02892   0.00000  -0.02892   2.02804
    R6        2.05838   0.36598   0.27824   0.00000   0.27824   2.33661
    R7        2.07145   0.01885  -0.03355   0.00000  -0.03355   2.03790
    A1        2.13337   0.00070  -0.01131   0.00000  -0.01131   2.12205
    A2        2.10785  -0.00006   0.00106   0.00000   0.00106   2.10892
    A3        2.04196  -0.00064   0.01025   0.00000   0.01025   2.05221
    A4        2.12581   0.00087  -0.04167   0.00000  -0.04167   2.08414
    A5        2.13954  -0.00202   0.00499   0.00000   0.00499   2.14454
    A6        2.01783   0.00115   0.03668   0.00000   0.03668   2.05451
    A7        2.17505   0.00282  -0.09456   0.00000  -0.09456   2.08049
    A8        2.07218  -0.02157   0.04561   0.00000   0.04561   2.11779
    A9        2.03595   0.01875   0.04895   0.00000   0.04895   2.08490
    D1       -3.14125  -0.00001   0.00017   0.00000   0.00017  -3.14109
    D2       -0.00023   0.00000  -0.00002   0.00000  -0.00002  -0.00025
    D3        0.00023   0.00000   0.00005   0.00000   0.00005   0.00028
    D4        3.14125   0.00001  -0.00014   0.00000  -0.00014   3.14111
    D5        3.14120   0.00001   0.00016   0.00000   0.00016   3.14136
    D6       -0.00033   0.00000  -0.00033   0.00000  -0.00033  -0.00065
    D7        0.00014   0.00000   0.00035   0.00000   0.00035   0.00049
    D8       -3.14139  -0.00001  -0.00014   0.00000  -0.00014  -3.14153
         Item               Value     Threshold  Converged?
 Maximum Force            0.365980     0.000450     NO 
 RMS     Force            0.075276     0.000300     NO 
 Maximum Displacement     0.159384     0.001800     NO 
 RMS     Displacement     0.050993     0.001200     NO 
 Predicted change in Energy=-5.398602D-02
 GradGradGradGradGradGradGradGradGradGradGradGradGradGradGradGradGradGrad

 Leave Link  103 at Tue May 11 16:35:34 2021, MaxMem=  2147483648 cpu:         0.0
 (Enter /opt/cluster/programs/g09_d.01/g09/l202.exe)
                          Input orientation:                          
 ---------------------------------------------------------------------
 Center     Atomic      Atomic             Coordinates (Angstroms)
 Number     Number       Type             X           Y           Z
 ---------------------------------------------------------------------
      1          6           0        3.408987   -0.050285   -0.901335
      2          6           0        2.089666   -0.040818   -1.079964
      3          6           0        1.209458   -0.039065    0.082896
      4          8           0       -0.015199   -0.030013   -0.087466
      5          1           0        1.605303   -0.045887    1.086006
      6          1           0        4.089815   -0.051416   -1.733268
      7          1           0        3.831570   -0.056890    0.088440
      8          1           0        1.633400   -0.033626   -2.051309
 ---------------------------------------------------------------------
                    Distance matrix (angstroms):
                    1          2          3          4          5
     1  C    0.000000
     2  C    1.331392   0.000000
     3  C    2.409723   1.458429   0.000000
     4  O    3.519637   2.327150   1.236483   0.000000
     5  H    2.683807   2.219474   1.078411   2.000828   0.000000
     6  H    1.075007   2.104165   3.405152   4.422698   3.757810
     7  H    1.076231   2.097535   2.622178   3.850882   2.439575
[...]
     11 -0.951998D-04  0.402896D-02 -0.586024D-01  0.606528D-03 -0.492010D-02
     12  0.181219D-01 -0.563405D-01  0.570283D-03 -0.106282D+00  0.541510D-01
     13  0.198765D-01 -0.809420D-01  0.446198D-03 -0.736391D-01 -0.364978D-01
     14  0.176688D-04  0.418269D-03 -0.581595D-01  0.128573D-02  0.430346D-03
     15 -0.223672D-01 -0.664000D-01  0.123472D-02 -0.256356D+00 -0.155633D-01
     16  0.286511D-01 -0.262543D-02  0.130559D-03 -0.450640D-02 -0.171814D-02
     17 -0.187864D-03  0.116435D-03  0.139849D-01  0.874502D-04 -0.693899D-05
     18  0.815674D-02 -0.956755D-03  0.632898D-04 -0.456177D-03 -0.484720D-03
     19 -0.337408D-01  0.501025D-03 -0.538964D-04 -0.335501D-02  0.115131D-02
     20  0.262027D-03 -0.819015D-04 -0.937483D-02 -0.170957D-04  0.648775D-05
     21 -0.131170D-02  0.380326D-02 -0.656514D-04  0.763145D-03 -0.104901D-02
     22 -0.104223D+00  0.889479D-02 -0.121468D-03  0.228503D-01  0.191066D-02
     23  0.169352D-02  0.297646D-04  0.422746D-02 -0.506220D-04 -0.301025D-04
     24 -0.294175D+00 -0.156989D-01  0.211483D-03 -0.224443D-01  0.115250D-02
               11            12            13            14            15 
     11  0.216711D-01
     12 -0.602038D-03  0.812442D-01
     13  0.524412D-03 -0.392645D-01  0.110518D+00
     14  0.179313D-01  0.309985D-03 -0.953229D-03  0.231050D-01
     15  0.149604D-03  0.683086D-02  0.908619D-01 -0.160377D-02  0.272644D+00
     16 -0.150709D-04  0.154260D-02  0.256736D-03 -0.103780D-04  0.437357D-03
     17 -0.304021D-02 -0.243732D-04 -0.762650D-05 -0.101390D-02 -0.927486D-05
     18 -0.105949D-04  0.489087D-03 -0.258116D-03 -0.454091D-05  0.581347D-03
     19 -0.169922D-05  0.105196D-02  0.117378D-03 -0.311786D-05  0.153894D-02
     20  0.150757D-02  0.000000D+00  0.653370D-05  0.555841D-03 -0.105888D-04
     21  0.138229D-04 -0.204945D-03 -0.904662D-03  0.596587D-05  0.600099D-03
     22 -0.131656D-04 -0.318952D-02 -0.209204D-02  0.214102D-04  0.266322D-02
     23 -0.187187D-02 -0.345418D-05  0.216221D-04  0.260133D-02  0.150460D-05
     24 -0.329253D-04  0.452598D-02  0.261694D-02  0.171437D-05 -0.237367D-02
               16            17            18            19            20 
     16  0.182754D+00
     17 -0.471829D-03  0.246316D-01
     18 -0.153370D+00  0.196270D-03  0.239930D+00
     19  0.926374D-02 -0.101507D-03  0.183101D-01  0.106460D+00
     20  0.153940D-04  0.490090D-02 -0.435422D-04 -0.993413D-03  0.251996D-01
     21 -0.114714D-01  0.158766D-03 -0.156919D-01  0.112364D+00 -0.188140D-02
     22  0.118588D-02 -0.593082D-04  0.382581D-03 -0.423458D-02  0.104155D-03
     23 -0.562790D-04 -0.731817D-02 -0.354552D-04  0.101429D-03  0.111227D-01
     24 -0.379171D-03 -0.302238D-04  0.104583D-02  0.747964D-03  0.344196D-04
               21            22            23            24 
     21  0.309875D+00
     22  0.542409D-04  0.109269D+00
     23  0.392111D-04 -0.998001D-03  0.278795D-01
     24  0.104898D-02  0.113309D+00 -0.187955D-02  0.310540D+00
 FormGI is forming the generalized inverse of G from B-inverse, IUseBI=4.
 Force constants in internal coordinates: 
                1             2             3             4             5 
      1  0.610954D+00
      2  0.324066D-02  0.367355D+00
      3  0.612498D-02  0.103449D-02  0.359749D+00
      4  0.245827D-01 -0.795567D-03 -0.938512D-03  0.326260D+00
      5  0.360506D-02  0.758932D-03 -0.461582D-03  0.260168D-02  0.361457D+00
      6 -0.111387D-01  0.668318D-03  0.481361D-03  0.538569D-01  0.207986D-02
      7  0.252666D-02  0.665865D-05  0.717212D-03  0.580302D-02  0.315140D-03
      8  0.125606D-01  0.577692D-02 -0.139650D-01  0.298508D-02 -0.206943D-02
      9  0.106193D-01 -0.125005D-01  0.808972D-02 -0.299565D-02  0.245075D-02
     10 -0.231799D-01  0.672360D-02  0.587530D-02  0.105709D-04 -0.381316D-03
     11  0.174056D-01  0.326486D-02 -0.439525D-02  0.193678D-01 -0.134069D-01
     12  0.988513D-02 -0.251301D-02  0.427649D-02 -0.243012D-01  0.509227D-02
     13 -0.272908D-01 -0.751855D-03  0.118764D-03  0.493338D-02  0.831468D-02
     14  0.984091D-02  0.133821D-02 -0.422560D-03  0.145184D-01 -0.537936D-02
     15 -0.646105D-02 -0.108757D-02  0.147387D-02  0.102997D-01  0.458952D-02
     16 -0.337986D-02 -0.250638D-03 -0.105131D-02 -0.248181D-01  0.789840D-03
     17  0.000000D+00  0.000000D+00  0.000000D+00  0.000000D+00  0.000000D+00
     18  0.000000D+00  0.000000D+00  0.000000D+00  0.000000D+00  0.000000D+00
     19  0.000000D+00  0.000000D+00  0.000000D+00  0.000000D+00  0.000000D+00
     20  0.000000D+00  0.000000D+00  0.000000D+00  0.000000D+00  0.000000D+00
     21  0.000000D+00  0.000000D+00  0.000000D+00  0.000000D+00  0.000000D+00
     22  0.000000D+00  0.000000D+00  0.000000D+00  0.000000D+00  0.000000D+00
     23  0.000000D+00  0.000000D+00  0.000000D+00  0.000000D+00  0.000000D+00
     24  0.000000D+00  0.000000D+00  0.000000D+00  0.000000D+00  0.000000D+00
                6             7             8             9            10 
      6  0.720201D+00
      7  0.303584D-01  0.313304D+00
      8  0.311679D-02  0.261834D-04  0.834296D-01
      9 -0.316365D-02  0.127653D-02 -0.466847D-01  0.856815D-01
     10  0.468634D-04 -0.130272D-02 -0.367449D-01 -0.389968D-01  0.757417D-01
     11  0.515733D-02 -0.199091D-02  0.111619D-01 -0.934923D-02 -0.181272D-02
     12 -0.172200D-02 -0.872778D-03 -0.939634D-02  0.104318D-01 -0.103548D-02
     13 -0.343534D-02  0.286369D-02 -0.176561D-02 -0.108259D-02  0.284820D-02
     14  0.241794D-01 -0.149558D-01  0.232129D-02  0.231503D-03 -0.255279D-02
     15 -0.431596D-01  0.115779D-01 -0.827599D-03 -0.201631D-03  0.102923D-02
     16  0.189802D-01  0.337788D-02 -0.149369D-02 -0.298718D-04  0.152356D-02
     17  0.000000D+00  0.000000D+00  0.000000D+00  0.000000D+00  0.000000D+00
     18  0.000000D+00  0.000000D+00  0.000000D+00  0.000000D+00  0.000000D+00
     19  0.000000D+00  0.000000D+00  0.000000D+00  0.000000D+00  0.000000D+00
     20  0.000000D+00  0.000000D+00  0.000000D+00  0.000000D+00  0.000000D+00
     21 -0.121129D-05  0.000000D+00  0.000000D+00  0.000000D+00  0.000000D+00
     22  0.130941D-05  0.000000D+00  0.000000D+00  0.000000D+00  0.000000D+00
     23 -0.133458D-05  0.000000D+00  0.000000D+00  0.000000D+00  0.000000D+00
     24  0.118611D-05  0.000000D+00  0.000000D+00  0.000000D+00  0.000000D+00
               11            12            13            14            15 
     11  0.115633D+00
     12 -0.592730D-01  0.919293D-01
     13 -0.563604D-01 -0.326562D-01  0.890166D-01
     14  0.228724D-01 -0.637237D-03 -0.222351D-01  0.143513D+00
     15 -0.169969D-01 -0.135143D-02  0.183483D-01 -0.636484D-01  0.103967D+00
     16 -0.587546D-02  0.198867D-02  0.388679D-02 -0.798642D-01 -0.403189D-01
     17  0.000000D+00  0.000000D+00  0.000000D+00  0.000000D+00  0.000000D+00
     18  0.000000D+00  0.000000D+00  0.000000D+00  0.000000D+00  0.000000D+00
     19  0.000000D+00  0.000000D+00  0.000000D+00  0.000000D+00  0.000000D+00
     20  0.000000D+00  0.000000D+00  0.000000D+00  0.000000D+00  0.000000D+00
     21  0.000000D+00  0.000000D+00  0.000000D+00 -0.163852D-05 -0.100593D-05
     22  0.000000D+00  0.000000D+00  0.000000D+00  0.154083D-05  0.121512D-05
     23  0.000000D+00  0.000000D+00  0.000000D+00 -0.176417D-05  0.000000D+00
     24  0.000000D+00  0.000000D+00  0.000000D+00  0.141519D-05  0.123122D-05
               16            17            18            19            20 
     16  0.120183D+00
     17  0.000000D+00  0.229054D-01
     18  0.000000D+00  0.152982D-01  0.206986D-01
     19  0.000000D+00 -0.514436D-03 -0.585707D-02  0.214828D-01
     20  0.000000D+00 -0.812156D-02 -0.456668D-03  0.161401D-01  0.238050D-01
     21  0.000000D+00 -0.197353D-03  0.431262D-02 -0.413151D-03  0.409682D-02
     22 -0.101531D-05 -0.460580D-02  0.190941D-02 -0.314525D-02  0.336997D-02
     23  0.100299D-05  0.700426D-02 -0.799906D-03  0.464469D-02 -0.315948D-02
     24  0.000000D+00  0.259581D-02 -0.320311D-02  0.191259D-02 -0.388633D-02
               21            22            23            24 
     21  0.219069D-01
     22 -0.141244D-01  0.235808D-01
     23  0.176373D-01 -0.202923D-01  0.250255D-01
     24 -0.183940D-01  0.174129D-01 -0.129042D-01  0.229027D-01
 Leave Link  716 at Tue May 11 16:36:22 2021, MaxMem=  2147483648 cpu:         0.3
 (Enter /opt/cluster/programs/g09_d.01/g09/l103.exe)

 GradGradGradGradGradGradGradGradGradGradGradGradGradGradGradGradGradGrad
 Berny optimization.
 Red2BG is reusing G-inverse.
 Internal  Forces:  Max     0.000271401 RMS     0.000065023
 Search for a local minimum.
 Step number   1 out of a maximum of    2
 All quantities printed in internal units (Hartrees-Bohrs-Radians)
 Second derivative matrix not updated -- analytic derivatives used.
 ITU=  0
     Eigenvalues ---    0.00752   0.02424   0.03011   0.04584   0.07460
     Eigenvalues ---    0.10880   0.11096   0.11966   0.14240   0.16990
     Eigenvalues ---    0.22436   0.31601   0.32999   0.36139   0.36389
     Eigenvalues ---    0.36847   0.61781   0.73473
 Angle between quadratic step and forces=  38.04 degrees.
 Linear search not attempted -- first point.
 Iteration  1 RMS(Cart)=  0.00024118 RMS(Int)=  0.00000003
 Iteration  2 RMS(Cart)=  0.00000003 RMS(Int)=  0.00000000
 ITry= 1 IFail=0 DXMaxC= 6.59D-04 DCOld= 1.00D+10 DXMaxT= 3.00D-01 DXLimC= 3.00D+00 Rises=F
 Variable       Old X    -DE/DX   Delta X   Delta X   Delta X     New X
                                 (Linear)    (Quad)   (Total)
    R1        2.54255   0.00027   0.00000   0.00048   0.00048   2.54304
    R2        2.05048   0.00001   0.00000   0.00002   0.00002   2.05050
    R3        2.05690  -0.00002   0.00000  -0.00006  -0.00006   2.05684
    R4        2.77401  -0.00009   0.00000  -0.00036  -0.00036   2.77365
    R5        2.05461  -0.00005   0.00000  -0.00013  -0.00013   2.05449
    R6        2.35079  -0.00009   0.00000  -0.00007  -0.00007   2.35073
    R7        2.08889  -0.00006   0.00000  -0.00019  -0.00019   2.08870
    A1        2.13274  -0.00001   0.00000  -0.00021  -0.00021   2.13253
    A2        2.11765   0.00001   0.00000   0.00005   0.00005   2.11770
    A3        2.03280   0.00001   0.00000   0.00016   0.00016   2.03296
    A4        2.11841   0.00002   0.00000   0.00015   0.00015   2.11857
    A5        2.13112  -0.00004   0.00000  -0.00038  -0.00038   2.13074
    A6        2.03365   0.00001   0.00000   0.00023   0.00023   2.03388
    A7        2.16321   0.00000   0.00000  -0.00001  -0.00001   2.16320
    A8        2.02378   0.00003   0.00000   0.00024   0.00024   2.02402
    A9        2.09620  -0.00003   0.00000  -0.00024  -0.00024   2.09596
    D1       -3.14159   0.00000   0.00000  -0.00001  -0.00001  -3.14159
    D2        0.00000   0.00000   0.00000   0.00000   0.00000   0.00000
    D3        0.00000   0.00000   0.00000   0.00000   0.00000   0.00000
    D4       -3.14159   0.00000   0.00000   0.00000   0.00000  -3.14159
    D5       -3.14158   0.00000   0.00000  -0.00002  -0.00002   3.14159
    D6       -0.00004   0.00000   0.00000   0.00004   0.00004   0.00000
    D7        0.00002   0.00000   0.00000  -0.00002  -0.00002   0.00000
    D8        3.14156   0.00000   0.00000   0.00003   0.00003   3.14159
         Item               Value     Threshold  Converged?
 Maximum Force            0.000271     0.000450     YES
 RMS     Force            0.000065     0.000300     YES
 Maximum Displacement     0.000659     0.001800     YES
 RMS     Displacement     0.000241     0.001200     YES
 Predicted change in Energy=-1.148163D-07
 Optimization completed.
    -- Stationary point found.
                           ----------------------------
                           !   Optimized Parameters   !
                           ! (Angstroms and Degrees)  !
 --------------------------                            --------------------------
 ! Name  Definition              Value          Derivative Info.                !
 --------------------------------------------------------------------------------
 ! R1    R(1,2)                  1.3455         -DE/DX =    0.0003              !
 ! R2    R(1,6)                  1.0851         -DE/DX =    0.0                 !
 ! R3    R(1,7)                  1.0885         -DE/DX =    0.0                 !
 ! R4    R(2,3)                  1.4679         -DE/DX =   -0.0001              !
 ! R5    R(2,8)                  1.0873         -DE/DX =    0.0                 !
 ! R6    R(3,4)                  1.244          -DE/DX =   -0.0001              !
 ! R7    R(3,5)                  1.1054         -DE/DX =   -0.0001              !
 ! A1    A(2,1,6)              122.1968         -DE/DX =    0.0                 !
 ! A2    A(2,1,7)              121.3323         -DE/DX =    0.0                 !
 ! A3    A(6,1,7)              116.471          -DE/DX =    0.0                 !
 ! A4    A(1,2,3)              121.3762         -DE/DX =    0.0                 !
 ! A5    A(1,2,8)              122.1042         -DE/DX =    0.0                 !
 ! A6    A(3,2,8)              116.5196         -DE/DX =    0.0                 !
 ! A7    A(2,3,4)              123.9426         -DE/DX =    0.0                 !
 ! A8    A(2,3,5)              115.9539         -DE/DX =    0.0                 !
 ! A9    A(4,3,5)              120.1035         -DE/DX =    0.0                 !
 ! D1    D(6,1,2,3)           -179.9997         -DE/DX =    0.0                 !
 ! D2    D(6,1,2,8)              0.0002         -DE/DX =    0.0                 !
 ! D3    D(7,1,2,3)              0.0002         -DE/DX =    0.0                 !
 ! D4    D(7,1,2,8)           -179.9999         -DE/DX =    0.0                 !
 ! D5    D(1,2,3,4)            180.001          -DE/DX =    0.0                 !
 ! D6    D(1,2,3,5)             -0.0021         -DE/DX =    0.0                 !
 ! D7    D(8,2,3,4)              0.0011         -DE/DX =    0.0                 !
 ! D8    D(8,2,3,5)            179.9981         -DE/DX =    0.0                 !
 --------------------------------------------------------------------------------
 GradGradGradGradGradGradGradGradGradGradGradGradGradGradGradGradGradGrad

 Leave Link  103 at Tue May 11 16:36:22 2021, MaxMem=  2147483648 cpu:         0.0
 (Enter /opt/cluster/programs/g09_d.01/g09/l9999.exe)
 1\1\GINC-NODE09\Freq\RB3LYP\6-31+G\C3H4O1\BOITTIER\11-May-2021\0\\#P G
 eom=AllCheck Guess=TCheck SCRF=Check GenChk RB3LYP/6-31+G Freq\\L.pdb\
 \0,1\C,3.4225796454,-0.0503122488,-0.8992357959\C,2.0889998352,-0.0405
 517783,-1.0773852573\C,1.165482475,-0.0387529295,0.0636548055\O,-0.073
 658273,-0.0299223158,-0.0456819761\H,1.6336716923,-0.0458981888,1.0649
 75001\H,4.1172274101,-0.0517566775,-1.7327992696\H,3.8604576007,-0.057
 2006852,0.0972451744\H,1.6382396143,-0.0336051761,-2.066772682\\Versio
 n=ES64L-G09RevD.01\State=1-A\HF=-191.8687549\RMSD=1.944e-09\RMSF=1.001
 e-04\ZeroPoint=0.0618346\Thermal=0.0661496\Dipole=1.5003657,-0.0096036
 ,-0.1487774\DipoleDeriv=0.1627975,-0.0027518,-0.0515209,-0.0031897,-0.
 2717507,-0.0011572,0.0614573,-0.001923,0.1117615,-0.4330709,0.0010763,
 0.2153227,0.0005796,-0.1505555,-0.001629,0.3412972,-0.0024839,-0.10816
 95,1.3361402,-0.0073589,-0.1036496,-0.0062005,0.1944947,-0.0017533,-0.
 3966357,0.0002406,0.8179862,-1.1554273,0.0049104,0.0897703,0.0050726,-
 0.3818219,-0.0001314,0.044669,0.000176,-0.5034047,-0.0283664,0.0014052
 ,-0.1376875,0.0010622,0.0986288,0.0020806,-0.0497065,0.0014749,-0.1905
 14,0.0231721,0.0006956,0.0562796,0.0006224,0.1581094,0.0002733,0.07457
 09,0.0001479,-0.0087328,0.0653151,0.000837,-0.0197557,0.0010203,0.1770
 926,0.0010997,-0.066371,0.0014163,-0.0687171,0.0294397,0.0011861,-0.04
 87588,0.001033,0.1758026,0.0012174,-0.0092813,0.0009512,-0.0502096\Pol
 ar=63.8270608,-0.2680196,22.4912599,-3.2384706,-0.0258235,34.6433001\P
 G=C01 [X(C3H4O1)]\NImag=0\\0.84638084,-0.00493229,0.12722105,0.0116693
 2,-0.00213716,0.65115757,-0.52455681,0.00341239,-0.05832741,0.82911806
 ,0.00344198,-0.05608829,0.00069008,-0.00514819,0.12518500,-0.06580322,
 0.00074107,-0.13091773,0.09290406,-0.00265765,0.64117385,-0.04783691,0
 .00024800,0.02704553,-0.10951609,0.00002105,0.04737795,0.85158753,0.00
 034067,0.00428033,-0.00021167,-0.00001302,-0.07919643,0.00022642,-0.00
 478057,0.18284051,0.00331486,-0.00005024,0.01134656,0.05590041,0.00016
 714,-0.21868061,0.06116943,-0.00202888,0.59210918,0.01032565,-0.000086
 00,0.00857031,-0.07068902,0.00055479,0.01495779,-0.62006290,0.00405152
 ,-0.06173455,0.71558028,-0.00007033,0.00262703,-0.00002920,0.00046700,
 0.01977746,-0.00009520,0.00402896,-0.05860237,0.00060653,-0.00492010,0
 .02167112,0.00464004,-0.00000264,-0.00472534,0.03740893,-0.00024734,0.
 01812192,-0.05634049,0.00057028,-0.10628172,0.05415098,-0.00060204,0.0
 8124416,0.00211746,-0.00002789,0.00071100,0.00652270,-0.00001002,0.019
 87652,-0.08094201,0.00044620,-0.07363907,-0.03649784,0.00052441,-0.039
 26450,0.11051762,-0.00002304,-0.00157362,-0.00001275,0.00011974,0.0165
 5356,0.00001767,0.00041827,-0.05815952,0.00128573,0.00043035,0.0179312
 7,0.00030999,-0.00095323,0.02310504,-0.00050937,-0.00000452,0.00044055
 ,-0.01302873,0.00024233,-0.02236715,-0.06640000,0.00123472,-0.25635611
 ,-0.01556330,0.00014960,0.00683086,0.09086188,-0.00160377,0.27264407,-
 0.17297710,0.00034298,0.13909567,-0.01614002,0.00006463,0.02865111,-0.
 00262543,0.00013056,-0.00450640,-0.00171814,-0.00001507,0.00154260,0.0
 0025674,-0.00001038,0.00043736,0.18275433,0.00031920,-0.04205953,-0.00
 019075,0.00021158,0.00991445,-0.00018786,0.00011643,0.01398486,0.00008
 745,-0.00000694,-0.00304021,-0.00002437,-0.00000763,-0.00101390,-0.000
 00927,-0.00047183,0.02463159,0.14511394,-0.00023175,-0.23405478,-0.008
 73732,0.00006632,0.00815674,-0.00095675,0.00006329,-0.00045618,-0.0004
 8472,-0.00001059,0.00048909,-0.00025812,-0.00000454,0.00058135,-0.1533
 6973,0.00019627,0.23992988,-0.10258255,0.00079945,-0.09691759,-0.01067
 618,0.00025276,-0.03374078,0.00050102,-0.00005390,-0.00335501,0.001151
 31,-0.00000170,0.00105196,0.00011738,-0.00000312,0.00153894,0.00926374
 ,-0.00010151,0.01831012,0.10645986,0.00081874,-0.04094186,0.00165659,0
 .00012400,0.00703008,0.00026203,-0.00008190,-0.00937483,-0.00001710,0.
 00000649,0.00150757,-0.00000042,0.00000653,0.00055584,-0.00001059,0.00
 001539,0.00490090,-0.00004354,-0.00099341,0.02519957,-0.10179051,0.001
 68965,-0.29507903,-0.00100627,0.00003963,-0.00131170,0.00380326,-0.000
 06565,0.00076314,-0.00104901,0.00001382,-0.00020495,-0.00090466,0.0000
 0597,0.00060010,-0.01147143,0.00015877,-0.01569192,0.11236440,-0.00188
 140,0.30987538,-0.01087059,0.00024336,-0.03184683,-0.10406264,0.000823
 02,-0.10422344,0.00889479,-0.00012147,0.02285034,0.00191066,-0.0000131
 7,-0.00318952,-0.00209204,0.00002141,0.00266322,0.00118588,-0.00005931
 ,0.00038258,-0.00423458,0.00010416,0.00005424,0.10926851,0.00010506,0.
 00653489,0.00023485,0.00082650,-0.04317582,0.00169352,0.00002976,0.004
 22746,-0.00005062,-0.00003010,-0.00187187,-0.00000345,0.00002162,0.002
 60133,0.00000150,-0.00005628,-0.00731817,-0.00003546,0.00010143,0.0111
 2272,0.00003921,-0.00099800,0.02787946,0.00336495,-0.00000440,0.001832
 21,-0.10511368,0.00169949,-0.29417531,-0.01569892,0.00021148,-0.022444
 26,0.00115250,-0.00003293,0.00452598,0.00261694,0.00000171,-0.00237367
 ,-0.00037917,-0.00003022,0.00104583,0.00074796,0.00003442,0.00104898,0
 .11330941,-0.00187955,0.31054024\\-0.00028067,0.00000201,-0.00005080,0
 .00037280,-0.00000441,-0.00001473,-0.00002108,0.00000613,0.00004747,-0
 .00009303,-0.00000129,-0.00002181,0.00005440,-0.00000271,0.00004275,0.
 00000170,0.00000030,0.00001289,0.00000743,-0.00000028,0.00001503,-0.00
 004155,0.00000025,-0.00003080\\\@


 IF OTHER PEOPLE ARE GOING TO TALK, CONVERSATION IS SIMPLY IMPOSSIBLE.

                                               -- WHISTLER'S PRINCIPLE
 Job cpu time:       0 days  0 hours  1 minutes  8.5 seconds.
 File lengths (MBytes):  RWF=      7 Int=      0 D2E=      0 Chk=      2 Scr=      1
 Normal termination of Gaussian 09 at Tue May 11 16:36:22 2021.
