L.pdb                                                                   
Scan      RB3LYP                                                      6-31+G              
Number of atoms                            I                8
Info1-9                                    I   N=           9
          19          19           0           0           0         110
           8          18        -502
Charge                                     I                0
Multiplicity                               I                1
Number of electrons                        I               30
Number of alpha electrons                  I               15
Number of beta electrons                   I               15
Number of basis functions                  I               60
Number of independent functions            I               60
Number of point charges in /Mol/           I                0
Number of translation vectors              I                0
Atomic numbers                             I   N=           8
           6           6           6           8           1           1
           1           1
Nuclear charges                            R   N=           8
  6.00000000E+00  6.00000000E+00  6.00000000E+00  8.00000000E+00  1.00000000E+00
  1.00000000E+00  1.00000000E+00  1.00000000E+00
Current cartesian coordinates              R   N=          24
  3.33953448E+00  2.62503995E-01 -1.34659852E-01  1.06749474E+00 -8.32412973E-01
  1.89264371E-01 -1.27023561E+00  6.67158730E-01  1.85292102E-01 -3.40394971E+00
 -2.38567768E-01 -2.01730602E-01 -1.03838940E+00  2.72624586E+00  4.46283056E-01
  5.06682383E+00 -8.33182662E-01 -2.78747025E-01  3.53448365E+00  2.30553515E+00
 -2.70003251E-01  8.47917927E-01 -2.87355472E+00  2.76932312E-01
Force Field                                I                0
Int Atom Types                             I   N=           8
           0           0           0           0           0           0
           0           0
MM charges                                 R   N=           8
  0.00000000E+00  0.00000000E+00  0.00000000E+00  0.00000000E+00  0.00000000E+00
  0.00000000E+00  0.00000000E+00  0.00000000E+00
Integer atomic weights                     I   N=           8
          12          12          12          16           1           1
           1           1
Real atomic weights                        R   N=           8
  1.20000000E+01  1.20000000E+01  1.20000000E+01  1.59949146E+01  1.00782504E+00
  1.00782504E+00  1.00782504E+00  1.00782504E+00
Atom fragment info                         I   N=           8
           0           0           0           0           0           0
           0           0
Atom residue num                           I   N=           8
           0           0           0           0           0           0
           0           0
Nuclear spins                              I   N=           8
           0           0           0           0           1           1
           1           1
Nuclear ZEff                               R   N=           8
 -3.60000000E+00 -3.60000000E+00 -3.60000000E+00 -5.60000000E+00 -1.00000000E+00
 -1.00000000E+00 -1.00000000E+00 -1.00000000E+00
Nuclear ZNuc                               R   N=           8
  6.00000000E+00  6.00000000E+00  6.00000000E+00  8.00000000E+00  1.00000000E+00
  1.00000000E+00  1.00000000E+00  1.00000000E+00
Nuclear QMom                               R   N=           8
  0.00000000E+00  0.00000000E+00  0.00000000E+00  0.00000000E+00  0.00000000E+00
  0.00000000E+00  0.00000000E+00  0.00000000E+00
Nuclear GFac                               R   N=           8
  0.00000000E+00  0.00000000E+00  0.00000000E+00  0.00000000E+00  2.79284600E+00
  2.79284600E+00  2.79284600E+00  2.79284600E+00
MicOpt                                     I   N=           8
          -1          -1          -1          -1          -1          -1
          -1          -1
Number of contracted shells                I               24
Number of primitive shells                 I               60
Pure/Cartesian d shells                    I                1
Pure/Cartesian f shells                    I                0
Highest angular momentum                   I                1
Largest degree of contraction              I                6
Shell types                                I   N=          24
           0          -1          -1          -1           0          -1
          -1          -1           0          -1          -1          -1
           0          -1          -1          -1           0           0
           0           0           0           0           0           0
Number of primitives per shell             I   N=          24
           6           3           1           1           6           3
           1           1           6           3           1           1
           6           3           1           1           3           1
           3           1           3           1           3           1
Shell to atom map                          I   N=          24
           1           1           1           1           2           2
           2           2           3           3           3           3
           4           4           4           4           5           5
           6           6           7           7           8           8
Primitive exponents                        R   N=          60
  3.04752488E+03  4.57369518E+02  1.03948685E+02  2.92101553E+01  9.28666296E+00
  3.16392696E+00  7.86827235E+00  1.88128854E+00  5.44249258E-01  1.68714478E-01
  4.38000000E-02  3.04752488E+03  4.57369518E+02  1.03948685E+02  2.92101553E+01
  9.28666296E+00  3.16392696E+00  7.86827235E+00  1.88128854E+00  5.44249258E-01
  1.68714478E-01  4.38000000E-02  3.04752488E+03  4.57369518E+02  1.03948685E+02
  2.92101553E+01  9.28666296E+00  3.16392696E+00  7.86827235E+00  1.88128854E+00
  5.44249258E-01  1.68714478E-01  4.38000000E-02  5.48467166E+03  8.25234946E+02
  1.88046958E+02  5.29645000E+01  1.68975704E+01  5.79963534E+00  1.55396162E+01
  3.59993359E+00  1.01376175E+00  2.70005823E-01  8.45000000E-02  1.87311370E+01
  2.82539436E+00  6.40121692E-01  1.61277759E-01  1.87311370E+01  2.82539436E+00
  6.40121692E-01  1.61277759E-01  1.87311370E+01  2.82539436E+00  6.40121692E-01
  1.61277759E-01  1.87311370E+01  2.82539436E+00  6.40121692E-01  1.61277759E-01
Contraction coefficients                   R   N=          60
  1.83473713E-03  1.40373228E-02  6.88426223E-02  2.32184443E-01  4.67941348E-01
  3.62311985E-01 -1.19332420E-01 -1.60854152E-01  1.14345644E+00  1.00000000E+00
  1.00000000E+00  1.83473713E-03  1.40373228E-02  6.88426223E-02  2.32184443E-01
  4.67941348E-01  3.62311985E-01 -1.19332420E-01 -1.60854152E-01  1.14345644E+00
  1.00000000E+00  1.00000000E+00  1.83473713E-03  1.40373228E-02  6.88426223E-02
  2.32184443E-01  4.67941348E-01  3.62311985E-01 -1.19332420E-01 -1.60854152E-01
  1.14345644E+00  1.00000000E+00  1.00000000E+00  1.83107443E-03  1.39501722E-02
  6.84450781E-02  2.32714336E-01  4.70192898E-01  3.58520853E-01 -1.10777550E-01
 -1.48026263E-01  1.13076702E+00  1.00000000E+00  1.00000000E+00  3.34946043E-02
  2.34726953E-01  8.13757326E-01  1.00000000E+00  3.34946043E-02  2.34726953E-01
  8.13757326E-01  1.00000000E+00  3.34946043E-02  2.34726953E-01  8.13757326E-01
  1.00000000E+00  3.34946043E-02  2.34726953E-01  8.13757326E-01  1.00000000E+00
P(S=P) Contraction coefficients            R   N=          60
  0.00000000E+00  0.00000000E+00  0.00000000E+00  0.00000000E+00  0.00000000E+00
  0.00000000E+00  6.89990666E-02  3.16423961E-01  7.44308291E-01  1.00000000E+00
  1.00000000E+00  0.00000000E+00  0.00000000E+00  0.00000000E+00  0.00000000E+00
  0.00000000E+00  0.00000000E+00  6.89990666E-02  3.16423961E-01  7.44308291E-01
  1.00000000E+00  1.00000000E+00  0.00000000E+00  0.00000000E+00  0.00000000E+00
  0.00000000E+00  0.00000000E+00  0.00000000E+00  6.89990666E-02  3.16423961E-01
  7.44308291E-01  1.00000000E+00  1.00000000E+00  0.00000000E+00  0.00000000E+00
  0.00000000E+00  0.00000000E+00  0.00000000E+00  0.00000000E+00  7.08742682E-02
  3.39752839E-01  7.27158577E-01  1.00000000E+00  1.00000000E+00  0.00000000E+00
  0.00000000E+00  0.00000000E+00  0.00000000E+00  0.00000000E+00  0.00000000E+00
  0.00000000E+00  0.00000000E+00  0.00000000E+00  0.00000000E+00  0.00000000E+00
  0.00000000E+00  0.00000000E+00  0.00000000E+00  0.00000000E+00  0.00000000E+00
Coordinates of each shell                  R   N=          72
  3.33953448E+00  2.62503995E-01 -1.34659852E-01  3.33953448E+00  2.62503995E-01
 -1.34659852E-01  3.33953448E+00  2.62503995E-01 -1.34659852E-01  3.33953448E+00
  2.62503995E-01 -1.34659852E-01  1.06749474E+00 -8.32412973E-01  1.89264371E-01
  1.06749474E+00 -8.32412973E-01  1.89264371E-01  1.06749474E+00 -8.32412973E-01
  1.89264371E-01  1.06749474E+00 -8.32412973E-01  1.89264371E-01 -1.27023561E+00
  6.67158730E-01  1.85292102E-01 -1.27023561E+00  6.67158730E-01  1.85292102E-01
 -1.27023561E+00  6.67158730E-01  1.85292102E-01 -1.27023561E+00  6.67158730E-01
  1.85292102E-01 -3.40394971E+00 -2.38567768E-01 -2.01730602E-01 -3.40394971E+00
 -2.38567768E-01 -2.01730602E-01 -3.40394971E+00 -2.38567768E-01 -2.01730602E-01
 -3.40394971E+00 -2.38567768E-01 -2.01730602E-01 -1.03838940E+00  2.72624586E+00
  4.46283056E-01 -1.03838940E+00  2.72624586E+00  4.46283056E-01  5.06682383E+00
 -8.33182662E-01 -2.78747025E-01  5.06682383E+00 -8.33182662E-01 -2.78747025E-01
  3.53448365E+00  2.30553515E+00 -2.70003251E-01  3.53448365E+00  2.30553515E+00
 -2.70003251E-01  8.47917927E-01 -2.87355472E+00  2.76932312E-01  8.47917927E-01
 -2.87355472E+00  2.76932312E-01
Constraint Structure                       R   N=          24
  3.35634028E+00  2.55632790E-01  3.48980806E-06  1.06124659E+00 -8.38500656E-01
 -1.64007425E-06 -1.26165884E+00  6.77828819E-01 -2.07919927E-05 -3.42682432E+00
 -2.37752713E-01  8.12699674E-06 -1.00052171E+00  2.75033245E+00  3.68790981E-05
  5.08924519E+00 -8.40492079E-01  7.15743180E-06  3.56576967E+00  2.30184640E+00
  8.20011590E-07  8.24533228E-01 -2.87943078E+00  3.78103799E-06
Num ILSW                                   I              100
ILSW                                       I   N=         100
           0           1           0           0           2           0
           0           0           0           0         402          -1
           0           0           0           0           2           0
           0           0           0           0           1           0
           1           0           0           0           0           0
           0           0      100000           0          -1           0
           0           0           0           0           0           0
           0           0           0           1           0           0
           0           0           1           0           0           0
           0           0           4          41           0           0
           0           0           5           0           0           0
           0           0           0           8           0           0
           0           0           0           0           0           0
           0           0           0           0           0           0
           0           0           0           0           0           0
           0           0           0           0           0           0
           0           0           0           0
Num RLSW                                   I               41
RLSW                                       R   N=          41
  8.00000000E-01  7.20000000E-01  1.00000000E+00  8.10000000E-01  2.00000000E-01
  0.00000000E+00  0.00000000E+00  1.00000000E+00  0.00000000E+00  0.00000000E+00
  0.00000000E+00  0.00000000E+00  1.00000000E+00  0.00000000E+00  0.00000000E+00
  0.00000000E+00  0.00000000E+00  1.00000000E+00  0.00000000E+00  0.00000000E+00
  0.00000000E+00  0.00000000E+00  1.00000000E+00  0.00000000E+00  0.00000000E+00
  0.00000000E+00  0.00000000E+00  1.00000000E+00  0.00000000E+00  0.00000000E+00
  0.00000000E+00  0.00000000E+00  1.00000000E+00  0.00000000E+00  0.00000000E+00
  0.00000000E+00  0.00000000E+00  0.00000000E+00  1.00000000E+00  1.00000000E+00
  0.00000000E+00
MxBond                                     I                3
NBond                                      I   N=           8
           3           3           3           1           1           1
           1           1
IBond                                      I   N=          24
           2           6           7           1           3           8
           2           4           5           3           0           0
           3           0           0           1           0           0
           1           0           0           2           0           0
RBond                                      R   N=          24
  2.00000000E+00  1.00000000E+00  1.00000000E+00  2.00000000E+00  1.00000000E+00
  1.00000000E+00  1.00000000E+00  2.00000000E+00  1.00000000E+00  2.00000000E+00
  0.00000000E+00  0.00000000E+00  1.00000000E+00  0.00000000E+00  0.00000000E+00
  1.00000000E+00  0.00000000E+00  0.00000000E+00  1.00000000E+00  0.00000000E+00
  0.00000000E+00  1.00000000E+00  0.00000000E+00  0.00000000E+00
Virial Ratio                               R      2.006138591852799E+00
SCF Energy                                 R     -1.918674218298188E+02
Total Energy                               R     -1.918674218298188E+02
RMS Force                                  R      1.545801880231411E-03
RMS Density                                R      4.590875459988490E-09
External E-field                           R   N=          35
  0.00000000E+00  0.00000000E+00  0.00000000E+00  0.00000000E+00  0.00000000E+00
  0.00000000E+00  0.00000000E+00  0.00000000E+00  0.00000000E+00  0.00000000E+00
  0.00000000E+00  0.00000000E+00  0.00000000E+00  0.00000000E+00  0.00000000E+00
  0.00000000E+00  0.00000000E+00  0.00000000E+00  0.00000000E+00  0.00000000E+00
  0.00000000E+00  0.00000000E+00  0.00000000E+00  0.00000000E+00  0.00000000E+00
  0.00000000E+00  0.00000000E+00  0.00000000E+00  0.00000000E+00  0.00000000E+00
  0.00000000E+00  0.00000000E+00  0.00000000E+00  0.00000000E+00  0.00000000E+00
IOpCl                                      I                0
IROHF                                      I                0
Alpha Orbital Energies                     R   N=          60
 -1.91681967E+01 -1.02955111E+01 -1.02315490E+01 -1.02252224E+01 -1.06761457E+00
 -8.22210716E-01 -6.68276298E-01 -5.91482451E-01 -4.97823347E-01 -4.90424317E-01
 -4.31828024E-01 -4.12322613E-01 -4.05090984E-01 -3.06507151E-01 -2.73429095E-01
 -8.79574582E-02  4.37877752E-03  1.11912235E-02  2.09012522E-02  3.24157054E-02
  5.67659495E-02  6.41676423E-02  6.60227707E-02  9.12483417E-02  9.34307626E-02
  1.14647043E-01  1.22388565E-01  1.35846057E-01  1.62102587E-01  1.90760715E-01
  2.13246599E-01  2.20143415E-01  2.39945326E-01  2.56985673E-01  2.82861973E-01
  2.87330874E-01  3.05985078E-01  3.54789032E-01  3.86365621E-01  4.10401599E-01
  6.23786477E-01  6.31414053E-01  6.67946838E-01  6.91533437E-01  7.13273515E-01
  7.66255143E-01  7.83812044E-01  8.80888322E-01  9.21801644E-01  9.86304856E-01
  9.98702350E-01  1.02923292E+00  1.11848954E+00  1.13569454E+00  1.20621401E+00
  1.23353599E+00  1.27979609E+00  1.30565540E+00  1.34490417E+00  1.81799550E+00
Alpha MO coefficients                      R   N=        3600
 -1.30626630E-05 -1.60856782E-04  2.55633711E-04 -9.35070076E-05 -5.96636813E-05
 -2.20089093E-03 -6.09559572E-04  1.48607826E-03 -1.43480238E-04  3.94657555E-03
 -1.03899810E-03 -5.27945283E-04  7.78309127E-06  3.23537662E-05  1.00037486E-04
  4.31119112E-05 -1.54014637E-04  1.06198104E-05 -1.48375860E-03  3.49256393E-03
  1.61064229E-03  1.67344202E-04  8.41710816E-03 -4.26446306E-03  9.59898756E-04
  6.27745790E-05  2.03024772E-04  1.42654085E-04 -1.08178200E-05  1.82373026E-04
 -1.69554671E-05  8.21638067E-03 -5.34962402E-03 -5.33269781E-03 -1.13746831E-03
 -1.70929297E-02 -7.85438387E-04  3.58277435E-03  6.20393167E-04  9.95156261E-01
  3.00620176E-02  1.96868724E-03  7.45884635E-04  3.60634502E-04 -2.24624976E-02
 -4.87659620E-03 -1.41989868E-03 -8.42996568E-04  8.82971958E-03  8.16995092E-04
 -1.35221841E-04 -7.32098057E-05 -3.06753859E-05  1.81219010E-03  1.60235568E-04
  1.06423912E-03 -1.63299235E-04 -4.29913044E-04  2.92605882E-04  8.66478493E-04
 -2.72592720E-05 -2.25145371E-04  1.42119959E-04 -4.51314322E-05  2.26558879E-05
  2.06926464E-04 -6.06569122E-04  1.63911442E-04 -3.25541230E-05 -2.19358336E-02
  3.36963144E-03  3.30019165E-03 -9.59057746E-04  1.91714975E-03 -6.38143849E-04
  5.33076832E-04 -4.39745809E-04 -2.05663383E-05  5.36064081E-03 -3.18107935E-03
  1.76972603E-03  5.23509604E-05  4.20153964E-03  1.31921365E-02  1.12145145E-03
 -3.91145292E-04  9.95335796E-01  3.73039775E-02 -1.18965361E-03 -6.71305871E-04
 -2.58920938E-04 -3.33581685E-02  5.90714951E-04  2.34783095E-03  5.51712283E-04
  1.52113443E-02  3.13246083E-03 -5.13175362E-03 -9.50439613E-05 -9.14905077E-05
 -2.21116693E-05 -6.31746327E-04 -2.37475390E-04 -9.90001309E-05  1.04679056E-03
  2.58676240E-04 -2.54979759E-04 -6.90136127E-05  1.13394899E-02  5.74238951E-03
  2.31312686E-03  1.10356682E-03 -6.20077933E-04  3.57202955E-03 -1.79320701E-05
  9.18645520E-04 -8.50687858E-05 -1.82870550E-04 -1.57205728E-04 -1.43142697E-04
  9.93398986E-01  3.62025488E-02 -3.27911628E-04 -9.11658030E-05  3.10547051E-05
 -3.09415137E-02  3.26647154E-03  1.54580104E-03 -4.65484687E-04  2.31821549E-02
 -6.81633766E-03 -4.03805439E-03  8.63182325E-04  6.00582359E-02  9.16893172E-04
 -1.14856908E-03 -5.57801545E-04  1.51667063E-04  7.02811643E-03  5.28393297E-03
  2.09622847E-03 -7.25594387E-04  1.71113021E-02 -1.33991031E-02  6.35749489E-03
  7.40991988E-04 -1.31543144E-04 -2.44364989E-04 -1.33068919E-04 -3.10050789E-05
  1.01138575E-05 -6.18656947E-04  1.43649927E-03  2.50564171E-04  2.11032106E-04
 -4.01622118E-02 -9.89229243E-03  5.15706229E-03 -5.97986557E-05 -9.35164480E-06
 -1.36248307E-04 -2.82392952E-05 -1.53584234E-05 -1.91425487E-05  6.68561494E-04
  4.91828904E-04  2.17875475E-04  1.21084094E-04  3.34423394E-03  1.45806395E-03
 -2.66399943E-05  2.83423928E-04 -2.29081665E-04  3.75718244E-04 -8.17912678E-04
  4.31875168E-03 -7.21838522E-04  3.94764212E-03 -1.88838141E-04  2.94356736E-04
 -6.02597896E-02 -3.61502394E-03  9.54165855E-04  4.77601381E-04 -1.41375985E-04
  1.24807895E-02 -5.72787993E-03 -8.74653779E-04  6.42068755E-04 -4.16165350E-02
  9.75987571E-03  3.19588360E-03 -1.27123144E-03  9.93485310E-01  3.74204903E-02
  2.31514990E-04  6.10873837E-04 -1.59423965E-04 -3.70042257E-02 -8.81060496E-04
 -5.83711082E-03  8.47437542E-04  7.49162846E-02  2.64329560E-03  1.32805821E-02
 -1.69551991E-03 -1.86062152E-03 -8.57856768E-04 -5.63999261E-04  3.57387582E-04
 -9.16839511E-06  7.23933722E-03  5.42766056E-03 -1.51630461E-03  2.58314105E-05
 -3.25950954E-02 -7.33734613E-03  4.12461792E-03  2.46797057E-05 -2.12934675E-06
 -7.21978341E-05 -7.21504467E-05 -7.16624419E-05  8.68125655E-06  1.93461580E-04
  1.59071901E-04  5.74478023E-04  4.18452347E-05  3.18446218E-03  7.31456362E-04
 -1.22504422E-04  4.27858176E-04 -2.72371759E-04 -3.88162136E-04 -8.03539289E-05
  7.32801109E-04 -3.07947440E-04 -9.02190244E-04 -7.79479036E-04  2.47131840E-03
 -3.64338591E-03  9.49139403E-03 -7.19854811E-03 -2.53139551E-04  5.78048384E-04
  1.82355849E-02  8.85829633E-03 -1.52580901E-02  1.47860502E-03  5.80777586E-02
 -1.06146869E-02 -4.91099593E-03  1.66055365E-03 -1.99290338E-02  3.75591004E-02
 -2.58295208E-02  1.02591680E-02 -1.75763420E-03  1.95715823E-02 -2.41440861E-02
 -1.20329218E-02 -2.40926706E-03 -1.11908230E-01 -2.48078034E-04 -2.02208928E-02
  3.40812013E-03 -1.14957462E-01  2.37376341E-01 -1.65842455E-01 -7.79601911E-02
 -3.13904577E-02  2.74273719E-02  5.90177940E-02  4.47347696E-02  1.12015487E-02
  6.65862313E-02  1.74102758E-03 -8.56979233E-03 -2.85340880E-03 -1.92929029E-01
  4.26115025E-01  1.66258108E-01  6.83703296E-02  2.98641635E-02  4.29052649E-01
  7.21815025E-02  2.55482289E-02  1.31582160E-02  7.60896824E-04  7.41725963E-03
  4.27804560E-03  1.70304805E-03  2.79439523E-02 -2.39544974E-02 -2.48452696E-04
 -1.37692331E-02  3.26030275E-03  4.93641693E-03  6.06954187E-03 -4.70280003E-03
 -1.41577329E-01  2.76673420E-01 -1.00567380E-01 -3.80468868E-02  1.26482833E-02
  2.12693893E-01 -1.68503825E-02  7.98440493E-03  1.59799894E-03  1.30451645E-02
 -4.44575303E-03  5.19046960E-03  3.43446887E-04 -1.60709559E-01  3.18342565E-01
  5.94832215E-02  7.03330244E-02 -1.59026458E-02  2.03420366E-01 -8.19835629E-04
 -1.56508074E-02 -3.62674351E-04 -9.99218971E-02  2.10908662E-02 -3.14340917E-02
 -3.06465284E-04 -5.47199177E-02  1.07912865E-01  1.36776159E-01 -1.56617236E-02
  7.47490732E-03  1.01198865E-01  3.17224263E-02  3.10661675E-03  5.45161861E-04
  8.80320852E-02  2.58137099E-02 -4.52380362E-03  1.70669471E-03  3.97889972E-02
 -9.24336132E-02 -4.22149126E-03 -1.60091100E-02 -4.28446350E-03 -9.06941984E-02
 -7.70218799E-04 -2.09305714E-03 -1.21876565E-04 -4.25599004E-03 -6.88623620E-03
 -3.25353680E-03 -1.19420995E-03  3.41915420E-02  3.28791619E-03  6.93417767E-02
  1.54064968E-02  7.31680262E-02  6.51159487E-03  7.58811465E-02 -4.80919887E-04
 -1.33900793E-01  2.72335123E-01  6.89599061E-02 -8.53451394E-03 -6.62929531E-03
  2.55162815E-01  3.18468553E-02 -7.58264908E-03 -2.88363680E-03 -8.09333356E-02
  1.76955545E-02  1.38321429E-02 -3.40288842E-03  5.47102158E-02 -1.12572454E-01
  2.22674927E-01 -2.68006371E-02 -1.74709714E-02 -1.02838602E-01  3.46532813E-02
 -3.02377123E-03 -3.81377641E-03 -9.63173893E-03  6.29251609E-02 -3.61373389E-03
 -3.04259665E-03  1.15935035E-01 -2.46284443E-01 -1.71687770E-01 -1.23722947E-03
 -2.18780229E-02 -2.54524008E-01 -1.99172647E-02  2.79985400E-03 -3.48873082E-03
  9.15250802E-02  1.09319667E-02 -2.26197542E-02 -9.15038299E-04 -6.60186655E-02
  1.52869418E-01 -4.79150694E-02  1.47688013E-03 -6.02551269E-03  2.01698304E-01
 -9.53608840E-03  6.14121572E-03 -2.09445030E-04  3.14961886E-02  1.10304329E-02
  5.00311177E-03  2.15701147E-03 -1.01663381E-01 -3.41824338E-02  1.33692524E-01
  3.74011932E-02  1.08017141E-01  3.62515395E-02 -4.27912020E-02 -1.08575566E-02
 -4.79698872E-02  9.50735893E-02  7.77625663E-02  1.46367964E-01 -1.53060147E-02
  1.08770395E-01  1.07684477E-02  4.67719713E-02 -3.17520430E-03 -2.66802528E-02
  1.35469592E-02  4.16147157E-03 -1.69871648E-03  9.43674302E-02 -1.93696335E-01
 -8.36673223E-03  1.88062316E-01  5.53654264E-05 -2.05726911E-01  2.49014787E-03
  5.95140869E-02 -8.60033204E-04  5.25821216E-02 -8.17412285E-03  1.24453405E-02
 -6.44622783E-04 -8.44722258E-02  1.81727326E-01  9.52540570E-04  2.35877012E-01
  2.13740990E-02  1.92925094E-01  1.53591104E-02  8.44779210E-02  8.09498464E-03
 -2.25641783E-02 -4.46468457E-04  1.54443109E-02  3.01339445E-04  3.66059941E-02
 -8.60069905E-02  1.76206785E-02  1.09083320E-01  1.23692554E-02 -1.05719152E-01
  6.88305472E-03  4.67623320E-02  5.49836117E-03 -1.14858437E-02 -3.16385041E-03
 -2.70824098E-03  1.26452426E-04  1.84024596E-01  7.81095451E-02  4.09119841E-02
  2.35380639E-02  1.20416654E-01  5.97662990E-02 -1.71671053E-01 -7.08250352E-02
  1.22415342E-02 -2.35086139E-02 -8.30231107E-02 -2.87438937E-01  3.38618151E-02
 -5.89315747E-02 -1.09275588E-02 -1.09446542E-01  1.05984636E-02 -6.95191401E-02
 -9.41324386E-04 -3.39042145E-03 -8.17272004E-04 -1.77161926E-02  3.25150713E-02
  2.53484207E-01 -1.20837518E-01  1.74631044E-03  6.41671470E-02  6.76715860E-02
 -3.05158003E-02  2.49853306E-03  3.25663181E-02  5.20681359E-02 -9.42648268E-04
 -2.74104534E-03 -4.58869054E-03  8.62961743E-03 -1.46405304E-01  3.07200952E-01
  3.07069356E-02  2.28743588E-02 -6.22468042E-02  1.25287806E-01  1.33100922E-02
  4.51812427E-02 -9.44435294E-03  6.68113371E-03  2.04124688E-03  5.51163698E-03
 -1.17094967E-02 -6.39004359E-02  1.88199550E-01  2.21479754E-02 -2.37403018E-02
 -3.68501471E-02  8.93351600E-02  9.66096734E-03 -1.41708985E-02 -1.64236942E-03
 -1.72498500E-03 -4.17454816E-04  1.52255567E-01  7.94638835E-02  2.91388897E-02
  1.29980216E-02 -1.79160579E-01 -1.02393333E-01  6.84861118E-02  4.14372776E-02
 -8.78565747E-03  1.68059827E-02  3.68208603E-01 -6.86798746E-02 -4.00400607E-02
  2.47237926E-02  1.30991010E-01 -3.55620001E-02 -1.48473570E-02  5.29293021E-02
  1.29346113E-02 -9.50007970E-03 -4.83715551E-04  2.77339465E-02 -6.02688623E-02
 -1.78392423E-01 -2.29798608E-01  3.02829504E-02 -3.75807947E-02 -2.12971052E-02
 -6.13185616E-02  8.57663159E-03 -3.02186500E-02 -3.20433263E-02 -8.67026677E-03
  2.94505724E-03 -5.16529694E-02  1.25213714E-01 -1.04647270E-01 -7.52161438E-02
  1.40284314E-02  1.75604046E-01 -6.08914849E-02 -6.17072707E-02  3.85324363E-03
  5.41816431E-03 -1.91754661E-03 -2.72321430E-04  2.00290565E-04  6.29922470E-02
 -1.39197525E-01  2.14660730E-01  5.34771363E-02  5.91449853E-02 -2.65133280E-01
  6.46015241E-02  6.86478730E-03  2.14658661E-02 -8.43612291E-02  5.51089325E-04
  2.89100173E-03 -5.73584429E-04  1.62130969E-02  2.23020640E-02  2.14282742E-01
  1.32241529E-01 -3.91573804E-03  2.74070314E-03  1.07352909E-01  7.93012526E-02
 -1.58973609E-02  3.85838495E-02 -1.97553460E-01 -4.73946907E-02 -5.56402411E-03
  3.90332653E-02 -5.88692042E-02 -2.38839629E-02 -6.83537118E-03 -4.83633056E-02
  1.33090796E-03 -2.62990740E-03  2.27027022E-05  2.58039048E-03 -1.70503483E-03
  1.62731455E-01  1.12408404E-01 -8.71248183E-02 -3.15812214E-02  3.82716117E-02
  3.50683000E-02 -3.76683568E-02  4.76047880E-02  1.55831427E-02  1.76012174E-02
 -6.71934335E-03 -1.87108956E-02  6.83298326E-02 -2.59725194E-01 -1.65209906E-01
 -1.56426598E-01  3.62512268E-02 -5.83454126E-02 -4.56953908E-02 -6.71485402E-02
 -1.15299679E-02 -8.30609136E-03 -5.60528127E-03 -8.62210383E-03  6.76226321E-02
 -1.46478805E-01  4.25982214E-01  1.52565095E-01 -2.75489982E-02 -2.66587608E-01
  1.77976656E-01  6.34567436E-02 -2.66711601E-02 -8.85240019E-02  2.15059152E-02
  1.06242310E-02  2.92570049E-03 -1.08177571E-01 -9.01488558E-02 -7.42685578E-02
 -6.85138956E-02 -2.94519379E-02 -2.62580719E-02 -9.38215794E-02 -7.24802127E-02
 -1.16934303E-04  7.59198101E-04 -1.02264976E-01  2.29760291E-01  7.09605523E-02
  1.41156852E-02 -4.75012593E-02  9.24040255E-02  3.74956494E-02  7.07299663E-02
 -2.98375229E-02  1.76297417E-02  8.18831436E-04 -1.19150723E-02  2.14181776E-02
  6.02531234E-02 -1.52890612E-01  1.31520874E-01  4.79199002E-02  3.73599469E-03
 -6.46535234E-02  6.40831398E-02 -9.44504200E-02  8.41702219E-03 -3.39989749E-02
  1.24045678E-02  1.49095602E-02 -2.51713574E-02 -2.06453160E-01  8.19400411E-03
  2.38420764E-01 -6.41327226E-02 -7.00061527E-02  2.13769059E-02  1.29294556E-01
  2.85976130E-02 -6.07506936E-03 -3.40208842E-03  1.87429681E-02  1.92090128E-02
 -4.22409583E-02  5.62533216E-02  1.03359865E-01  3.19157462E-01 -7.23340300E-02
  1.65242571E-02  4.82259592E-02  1.84269373E-01 -1.80353750E-02  1.09474667E-02
  7.17051503E-03  1.17678545E-02 -3.85481799E-03 -3.99172632E-03 -1.52969528E-01
 -1.19601052E-01  1.54174104E-01  1.21559499E-01  1.21259945E-01  8.80574239E-02
 -1.28086688E-02  2.91657181E-02  2.19917868E-03 -2.22151988E-01  8.00257055E-02
  3.47554037E-02  1.11116183E-02 -9.54340302E-02  4.00960088E-02  8.95506469E-02
 -1.58745086E-02 -3.16706163E-02  4.29118609E-03  9.19169542E-03 -1.23605308E-02
  3.65266913E-02  2.43241165E-01  1.01794796E-01 -6.64158618E-02  1.36502925E-02
  9.99641453E-02  5.05645448E-02 -8.56813015E-02 -3.11917334E-02  1.88441212E-02
  8.42854148E-03 -1.88152639E-02  4.47808741E-02  5.79762044E-02 -1.43789725E-01
  2.43119111E-01  5.09840018E-02  3.11070728E-02 -7.39977303E-02  1.31669407E-01
 -2.25466381E-02 -3.89122147E-03 -1.24091451E-02  2.00465698E-02 -7.62687714E-04
  2.40028195E-03  1.78798143E-02 -1.37816069E-01  2.91644217E-01  8.67405866E-03
  8.49168984E-03 -7.31344279E-02  1.73217348E-01  1.00162610E-03  1.99123371E-03
 -3.49796540E-03  9.97467678E-03 -5.02066963E-02 -3.85148154E-02  1.02567386E-01
  7.36140105E-02 -1.53096447E-01 -1.29130143E-01 -1.82838957E-01 -1.30556878E-01
  9.61833252E-04 -7.12969241E-04  5.03613609E-02  2.12183424E-02  3.74383032E-01
  1.13122115E-03  3.63865921E-02  1.03735320E-02  2.39958185E-01 -1.23330346E-01
  3.81681589E-02  1.07928104E-02  4.83254739E-02 -3.48734600E-03  8.10357624E-03
  2.45264731E-02  2.64401229E-02  3.60717363E-01  7.48525352E-03  1.49967943E-02
  9.92080901E-03  2.34245662E-01  1.80162469E-01  1.76881446E-02  3.13376281E-02
  2.98639083E-02  7.53587574E-04  1.51630400E-03  7.06979791E-04 -1.29560158E-02
 -4.91610965E-02 -1.70502459E-02  2.08563389E-02 -1.41873884E-03 -2.97153505E-02
 -6.12575647E-02 -8.10764057E-03  8.44066935E-03 -1.73987692E-02 -5.60824293E-04
  1.44540347E-03  6.45907772E-02  4.20432915E-02 -2.80136688E-01  1.27039357E-02
  4.45524799E-02  3.22752609E-02 -1.87417400E-01  1.16150388E-02  7.48158189E-03
  2.92594818E-03 -3.22436273E-02 -1.79145893E-02 -1.59140616E-02  4.36086551E-03
  6.84608118E-04 -1.46241509E-03 -1.22284031E-03 -5.63886290E-03 -1.16211597E-02
  6.90737722E-03 -9.80153365E-03  5.97499110E-02  1.25097551E-02 -2.00448589E-02
 -9.56505417E-02  9.06907108E-02 -7.84281021E-03 -2.30546719E-02 -3.88607849E-01
  9.04073248E-02  1.86784257E-02 -2.31495210E-02 -3.87532258E-02  7.18153460E-02
 -1.83995930E-01  1.06448162E-01  6.40161600E-03  3.44006186E-01 -1.08442142E-01
  1.69351445E-01  7.45652078E-04  4.91214311E-01  1.00247708E-01  1.15074081E-01
  1.17029108E-03  1.08019416E-03  1.50386163E-02  5.54833601E-02 -1.25346327E-01
 -8.34311137E-03 -7.28637905E-02 -1.10565403E-01  4.06778684E-02 -1.31408998E-03
 -1.13117460E-01 -6.80303605E-02 -9.44880148E-03 -1.15261794E-02 -1.35458819E-03
  6.30065002E-03 -2.36466506E-01  5.45913003E-01  4.13532947E-02 -1.81256199E-02
 -1.63590152E-01  3.53007021E-01  2.29427308E-02 -3.42967608E-02 -2.69189173E-02