 Entering Gaussian System, Link 0=/opt/cluster/programs/g09_d.01/g09//g09
 Input=/home/unibas/boittier/RDKit_G2/L.pdb/SCAN_1_2_3_4_S_17_20.0/16_SCAN_1_2_3_4_F/16_SCAN_L.pdb.com
 Output=/scratch/boittier/16_SCAN_L.pdb/16_SCAN_L.pdb.out
 Initial command:
 /opt/cluster/programs/g09_d.01/g09/l1.exe "/scratch/boittier/16_SCAN_L.pdb/Gau-33718.inp" -scrdir="/scratch/boittier/16_SCAN_L.pdb/"
 Entering Link 1 = /opt/cluster/programs/g09_d.01/g09/l1.exe PID=     33719.
  
 Copyright (c) 1988,1990,1992,1993,1995,1998,2003,2009,2013,
            Gaussian, Inc.  All Rights Reserved.
  
 This is part of the Gaussian(R) 09 program.  It is based on
 the Gaussian(R) 03 system (copyright 2003, Gaussian, Inc.),
 the Gaussian(R) 98 system (copyright 1998, Gaussian, Inc.),
 the Gaussian(R) 94 system (copyright 1995, Gaussian, Inc.),
 the Gaussian 92(TM) system (copyright 1992, Gaussian, Inc.),
 the Gaussian 90(TM) system (copyright 1990, Gaussian, Inc.),
 the Gaussian 88(TM) system (copyright 1988, Gaussian, Inc.),
 the Gaussian 86(TM) system (copyright 1986, Carnegie Mellon
 University), and the Gaussian 82(TM) system (copyright 1983,
 Carnegie Mellon University). Gaussian is a federally registered
 trademark of Gaussian, Inc.
  
 This software contains proprietary and confidential information,
 including trade secrets, belonging to Gaussian, Inc.
  
 This software is provided under written license and may be
 used, copied, transmitted, or stored only in accord with that
 written license.
  
 The following legend is applicable only to US Government
 contracts under FAR:
  
                    RESTRICTED RIGHTS LEGEND
  
 Use, reproduction and disclosure by the US Government is
 subject to restrictions as set forth in subparagraphs (a)
 and (c) of the Commercial Computer Software - Restricted
 Rights clause in FAR 52.227-19.
  
 Gaussian, Inc.
 340 Quinnipiac St., Bldg. 40, Wallingford CT 06492
  
  
 ---------------------------------------------------------------
 Warning -- This program may not be used in any manner that
 competes with the business of Gaussian, Inc. or will provide
 assistance to any competitor of Gaussian, Inc.  The licensee
 of this program is prohibited from giving any competitor of
 Gaussian, Inc. access to this program.  By using this program,
 the user acknowledges that Gaussian, Inc. is engaged in the
 business of creating and licensing software in the field of
 computational chemistry and represents and warrants to the
 licensee that it is not a competitor of Gaussian, Inc. and that
 it will not use this program in any manner prohibited above.
 ---------------------------------------------------------------
  

 Cite this work as:
 Gaussian 09, Revision D.01,
 M. J. Frisch, G. W. Trucks, H. B. Schlegel, G. E. Scuseria, 
 M. A. Robb, J. R. Cheeseman, G. Scalmani, V. Barone, B. Mennucci, 
 G. A. Petersson, H. Nakatsuji, M. Caricato, X. Li, H. P. Hratchian, 
 A. F. Izmaylov, J. Bloino, G. Zheng, J. L. Sonnenberg, M. Hada, 
 M. Ehara, K. Toyota, R. Fukuda, J. Hasegawa, M. Ishida, T. Nakajima, 
 Y. Honda, O. Kitao, H. Nakai, T. Vreven, J. A. Montgomery, Jr., 
 J. E. Peralta, F. Ogliaro, M. Bearpark, J. J. Heyd, E. Brothers, 
 K. N. Kudin, V. N. Staroverov, T. Keith, R. Kobayashi, J. Normand, 
 K. Raghavachari, A. Rendell, J. C. Burant, S. S. Iyengar, J. Tomasi, 
 M. Cossi, N. Rega, J. M. Millam, M. Klene, J. E. Knox, J. B. Cross, 
 V. Bakken, C. Adamo, J. Jaramillo, R. Gomperts, R. E. Stratmann, 
 O. Yazyev, A. J. Austin, R. Cammi, C. Pomelli, J. W. Ochterski, 
 R. L. Martin, K. Morokuma, V. G. Zakrzewski, G. A. Voth, 
 P. Salvador, J. J. Dannenberg, S. Dapprich, A. D. Daniels, 
 O. Farkas, J. B. Foresman, J. V. Ortiz, J. Cioslowski, 
 and D. J. Fox, Gaussian, Inc., Wallingford CT, 2013.
 
 ******************************************
 Gaussian 09:  ES64L-G09RevD.01 24-Apr-2013
                12-May-2021 
 ******************************************
 %chk=/home/unibas/boittier/RDKit_G2/L.pdb/SCAN_1_2_3_4_S_17_20.0/16_SCAN_1_2_3_4
 _F/L.pdb.chk
 %nproc=8
 Will use up to    8 processors via shared memory.
 %mem=16GB
 -----------------------------
 #p wB97XD/6-31+G Opt=ModRedun
 -----------------------------
 1/14=-1,18=120,19=15,26=3,38=1/1,3;
 2/9=110,12=2,17=6,18=5,40=1/2;
 3/5=1,6=6,7=10,11=2,16=1,25=1,30=1,71=1,74=-58/1,2,3;
 4//1;
 5/5=2,38=5/2;
 6/7=2,8=2,9=2,10=2,28=1/1;
 7//1,2,3,16;
 1/14=-1,18=20,19=15,26=3/3(2);
 2/9=110/2;
 99//99;
 2/9=110/2;
 3/5=1,6=6,7=10,11=2,16=1,25=1,30=1,71=1,74=-58/1,2,3;
 4/5=5,16=3,69=1/1;
 5/5=2,38=5/2;
 7//1,2,3,16;
 1/14=-1,18=20,19=15,26=3/3(-5);
 2/9=110/2;
 6/7=2,8=2,9=2,10=2,19=2,28=1/1;
 99/9=1/99;
 Leave Link    1 at Wed May 12 11:58:23 2021, MaxMem=  2147483648 cpu:         0.2
 (Enter /opt/cluster/programs/g09_d.01/g09/l101.exe)
 -----
 L.pdb
 -----
 Symbolic Z-matrix:
 Charge =  0 Multiplicity = 1
 C                     1.74123   0.15092  -0.13958 
 C                     0.57501  -0.43123   0.1913 
 C                    -0.68606   0.33372   0.19605 
 O                    -1.76557  -0.12575  -0.21405 
 H                    -0.61664   1.39456   0.49712 
 H                     2.65165  -0.42419  -0.27458 
 H                     1.82001   1.22605  -0.28916 
 H                     0.48849  -1.5109    0.29239 
 
 The following ModRedundant input section has been read:
 D       1       2       3       4 F                                           
 
 NAtoms=      8 NQM=        8 NQMF=       0 NMMI=      0 NMMIF=      0
                NMic=       0 NMicF=      0.
                    Isotopes and Nuclear Properties:
 (Nuclear quadrupole moments (NQMom) in fm**2, nuclear magnetic moments (NMagM)
  in nuclear magnetons)

  Atom         1           2           3           4           5           6           7           8
 IAtWgt=          12          12          12          16           1           1           1           1
 AtmWgt=  12.0000000  12.0000000  12.0000000  15.9949146   1.0078250   1.0078250   1.0078250   1.0078250
 NucSpn=           0           0           0           0           1           1           1           1
 AtZEff=   0.0000000   0.0000000   0.0000000   0.0000000   0.0000000   0.0000000   0.0000000   0.0000000
 NQMom=    0.0000000   0.0000000   0.0000000   0.0000000   0.0000000   0.0000000   0.0000000   0.0000000
 NMagM=    0.0000000   0.0000000   0.0000000   0.0000000   2.7928460   2.7928460   2.7928460   2.7928460
 AtZNuc=   6.0000000   6.0000000   6.0000000   8.0000000   1.0000000   1.0000000   1.0000000   1.0000000
 Leave Link  101 at Wed May 12 11:58:24 2021, MaxMem=  2147483648 cpu:         4.5
 (Enter /opt/cluster/programs/g09_d.01/g09/l103.exe)

 GradGradGradGradGradGradGradGradGradGradGradGradGradGradGradGradGradGrad
 Berny optimization.
 Initialization pass.
                           ----------------------------
                           !    Initial Parameters    !
                           ! (Angstroms and Degrees)  !
 --------------------------                            --------------------------
 ! Name  Definition              Value          Derivative Info.                !
 --------------------------------------------------------------------------------
 ! R1    R(1,2)                  1.3448         estimate D2E/DX2                !
 ! R2    R(1,6)                  1.0853         estimate D2E/DX2                !
 ! R3    R(1,7)                  1.0883         estimate D2E/DX2                !
 ! R4    R(2,3)                  1.4749         estimate D2E/DX2                !
 ! R5    R(2,8)                  1.0878         estimate D2E/DX2                !
 ! R6    R(3,4)                  1.2428         estimate D2E/DX2                !
 ! R7    R(3,5)                  1.1049         estimate D2E/DX2                !
 ! A1    A(2,1,6)              121.9181         estimate D2E/DX2                !
 ! A2    A(2,1,7)              121.6166         estimate D2E/DX2                !
 ! A3    A(6,1,7)              116.465          estimate D2E/DX2                !
 ! A4    A(1,2,3)              121.1814         estimate D2E/DX2                !
 ! A5    A(1,2,8)              121.4312         estimate D2E/DX2                !
 ! A6    A(3,2,8)              116.5154         estimate D2E/DX2                !
 ! A7    A(2,3,4)              123.3556         estimate D2E/DX2                !
 ! A8    A(2,3,5)              116.4297         estimate D2E/DX2                !
 ! A9    A(4,3,5)              119.9626         estimate D2E/DX2                !
 ! D1    D(6,1,2,3)           -171.7853         estimate D2E/DX2                !
 ! D2    D(6,1,2,8)             -2.8485         estimate D2E/DX2                !
 ! D3    D(7,1,2,3)              8.0246         estimate D2E/DX2                !
 ! D4    D(7,1,2,8)            176.9614         estimate D2E/DX2                !
 ! D5    D(1,2,3,4)            140.0011         Frozen                          !
 ! D6    D(1,2,3,5)            -34.2161         estimate D2E/DX2                !
 ! D7    D(8,2,3,4)            -29.4554         estimate D2E/DX2                !
 ! D8    D(8,2,3,5)            156.3273         estimate D2E/DX2                !
 --------------------------------------------------------------------------------
 Trust Radius=3.00D-01 FncErr=1.00D-07 GrdErr=1.00D-06
 Number of steps in this run=     34 maximum allowed number of steps=    100.
 GradGradGradGradGradGradGradGradGradGradGradGradGradGradGradGradGradGrad

 Leave Link  103 at Wed May 12 11:58:24 2021, MaxMem=  2147483648 cpu:         0.1
 (Enter /opt/cluster/programs/g09_d.01/g09/l202.exe)
                          Input orientation:                          
 ---------------------------------------------------------------------
 Center     Atomic      Atomic             Coordinates (Angstroms)
 Number     Number       Type             X           Y           Z
 ---------------------------------------------------------------------
      1          6           0        1.741226    0.150916   -0.139580
      2          6           0        0.575008   -0.431227    0.191297
      3          6           0       -0.686060    0.333724    0.196054
      4          8           0       -1.765571   -0.125750   -0.214050
      5          1           0       -0.616638    1.394557    0.497122
      6          1           0        2.651652   -0.424185   -0.274576
      7          1           0        1.820014    1.226053   -0.289162
      8          1           0        0.488493   -1.510895    0.292388
 ---------------------------------------------------------------------
                    Distance matrix (angstroms):
                    1          2          3          4          5
     1  C    0.000000
     2  C    1.344780   0.000000
     3  C    2.457191   1.474946   0.000000
     4  O    3.518482   2.394981   1.242838   0.000000
     5  H    2.740722   2.201599   1.104911   2.033998   0.000000
     6  H    1.085284   2.128271   3.454886   4.427707   3.819039
     7  H    1.088348   2.127782   2.704088   3.832680   2.565913
     8  H    2.125453   1.087836   2.188944   2.693680   3.115266
                    6          7          8
     6  H    0.000000
     7  H    1.848004   0.000000
     8  H    2.486291   3.098715   0.000000
 Stoichiometry    C3H4O
 Framework group  C1[X(C3H4O)]
 Deg. of freedom    18
 Full point group                 C1      NOp   1
 Largest Abelian subgroup         C1      NOp   1
 Largest concise Abelian subgroup C1      NOp   1
                         Standard orientation:                         
 ---------------------------------------------------------------------
 Center     Atomic      Atomic             Coordinates (Angstroms)
 Number     Number       Type             X           Y           Z
 ---------------------------------------------------------------------
      1          6           0        1.741226    0.150916   -0.139580
      2          6           0        0.575008   -0.431227    0.191297
      3          6           0       -0.686060    0.333724    0.196054
      4          8           0       -1.765571   -0.125750   -0.214050
      5          1           0       -0.616638    1.394557    0.497122
      6          1           0        2.651652   -0.424185   -0.274576
      7          1           0        1.820014    1.226053   -0.289162
      8          1           0        0.488493   -1.510895    0.292388
 ---------------------------------------------------------------------
 Rotational constants (GHZ):     40.8087250      4.6390620      4.3328891
 Leave Link  202 at Wed May 12 11:58:24 2021, MaxMem=  2147483648 cpu:         0.0
 (Enter /opt/cluster/programs/g09_d.01/g09/l301.exe)
 Standard basis: 6-31+G (6D, 7F)
 Ernie: Thresh=  0.10000D-02 Tol=  0.10000D-05 Strict=F.
 There are    60 symmetry adapted cartesian basis functions of A   symmetry.
 There are    60 symmetry adapted basis functions of A   symmetry.
    60 basis functions,   120 primitive gaussians,    60 cartesian basis functions
    15 alpha electrons       15 beta electrons
       nuclear repulsion energy       102.2530643834 Hartrees.
 IExCor= 4639 DFT=T Ex+Corr=wB97XD ExCW=0 ScaHFX=  1.000000
 ScaDFX=  1.000000  1.000000  1.000000  1.000000 ScalE2=  1.000000  1.000000
 IRadAn=      0 IRanWt=     -1 IRanGd=            0 ICorTp=0 IEmpDi=121
  HFx wShort=  0.000000 wLong=  0.200000 cFull=  0.222036 cShort=  0.000000 cLong=  0.777964
  DFx wShort=  0.000000 wLong=  0.200000 cFull=  0.000000 cShort=  0.000000 cLong=  1.000000
 NAtoms=    8 NActive=    8 NUniq=    8 SFac= 1.00D+00 NAtFMM=   60 NAOKFM=F Big=F
 Integral buffers will be    131072 words long.
 Raffenetti 2 integral format.
 Two-electron integral symmetry is turned on.
 R6Disp:  Grimme-D2 Dispersion energy=       -0.0018187352 Hartrees.
 Nuclear repulsion after empirical dispersion term =      102.2512456482 Hartrees.
 Leave Link  301 at Wed May 12 11:58:24 2021, MaxMem=  2147483648 cpu:         0.3
 (Enter /opt/cluster/programs/g09_d.01/g09/l302.exe)
 NPDir=0 NMtPBC=     1 NCelOv=     1 NCel=       1 NClECP=     1 NCelD=      1
         NCelK=      1 NCelE2=     1 NClLst=     1 CellRange=     0.0.
 One-electron integrals computed using PRISM.
 NBasis=    60 RedAO= T EigKep=  1.39D-04  NBF=    60
 NBsUse=    60 1.00D-06 EigRej= -1.00D+00 NBFU=    60
 Precomputing XC quadrature grid using
 IXCGrd= 4 IRadAn=           0 IRanWt=          -1 IRanGd=           0 AccXCQ= 0.00D+00.
 Generated NRdTot=       0 NPtTot=           0 NUsed=           0 NTot=          32
 NSgBfM=    60    60    60    60    60 MxSgAt=     8 MxSgA2=     8.
 Leave Link  302 at Wed May 12 11:58:24 2021, MaxMem=  2147483648 cpu:         0.8
 (Enter /opt/cluster/programs/g09_d.01/g09/l303.exe)
 DipDrv:  MaxL=1.
 Leave Link  303 at Wed May 12 11:58:24 2021, MaxMem=  2147483648 cpu:         0.2
 (Enter /opt/cluster/programs/g09_d.01/g09/l401.exe)
 ExpMin= 4.38D-02 ExpMax= 5.48D+03 ExpMxC= 8.25D+02 IAcc=2 IRadAn=         4 AccDes= 0.00D+00
 Harris functional with IExCor= 4639 and IRadAn=       4 diagonalized for initial guess.
 HarFok:  IExCor= 4639 AccDes= 0.00D+00 IRadAn=         4 IDoV= 1 UseB2=F ITyADJ=14
 ICtDFT=  3500011 ScaDFX=  1.000000  1.000000  1.000000  1.000000
 FoFCou: FMM=F IPFlag=           0 FMFlag=      100000 FMFlg1=           0
         NFxFlg=           0 DoJE=T BraDBF=F KetDBF=T FulRan=T
         wScrn=  0.000000 ICntrl=     500 IOpCl=  0 I1Cent=   200000004 NGrid=           0
         NMat0=    1 NMatS0=      1 NMatT0=    0 NMatD0=    1 NMtDS0=    0 NMtDT0=    0
 Petite list used in FoFCou.
 Harris En= -183.746357311847    
 JPrj=0 DoOrth=F DoCkMO=F.
 Leave Link  401 at Wed May 12 11:58:24 2021, MaxMem=  2147483648 cpu:         1.0
 (Enter /opt/cluster/programs/g09_d.01/g09/l502.exe)
 Closed shell SCF:
 Using DIIS extrapolation, IDIIS=  1040.
 Integral symmetry usage will be decided dynamically.
 Keep R1 ints in memory in canonical form, NReq=4262490.
 IVT=       30290 IEndB=       30290 NGot=  2147483648 MDV=  2144102629
 LenX=  2144102629 LenY=  2144098588
 Requested convergence on RMS density matrix=1.00D-08 within 128 cycles.
 Requested convergence on MAX density matrix=1.00D-06.
 Requested convergence on             energy=1.00D-06.
 No special actions if energy rises.
 FoFCou: FMM=F IPFlag=           0 FMFlag=           0 FMFlg1=           0
         NFxFlg=           0 DoJE=F BraDBF=F KetDBF=F FulRan=T
         wScrn=  0.000000 ICntrl=     600 IOpCl=  0 I1Cent=           0 NGrid=           0
         NMat0=    1 NMatS0=   1830 NMatT0=    0 NMatD0=    1 NMtDS0=    0 NMtDT0=    0
 Symmetry not used in FoFCou.

 Cycle   1  Pass 1  IDiag  1:
 E= -191.752170248567    
 DIIS: error= 2.91D-02 at cycle   1 NSaved=   1.
 NSaved= 1 IEnMin= 1 EnMin= -191.752170248567     IErMin= 1 ErrMin= 2.91D-02
 ErrMax= 2.91D-02  0.00D+00 EMaxC= 1.00D-01 BMatC= 7.24D-02 BMatP= 7.24D-02
 IDIUse=3 WtCom= 7.09D-01 WtEn= 2.91D-01
 Coeff-Com:  0.100D+01
 Coeff-En:   0.100D+01
 Coeff:      0.100D+01
 Gap=     0.400 Goal=   None    Shift=    0.000
 GapD=    0.400 DampG=2.000 DampE=0.500 DampFc=1.0000 IDamp=-1.
 RMSDP=1.79D-02 MaxDP=4.07D-01              OVMax= 8.73D-02

 Cycle   2  Pass 1  IDiag  1:
 E= -191.759346643866     Delta-E=       -0.007176395299 Rises=F Damp=F
 DIIS: error= 2.56D-02 at cycle   2 NSaved=   2.
 NSaved= 2 IEnMin= 2 EnMin= -191.759346643866     IErMin= 2 ErrMin= 2.56D-02
 ErrMax= 2.56D-02  0.00D+00 EMaxC= 1.00D-01 BMatC= 3.82D-02 BMatP= 7.24D-02
 IDIUse=3 WtCom= 7.44D-01 WtEn= 2.56D-01
 Coeff-Com:  0.403D+00 0.597D+00
 Coeff-En:   0.437D+00 0.563D+00
 Coeff:      0.411D+00 0.589D+00
 Gap=     0.391 Goal=   None    Shift=    0.000
 RMSDP=4.71D-03 MaxDP=6.20D-02 DE=-7.18D-03 OVMax= 9.13D-02

 Cycle   3  Pass 1  IDiag  1:
 E= -191.784340668498     Delta-E=       -0.024994024631 Rises=F Damp=F
 DIIS: error= 1.20D-02 at cycle   3 NSaved=   3.
 NSaved= 3 IEnMin= 3 EnMin= -191.784340668498     IErMin= 3 ErrMin= 1.20D-02
 ErrMax= 1.20D-02  0.00D+00 EMaxC= 1.00D-01 BMatC= 8.28D-03 BMatP= 3.82D-02
 IDIUse=3 WtCom= 8.80D-01 WtEn= 1.20D-01
 Coeff-Com:  0.599D-01 0.322D+00 0.618D+00
 Coeff-En:   0.000D+00 0.152D+00 0.848D+00
 Coeff:      0.527D-01 0.301D+00 0.646D+00
 Gap=     0.347 Goal=   None    Shift=    0.000
 RMSDP=2.78D-03 MaxDP=3.73D-02 DE=-2.50D-02 OVMax= 2.82D-02

 Cycle   4  Pass 1  IDiag  1:
 E= -191.790210341014     Delta-E=       -0.005869672517 Rises=F Damp=F
 DIIS: error= 3.38D-03 at cycle   4 NSaved=   4.
 NSaved= 4 IEnMin= 4 EnMin= -191.790210341014     IErMin= 4 ErrMin= 3.38D-03
 ErrMax= 3.38D-03  0.00D+00 EMaxC= 1.00D-01 BMatC= 7.91D-04 BMatP= 8.28D-03
 IDIUse=3 WtCom= 9.66D-01 WtEn= 3.38D-02
 Coeff-Com: -0.620D-02 0.833D-01 0.319D+00 0.604D+00
 Coeff-En:   0.000D+00 0.000D+00 0.328D-01 0.967D+00
 Coeff:     -0.600D-02 0.805D-01 0.309D+00 0.616D+00
 Gap=     0.345 Goal=   None    Shift=    0.000
 RMSDP=6.97D-04 MaxDP=8.50D-03 DE=-5.87D-03 OVMax= 7.21D-03

 Cycle   5  Pass 1  IDiag  1:
 E= -191.790879574033     Delta-E=       -0.000669233019 Rises=F Damp=F
 DIIS: error= 6.06D-04 at cycle   5 NSaved=   5.
 NSaved= 5 IEnMin= 5 EnMin= -191.790879574033     IErMin= 5 ErrMin= 6.06D-04
 ErrMax= 6.06D-04  0.00D+00 EMaxC= 1.00D-01 BMatC= 1.71D-05 BMatP= 7.91D-04
 IDIUse=3 WtCom= 9.94D-01 WtEn= 6.06D-03
 Coeff-Com: -0.442D-02 0.141D-01 0.830D-01 0.218D+00 0.689D+00
 Coeff-En:   0.000D+00 0.000D+00 0.000D+00 0.000D+00 0.100D+01
 Coeff:     -0.440D-02 0.141D-01 0.825D-01 0.217D+00 0.691D+00
 Gap=     0.345 Goal=   None    Shift=    0.000
 RMSDP=2.65D-04 MaxDP=4.25D-03 DE=-6.69D-04 OVMax= 2.58D-03

 Cycle   6  Pass 1  IDiag  1:
 E= -191.790900641991     Delta-E=       -0.000021067957 Rises=F Damp=F
 DIIS: error= 2.96D-04 at cycle   6 NSaved=   6.
 NSaved= 6 IEnMin= 6 EnMin= -191.790900641991     IErMin= 6 ErrMin= 2.96D-04
 ErrMax= 2.96D-04  0.00D+00 EMaxC= 1.00D-01 BMatC= 2.50D-06 BMatP= 1.71D-05
 IDIUse=3 WtCom= 9.97D-01 WtEn= 2.96D-03
 Coeff-Com:  0.562D-05-0.129D-01-0.367D-01-0.490D-01 0.242D+00 0.857D+00
 Coeff-En:   0.000D+00 0.000D+00 0.000D+00 0.000D+00 0.000D+00 0.100D+01
 Coeff:      0.560D-05-0.129D-01-0.366D-01-0.488D-01 0.241D+00 0.857D+00
 Gap=     0.345 Goal=   None    Shift=    0.000
 RMSDP=1.87D-04 MaxDP=2.86D-03 DE=-2.11D-05 OVMax= 1.33D-03

 Cycle   7  Pass 1  IDiag  1:
 E= -191.790905193515     Delta-E=       -0.000004551525 Rises=F Damp=F
 DIIS: error= 5.56D-05 at cycle   7 NSaved=   7.
 NSaved= 7 IEnMin= 7 EnMin= -191.790905193515     IErMin= 7 ErrMin= 5.56D-05
 ErrMax= 5.56D-05  0.00D+00 EMaxC= 1.00D-01 BMatC= 1.43D-07 BMatP= 2.50D-06
 IDIUse=1 WtCom= 1.00D+00 WtEn= 0.00D+00
 Coeff-Com:  0.394D-03-0.464D-02-0.178D-01-0.303D-01 0.184D-01 0.217D+00
 Coeff-Com:  0.817D+00
 Coeff:      0.394D-03-0.464D-02-0.178D-01-0.303D-01 0.184D-01 0.217D+00
 Coeff:      0.817D+00
 Gap=     0.345 Goal=   None    Shift=    0.000
 RMSDP=3.81D-05 MaxDP=5.70D-04 DE=-4.55D-06 OVMax= 4.06D-04

 Cycle   8  Pass 1  IDiag  1:
 E= -191.790905613896     Delta-E=       -0.000000420380 Rises=F Damp=F
 DIIS: error= 3.07D-05 at cycle   8 NSaved=   8.
 NSaved= 8 IEnMin= 8 EnMin= -191.790905613896     IErMin= 8 ErrMin= 3.07D-05
 ErrMax= 3.07D-05  0.00D+00 EMaxC= 1.00D-01 BMatC= 1.79D-08 BMatP= 1.43D-07
 IDIUse=1 WtCom= 1.00D+00 WtEn= 0.00D+00
 Coeff-Com: -0.438D-04 0.227D-02 0.573D-02 0.848D-02-0.379D-01-0.151D+00
 Coeff-Com: -0.143D-02 0.117D+01
 Coeff:     -0.438D-04 0.227D-02 0.573D-02 0.848D-02-0.379D-01-0.151D+00
 Coeff:     -0.143D-02 0.117D+01
 Gap=     0.345 Goal=   None    Shift=    0.000
 RMSDP=1.61D-05 MaxDP=2.07D-04 DE=-4.20D-07 OVMax= 3.30D-04

 Cycle   9  Pass 1  IDiag  1:
 E= -191.790905718152     Delta-E=       -0.000000104256 Rises=F Damp=F
 DIIS: error= 1.06D-05 at cycle   9 NSaved=   9.
 NSaved= 9 IEnMin= 9 EnMin= -191.790905718152     IErMin= 9 ErrMin= 1.06D-05
 ErrMax= 1.06D-05  0.00D+00 EMaxC= 1.00D-01 BMatC= 1.29D-09 BMatP= 1.79D-08
 IDIUse=1 WtCom= 1.00D+00 WtEn= 0.00D+00
 Coeff-Com: -0.203D-04-0.109D-03 0.250D-03 0.887D-03 0.953D-02 0.189D-01
 Coeff-Com: -0.751D-01-0.282D+00 0.133D+01
 Coeff:     -0.203D-04-0.109D-03 0.250D-03 0.887D-03 0.953D-02 0.189D-01
 Coeff:     -0.751D-01-0.282D+00 0.133D+01
 Gap=     0.345 Goal=   None    Shift=    0.000
 RMSDP=5.12D-06 MaxDP=5.76D-05 DE=-1.04D-07 OVMax= 1.40D-04

 Cycle  10  Pass 1  IDiag  1:
 E= -191.790905731096     Delta-E=       -0.000000012944 Rises=F Damp=F
 DIIS: error= 3.48D-06 at cycle  10 NSaved=  10.
 NSaved=10 IEnMin=10 EnMin= -191.790905731096     IErMin=10 ErrMin= 3.48D-06
 ErrMax= 3.48D-06  0.00D+00 EMaxC= 1.00D-01 BMatC= 1.58D-10 BMatP= 1.29D-09
 IDIUse=1 WtCom= 1.00D+00 WtEn= 0.00D+00
 Coeff-Com:  0.100D-04-0.181D-03-0.637D-03-0.107D-02-0.418D-04 0.703D-02
 Coeff-Com:  0.300D-01-0.507D-02-0.549D+00 0.152D+01
 Coeff:      0.100D-04-0.181D-03-0.637D-03-0.107D-02-0.418D-04 0.703D-02
 Coeff:      0.300D-01-0.507D-02-0.549D+00 0.152D+01
 Gap=     0.345 Goal=   None    Shift=    0.000
 RMSDP=1.65D-06 MaxDP=1.54D-05 DE=-1.29D-08 OVMax= 6.32D-05

 Cycle  11  Pass 1  IDiag  1:
 E= -191.790905732909     Delta-E=       -0.000000001813 Rises=F Damp=F
 DIIS: error= 7.13D-07 at cycle  11 NSaved=  11.
 NSaved=11 IEnMin=11 EnMin= -191.790905732909     IErMin=11 ErrMin= 7.13D-07
 ErrMax= 7.13D-07  0.00D+00 EMaxC= 1.00D-01 BMatC= 1.58D-11 BMatP= 1.58D-10
 IDIUse=1 WtCom= 1.00D+00 WtEn= 0.00D+00
 Coeff-Com: -0.806D-06 0.440D-04 0.143D-03 0.135D-03-0.111D-02-0.335D-02
 Coeff-Com: -0.604D-03 0.268D-01-0.436D-02-0.304D+00 0.129D+01
 Coeff:     -0.806D-06 0.440D-04 0.143D-03 0.135D-03-0.111D-02-0.335D-02
 Coeff:     -0.604D-03 0.268D-01-0.436D-02-0.304D+00 0.129D+01
 Gap=     0.345 Goal=   None    Shift=    0.000
 RMSDP=6.26D-07 MaxDP=7.60D-06 DE=-1.81D-09 OVMax= 1.38D-05

 Cycle  12  Pass 1  IDiag  1:
 E= -191.790905732994     Delta-E=       -0.000000000085 Rises=F Damp=F
 DIIS: error= 1.05D-07 at cycle  12 NSaved=  12.
 NSaved=12 IEnMin=12 EnMin= -191.790905732994     IErMin=12 ErrMin= 1.05D-07
 ErrMax= 1.05D-07  0.00D+00 EMaxC= 1.00D-01 BMatC= 4.46D-13 BMatP= 1.58D-11
 IDIUse=1 WtCom= 1.00D+00 WtEn= 0.00D+00
 Coeff-Com: -0.282D-06 0.698D-06 0.103D-04 0.289D-04 0.161D-03 0.345D-03
 Coeff-Com: -0.106D-02-0.388D-02 0.230D-01-0.126D-01-0.227D+00 0.122D+01
 Coeff:     -0.282D-06 0.698D-06 0.103D-04 0.289D-04 0.161D-03 0.345D-03
 Coeff:     -0.106D-02-0.388D-02 0.230D-01-0.126D-01-0.227D+00 0.122D+01
 Gap=     0.345 Goal=   None    Shift=    0.000
 RMSDP=7.44D-08 MaxDP=9.36D-07 DE=-8.54D-11 OVMax= 1.23D-06

 Cycle  13  Pass 1  IDiag  1:
 E= -191.790905732996     Delta-E=       -0.000000000002 Rises=F Damp=F
 DIIS: error= 1.27D-08 at cycle  13 NSaved=  13.
 NSaved=13 IEnMin=13 EnMin= -191.790905732996     IErMin=13 ErrMin= 1.27D-08
 ErrMax= 1.27D-08  0.00D+00 EMaxC= 1.00D-01 BMatC= 1.08D-14 BMatP= 4.46D-13
 IDIUse=1 WtCom= 1.00D+00 WtEn= 0.00D+00
 Coeff-Com:  0.802D-07-0.154D-05-0.653D-05-0.923D-05 0.249D-05 0.835D-04
 Coeff-Com:  0.160D-03-0.268D-03-0.362D-02 0.133D-01-0.103D-01-0.192D+00
 Coeff-Com:  0.119D+01
 Coeff:      0.802D-07-0.154D-05-0.653D-05-0.923D-05 0.249D-05 0.835D-04
 Coeff:      0.160D-03-0.268D-03-0.362D-02 0.133D-01-0.103D-01-0.192D+00
 Coeff:      0.119D+01
 Gap=     0.345 Goal=   None    Shift=    0.000
 RMSDP=9.51D-09 MaxDP=8.85D-08 DE=-1.82D-12 OVMax= 1.03D-07

 SCF Done:  E(RwB97XD) =  -191.790905733     A.U. after   13 cycles
            NFock= 13  Conv=0.95D-08     -V/T= 2.0061
 KE= 1.906366859704D+02 PE=-6.518614815017D+02 EE= 1.671826441502D+02
 Leave Link  502 at Wed May 12 11:58:25 2021, MaxMem=  2147483648 cpu:         8.6
 (Enter /opt/cluster/programs/g09_d.01/g09/l601.exe)
 Copying SCF densities to generalized density rwf, IOpCl= 0 IROHF=0.

 **********************************************************************

            Population analysis using the SCF density.

 **********************************************************************

 Orbital symmetries:
       Occupied  (A) (A) (A) (A) (A) (A) (A) (A) (A) (A) (A) (A)
                 (A) (A) (A)
       Virtual   (A) (A) (A) (A) (A) (A) (A) (A) (A) (A) (A) (A)
                 (A) (A) (A) (A) (A) (A) (A) (A) (A) (A) (A) (A)
                 (A) (A) (A) (A) (A) (A) (A) (A) (A) (A) (A) (A)
                 (A) (A) (A) (A) (A) (A) (A) (A) (A)
 The electronic state is 1-A.
 Alpha  occ. eigenvalues --  -19.29095 -10.40919 -10.33822 -10.33439  -1.16984
 Alpha  occ. eigenvalues --   -0.91807  -0.76055  -0.68076  -0.58497  -0.57475
 Alpha  occ. eigenvalues --   -0.52251  -0.49394  -0.48033  -0.38041  -0.35447
 Alpha virt. eigenvalues --   -0.00932   0.06857   0.07777   0.08863   0.09080
 Alpha virt. eigenvalues --    0.11427   0.12656   0.12865   0.14725   0.15884
 Alpha virt. eigenvalues --    0.17403   0.18025   0.20091   0.22612   0.26712
 Alpha virt. eigenvalues --    0.28180   0.28897   0.30849   0.33147   0.35446
 Alpha virt. eigenvalues --    0.36861   0.38709   0.42991   0.46417   0.49642
 Alpha virt. eigenvalues --    0.70415   0.71812   0.75015   0.79229   0.80180
 Alpha virt. eigenvalues --    0.84865   0.87837   0.95951   1.01041   1.06445
 Alpha virt. eigenvalues --    1.09663   1.12602   1.17676   1.23054   1.28180
 Alpha virt. eigenvalues --    1.33934   1.36414   1.38786   1.40611   1.88807
          Condensed to atoms (all electrons):
               1          2          3          4          5          6
     1  C    5.447791   0.062676   0.104129   0.017434   0.069155   0.350862
     2  C    0.062676   5.836068   0.170733  -0.155301  -0.177907  -0.002947
     3  C    0.104129   0.170733   5.032008   0.289556   0.372323   0.006367
     4  O    0.017434  -0.155301   0.289556   8.322515  -0.059598  -0.000517
     5  H    0.069155  -0.177907   0.372323  -0.059598   0.611372   0.000023
     6  H    0.350862  -0.002947   0.006367  -0.000517   0.000023   0.459774
     7  H    0.387085  -0.057648   0.010493   0.000616   0.001008  -0.022395
     8  H   -0.012257   0.350977  -0.013409  -0.003957   0.001571  -0.003049
               7          8
     1  C    0.387085  -0.012257
     2  C   -0.057648   0.350977
     3  C    0.010493  -0.013409
     4  O    0.000616  -0.003957
     5  H    0.001008   0.001571
     6  H   -0.022395  -0.003049
     7  H    0.473098   0.002401
     8  H    0.002401   0.440529
 Mulliken charges:
               1
     1  C   -0.426876
     2  C   -0.026651
     3  C    0.027801
     4  O   -0.410747
     5  H    0.182054
     6  H    0.211883
     7  H    0.205342
     8  H    0.237195
 Sum of Mulliken charges =   0.00000
 Mulliken charges with hydrogens summed into heavy atoms:
               1
     1  C   -0.009651
     2  C    0.210543
     3  C    0.209855
     4  O   -0.410747
 Electronic spatial extent (au):  <R**2>=            299.6458
 Charge=              0.0000 electrons
 Dipole moment (field-independent basis, Debye):
    X=              3.4797    Y=              0.8422    Z=              0.6738  Tot=              3.6430
 Quadrupole moment (field-independent basis, Debye-Ang):
   XX=            -27.9882   YY=            -21.7008   ZZ=            -25.3691
   XY=             -1.2085   XZ=             -2.2157   YZ=             -0.3558
 Traceless Quadrupole moment (field-independent basis, Debye-Ang):
   XX=             -2.9689   YY=              3.3186   ZZ=             -0.3497
   XY=             -1.2085   XZ=             -2.2157   YZ=             -0.3558
 Octapole moment (field-independent basis, Debye-Ang**2):
  XXX=             16.4359  YYY=              0.0646  ZZZ=             -0.7915  XYY=              0.1823
  XXY=              0.8526  XXZ=             -0.1095  XZZ=             -3.9635  YZZ=              0.3350
  YYZ=              0.4972  XYZ=             -0.2457
 Hexadecapole moment (field-independent basis, Debye-Ang**3):
 XXXX=           -304.3118 YYYY=            -53.4148 ZZZZ=            -34.3060 XXXY=             -3.8963
 XXXZ=             -8.5015 YYYX=             -0.2850 YYYZ=             -0.8344 ZZZX=              0.2569
 ZZZY=             -0.0095 XXYY=            -57.2591 XXZZ=            -58.1217 YYZZ=            -15.8519
 XXYZ=             -0.4595 YYXZ=             -0.9496 ZZXY=              0.1140
 N-N= 1.022512456482D+02 E-N=-6.518614815259D+02  KE= 1.906366859704D+02
 No NMR shielding tensors so no spin-rotation constants.
 Leave Link  601 at Wed May 12 11:58:25 2021, MaxMem=  2147483648 cpu:         0.6
 (Enter /opt/cluster/programs/g09_d.01/g09/l701.exe)
 Compute integral first derivatives.
 ... and contract with generalized density number  0.
 R6Disp: Adding Grimme-D2 dispersion energy 1st derivatives to the gradient.
 Leave Link  701 at Wed May 12 11:58:25 2021, MaxMem=  2147483648 cpu:         0.5
 (Enter /opt/cluster/programs/g09_d.01/g09/l702.exe)
 L702 exits ... SP integral derivatives will be done elsewhere.
 Leave Link  702 at Wed May 12 11:58:25 2021, MaxMem=  2147483648 cpu:         0.2
 (Enter /opt/cluster/programs/g09_d.01/g09/l703.exe)
 Compute integral first derivatives, UseDBF=F ICtDFT=           0.
 Integral derivatives from FoFJK, PRISM(SPDF).
 Calling FoFJK, ICntrl=      2127 FMM=F ISym2X=0 I1Cent= 0 IOpClX= 0 NMat=1 NMatS=1 NMatT=0.
 FoFJK:  IHMeth= 1 ICntrl=    2127 DoSepK=T KAlg= 0 I1Cent=   0 FoldK=F
 IRaf=         1 NMat=   1 IRICut=       1 DoRegI=T DoRafI=F ISym2E= 0.
 FoFCou: FMM=F IPFlag=           0 FMFlag=      100000 FMFlg1=         800
         NFxFlg=           0 DoJE=F BraDBF=F KetDBF=F FulRan=T
         wScrn=  0.000000 ICntrl=    2527 IOpCl=  0 I1Cent=           0 NGrid=           0
         NMat0=    1 NMatS0=      1 NMatT0=    0 NMatD0=    1 NMtDS0=    0 NMtDT0=    0
 Symmetry not used in FoFCou.
 Leave Link  703 at Wed May 12 11:58:26 2021, MaxMem=  2147483648 cpu:         2.4
 (Enter /opt/cluster/programs/g09_d.01/g09/l716.exe)
 Dipole        = 1.36901128D+00 3.31339158D-01 2.65082592D-01
 ***** Axes restored to original set *****
 -------------------------------------------------------------------
 Center     Atomic                   Forces (Hartrees/Bohr)
 Number     Number              X              Y              Z
 -------------------------------------------------------------------
      1        6          -0.004161641   -0.000396565    0.007066707
      2        6           0.002625924   -0.002743059   -0.008026156
      3        6          -0.004946601    0.002878554   -0.008810612
      4        8           0.007812058    0.001184088    0.009288006
      5        1          -0.000496632   -0.001368104   -0.000222818
      6        1          -0.000720128    0.000027158    0.000387257
      7        1          -0.000338020   -0.000310141   -0.000046617
      8        1           0.000225038    0.000728068    0.000364232
 -------------------------------------------------------------------
 Cartesian Forces:  Max     0.009288006 RMS     0.004128642
 Leave Link  716 at Wed May 12 11:58:26 2021, MaxMem=  2147483648 cpu:         0.2
 (Enter /opt/cluster/programs/g09_d.01/g09/l103.exe)

 GradGradGradGradGradGradGradGradGradGradGradGradGradGradGradGradGradGrad
 Berny optimization.
 FormGI is forming the generalized inverse of G from B-inverse, IUseBI=4.
 Internal  Forces:  Max     0.010287136 RMS     0.003321940
 Search for a local minimum.
 Step number   1 out of a maximum of   34
 All quantities printed in internal units (Hartrees-Bohrs-Radians)
 RMS Force = .26268D-02 SwitMx=.10000D-02 MixMth= 1
 Mixed Optimization -- RFO/linear search
 Second derivative matrix not updated -- first step.
 ITU=  0
     Eigenvalues ---    0.01119   0.01887   0.02819   0.02819   0.15814
     Eigenvalues ---    0.16000   0.16000   0.16000   0.22014   0.22040
     Eigenvalues ---    0.33145   0.35004   0.35064   0.35155   0.35363
     Eigenvalues ---    0.56147   0.859401000.000001000.000001000.00000
     Eigenvalues --- 1000.000001000.000001000.000001000.00000
 RFO step:  Lambda=-2.60943500D-04 EMin= 1.11884735D-02
 Linear search not attempted -- first point.
 Iteration  1 RMS(Cart)=  0.01051613 RMS(Int)=  0.00006747
 Iteration  2 RMS(Cart)=  0.00006378 RMS(Int)=  0.00001482
 Iteration  3 RMS(Cart)=  0.00000000 RMS(Int)=  0.00001482
 Iteration  1 RMS(Cart)=  0.00000073 RMS(Int)=  0.00000053
 ITry= 1 IFail=0 DXMaxC= 2.17D-02 DCOld= 1.00D+10 DXMaxT= 3.00D-01 DXLimC= 3.00D+00 Rises=F
 Variable       Old X    -DE/DX   Delta X   Delta X   Delta X     New X
                                 (Linear)    (Quad)   (Total)
    R1        2.54127  -0.00664   0.00000  -0.01181  -0.01181   2.52945
    R2        2.05089  -0.00067   0.00000  -0.00189  -0.00189   2.04899
    R3        2.05668  -0.00032   0.00000  -0.00091  -0.00091   2.05577
    R4        2.78724  -0.00063   0.00000  -0.00180  -0.00180   2.78544
    R5        2.05571  -0.00071   0.00000  -0.00201  -0.00201   2.05370
    R6        2.34862  -0.01029   0.00000  -0.01197  -0.01197   2.33666
    R7        2.08798  -0.00141   0.00000  -0.00425  -0.00425   2.08373
    A1        2.12787  -0.00035   0.00000  -0.00219  -0.00219   2.12568
    A2        2.12261  -0.00013   0.00000  -0.00081  -0.00081   2.12180
    A3        2.03270   0.00048   0.00000   0.00301   0.00300   2.03570
    A4        2.11501  -0.00121   0.00000  -0.00560  -0.00563   2.10938
    A5        2.11937   0.00108   0.00000   0.00327   0.00323   2.12261
    A6        2.03358   0.00068   0.00000   0.00492   0.00489   2.03846
    A7        2.15296  -0.00079   0.00000  -0.00417  -0.00420   2.14877
    A8        2.03208   0.00108   0.00000   0.00510   0.00507   2.03716
    A9        2.09374   0.00029   0.00000   0.00016   0.00014   2.09388
    D1       -2.99822  -0.00195   0.00000  -0.01487  -0.01487  -3.01309
    D2       -0.04972   0.00158   0.00000   0.00191   0.00191  -0.04781
    D3        0.14006  -0.00189   0.00000  -0.01266  -0.01266   0.12740
    D4        3.08856   0.00165   0.00000   0.00412   0.00412   3.09268
    D5        2.44348   0.00811   0.00000   0.00000   0.00000   2.44348
    D6       -0.59718   0.00150   0.00000  -0.01247  -0.01247  -0.60965
    D7       -0.51409   0.00468   0.00000  -0.01589  -0.01589  -0.52999
    D8        2.72843  -0.00193   0.00000  -0.02836  -0.02836   2.70006
         Item               Value     Threshold  Converged?
 Maximum Force            0.010287     0.000450     NO 
 RMS     Force            0.002627     0.000300     NO 
 Maximum Displacement     0.021736     0.001800     NO 
 RMS     Displacement     0.010526     0.001200     NO 
 Predicted change in Energy=-1.306944D-04
 Lowest energy point so far.  Saving SCF results.
 GradGradGradGradGradGradGradGradGradGradGradGradGradGradGradGradGradGrad

 Leave Link  103 at Wed May 12 11:58:26 2021, MaxMem=  2147483648 cpu:         0.0
 (Enter /opt/cluster/programs/g09_d.01/g09/l202.exe)
                          Input orientation:                          
 ---------------------------------------------------------------------
 Center     Atomic      Atomic             Coordinates (Angstroms)
 Number     Number       Type             X           Y           Z
 ---------------------------------------------------------------------
      1          6           0        1.735546    0.149605   -0.141854
      2          6           0        0.575879   -0.433197    0.185523
      3          6           0       -0.681369    0.336172    0.192800
      4          8           0       -1.754606   -0.119526   -0.218838
      5          1           0       -0.615567    1.390585    0.508624
      6          1           0        2.647619   -0.423313   -0.266563
      7          1           0        1.809229    1.223795   -0.297235
      8          1           0        0.491394   -1.510927    0.297036
 ---------------------------------------------------------------------
                    Distance matrix (angstroms):
                    1          2          3          4          5
     1  C    0.000000
     2  C    1.338529   0.000000
     3  C    2.447095   1.473991   0.000000
     4  O    3.501360   2.386013   1.236505   0.000000
     5  H    2.736948   2.202298   1.102661   2.026585   0.000000
     6  H    1.084281   2.120516   3.445285   4.412953   3.813073
     7  H    1.087868   2.121280   2.689067   3.809406   2.560637
     8  H    2.120826   1.086773   2.190436   2.691959   3.112700
                    6          7          8
     6  H    0.000000
     7  H    1.848460   0.000000
     8  H    2.479890   3.093307   0.000000
 Stoichiometry    C3H4O
 Framework group  C1[X(C3H4O)]
 Deg. of freedom    18
 Full point group                 C1      NOp   1
 RotChk:  IX=0 Diff= 4.13D-03
 Largest Abelian subgroup         C1      NOp   1
 Largest concise Abelian subgroup C1      NOp   1
                         Standard orientation:                         
 ---------------------------------------------------------------------
 Center     Atomic      Atomic             Coordinates (Angstroms)
 Number     Number       Type             X           Y           Z
 ---------------------------------------------------------------------
      1          6           0        1.732496    0.153203   -0.139895
      2          6           0        0.574673   -0.433013    0.187910
      3          6           0       -0.684711    0.332839    0.196431
      4          8           0       -1.756941   -0.125623   -0.214764
      5          1           0       -0.621646    1.387257    0.512800
      6          1           0        2.646083   -0.417098   -0.265515
      7          1           0        1.803080    1.227681   -0.294726
      8          1           0        0.493268   -1.511037    0.298878
 ---------------------------------------------------------------------
 Rotational constants (GHZ):     40.7835664      4.6796007      4.3687379
 Leave Link  202 at Wed May 12 11:58:26 2021, MaxMem=  2147483648 cpu:         0.0
 (Enter /opt/cluster/programs/g09_d.01/g09/l301.exe)
 Standard basis: 6-31+G (6D, 7F)
 Ernie: Thresh=  0.10000D-02 Tol=  0.10000D-05 Strict=F.
 There are    60 symmetry adapted cartesian basis functions of A   symmetry.
 There are    60 symmetry adapted basis functions of A   symmetry.
    60 basis functions,   120 primitive gaussians,    60 cartesian basis functions
    15 alpha electrons       15 beta electrons
       nuclear repulsion energy       102.5947927264 Hartrees.
 IExCor= 4639 DFT=T Ex+Corr=wB97XD ExCW=0 ScaHFX=  1.000000
 ScaDFX=  1.000000  1.000000  1.000000  1.000000 ScalE2=  1.000000  1.000000
 IRadAn=      0 IRanWt=     -1 IRanGd=            0 ICorTp=0 IEmpDi=121
  HFx wShort=  0.000000 wLong=  0.200000 cFull=  0.222036 cShort=  0.000000 cLong=  0.777964
  DFx wShort=  0.000000 wLong=  0.200000 cFull=  0.000000 cShort=  0.000000 cLong=  1.000000
 NAtoms=    8 NActive=    8 NUniq=    8 SFac= 1.00D+00 NAtFMM=   60 NAOKFM=F Big=F
 Integral buffers will be    131072 words long.
 Raffenetti 2 integral format.
 Two-electron integral symmetry is turned on.
 R6Disp:  Grimme-D2 Dispersion energy=       -0.0018181967 Hartrees.
 Nuclear repulsion after empirical dispersion term =      102.5929745296 Hartrees.
 Leave Link  301 at Wed May 12 11:58:26 2021, MaxMem=  2147483648 cpu:         0.3
 (Enter /opt/cluster/programs/g09_d.01/g09/l302.exe)
 NPDir=0 NMtPBC=     1 NCelOv=     1 NCel=       1 NClECP=     1 NCelD=      1
         NCelK=      1 NCelE2=     1 NClLst=     1 CellRange=     0.0.
 One-electron integrals computed using PRISM.
 NBasis=    60 RedAO= T EigKep=  1.36D-04  NBF=    60
 NBsUse=    60 1.00D-06 EigRej= -1.00D+00 NBFU=    60
 Precomputing XC quadrature grid using
 IXCGrd= 4 IRadAn=           0 IRanWt=          -1 IRanGd=           0 AccXCQ= 0.00D+00.
 Generated NRdTot=       0 NPtTot=           0 NUsed=           0 NTot=          32
 NSgBfM=    60    60    60    60    60 MxSgAt=     8 MxSgA2=     8.
 Leave Link  302 at Wed May 12 11:58:26 2021, MaxMem=  2147483648 cpu:         0.8
 (Enter /opt/cluster/programs/g09_d.01/g09/l303.exe)
 DipDrv:  MaxL=1.
 Leave Link  303 at Wed May 12 11:58:26 2021, MaxMem=  2147483648 cpu:         0.2
 (Enter /opt/cluster/programs/g09_d.01/g09/l401.exe)
 Initial guess from the checkpoint file:  "/home/unibas/boittier/RDKit_G2/L.pdb/SCAN_1_2_3_4_S_17_20.0/16_SCAN_1_2_3_4_F/L.pdb.chk"
 B after Tr=     0.000000    0.000000    0.000000
         Rot=    0.999999   -0.001207    0.000016   -0.000686 Ang=  -0.16 deg.
 Guess basis will be translated and rotated to current coordinates.
 JPrj=2 DoOrth=T DoCkMO=T.
 Generating alternative initial guess.
 ExpMin= 4.38D-02 ExpMax= 5.48D+03 ExpMxC= 8.25D+02 IAcc=2 IRadAn=         4 AccDes= 0.00D+00
 Harris functional with IExCor= 4639 and IRadAn=       4 diagonalized for initial guess.
 HarFok:  IExCor= 4639 AccDes= 0.00D+00 IRadAn=         4 IDoV= 1 UseB2=F ITyADJ=14
 ICtDFT=  3500011 ScaDFX=  1.000000  1.000000  1.000000  1.000000
 FoFCou: FMM=F IPFlag=           0 FMFlag=      100000 FMFlg1=           0
         NFxFlg=           0 DoJE=T BraDBF=F KetDBF=T FulRan=T
         wScrn=  0.000000 ICntrl=     500 IOpCl=  0 I1Cent=   200000004 NGrid=           0
         NMat0=    1 NMatS0=      1 NMatT0=    0 NMatD0=    1 NMtDS0=    0 NMtDT0=    0
 Petite list used in FoFCou.
 Harris En= -183.743921149982    
 Leave Link  401 at Wed May 12 11:58:26 2021, MaxMem=  2147483648 cpu:         1.4
 (Enter /opt/cluster/programs/g09_d.01/g09/l502.exe)
 Closed shell SCF:
 Using DIIS extrapolation, IDIIS=  1040.
 Integral symmetry usage will be decided dynamically.
 Keep R1 ints in memory in canonical form, NReq=4262490.
 IVT=       30290 IEndB=       30290 NGot=  2147483648 MDV=  2144102629
 LenX=  2144102629 LenY=  2144098588
 Requested convergence on RMS density matrix=1.00D-08 within 128 cycles.
 Requested convergence on MAX density matrix=1.00D-06.
 Requested convergence on             energy=1.00D-06.
 No special actions if energy rises.
 FoFCou: FMM=F IPFlag=           0 FMFlag=           0 FMFlg1=           0
         NFxFlg=           0 DoJE=F BraDBF=F KetDBF=F FulRan=T
         wScrn=  0.000000 ICntrl=     600 IOpCl=  0 I1Cent=           0 NGrid=           0
         NMat0=    1 NMatS0=   1830 NMatT0=    0 NMatD0=    1 NMtDS0=    0 NMtDT0=    0
 Symmetry not used in FoFCou.

 Cycle   1  Pass 1  IDiag  1:
 E= -191.790937494302    
 DIIS: error= 5.09D-04 at cycle   1 NSaved=   1.
 NSaved= 1 IEnMin= 1 EnMin= -191.790937494302     IErMin= 1 ErrMin= 5.09D-04
 ErrMax= 5.09D-04  0.00D+00 EMaxC= 1.00D-01 BMatC= 4.71D-05 BMatP= 4.71D-05
 IDIUse=3 WtCom= 9.95D-01 WtEn= 5.09D-03
 Coeff-Com:  0.100D+01
 Coeff-En:   0.100D+01
 Coeff:      0.100D+01
 Gap=     0.616 Goal=   None    Shift=    0.000
 RMSDP=2.88D-04 MaxDP=3.69D-03              OVMax= 2.80D-03

 Cycle   2  Pass 1  IDiag  1:
 E= -191.791017735866     Delta-E=       -0.000080241565 Rises=F Damp=F
 DIIS: error= 2.04D-04 at cycle   2 NSaved=   2.
 NSaved= 2 IEnMin= 2 EnMin= -191.791017735866     IErMin= 2 ErrMin= 2.04D-04
 ErrMax= 2.04D-04  0.00D+00 EMaxC= 1.00D-01 BMatC= 3.72D-06 BMatP= 4.71D-05
 IDIUse=3 WtCom= 9.98D-01 WtEn= 2.04D-03
 Coeff-Com:  0.158D-01 0.984D+00
 Coeff-En:   0.000D+00 0.100D+01
 Coeff:      0.158D-01 0.984D+00
 Gap=     0.347 Goal=   None    Shift=    0.000
 RMSDP=9.50D-05 MaxDP=1.06D-03 DE=-8.02D-05 OVMax= 1.14D-03

 Cycle   3  Pass 1  IDiag  1:
 E= -191.791025155585     Delta-E=       -0.000007419718 Rises=F Damp=F
 DIIS: error= 1.33D-04 at cycle   3 NSaved=   3.
 NSaved= 3 IEnMin= 3 EnMin= -191.791025155585     IErMin= 3 ErrMin= 1.33D-04
 ErrMax= 1.33D-04  0.00D+00 EMaxC= 1.00D-01 BMatC= 1.12D-06 BMatP= 3.72D-06
 IDIUse=3 WtCom= 9.99D-01 WtEn= 1.33D-03
 Coeff-Com: -0.676D-01 0.304D+00 0.764D+00
 Coeff-En:   0.000D+00 0.000D+00 0.100D+01
 Coeff:     -0.675D-01 0.303D+00 0.764D+00
 Gap=     0.347 Goal=   None    Shift=    0.000
 RMSDP=3.75D-05 MaxDP=3.01D-04 DE=-7.42D-06 OVMax= 5.81D-04

 Cycle   4  Pass 1  IDiag  1:
 E= -191.791026897399     Delta-E=       -0.000001741815 Rises=F Damp=F
 DIIS: error= 6.66D-05 at cycle   4 NSaved=   4.
 NSaved= 4 IEnMin= 4 EnMin= -191.791026897399     IErMin= 4 ErrMin= 6.66D-05
 ErrMax= 6.66D-05  0.00D+00 EMaxC= 1.00D-01 BMatC= 3.98D-07 BMatP= 1.12D-06
 IDIUse=1 WtCom= 1.00D+00 WtEn= 0.00D+00
 Coeff-Com: -0.395D-01 0.816D-01 0.408D+00 0.550D+00
 Coeff:     -0.395D-01 0.816D-01 0.408D+00 0.550D+00
 Gap=     0.347 Goal=   None    Shift=    0.000
 RMSDP=1.69D-05 MaxDP=2.20D-04 DE=-1.74D-06 OVMax= 3.04D-04

 Cycle   5  Pass 1  IDiag  1:
 E= -191.791027363037     Delta-E=       -0.000000465638 Rises=F Damp=F
 DIIS: error= 3.49D-05 at cycle   5 NSaved=   5.
 NSaved= 5 IEnMin= 5 EnMin= -191.791027363037     IErMin= 5 ErrMin= 3.49D-05
 ErrMax= 3.49D-05  0.00D+00 EMaxC= 1.00D-01 BMatC= 4.78D-08 BMatP= 3.98D-07
 IDIUse=1 WtCom= 1.00D+00 WtEn= 0.00D+00
 Coeff-Com:  0.129D-01-0.922D-01-0.133D+00 0.176D+00 0.104D+01
 Coeff:      0.129D-01-0.922D-01-0.133D+00 0.176D+00 0.104D+01
 Gap=     0.347 Goal=   None    Shift=    0.000
 RMSDP=1.43D-05 MaxDP=1.40D-04 DE=-4.66D-07 OVMax= 3.90D-04

 Cycle   6  Pass 1  IDiag  1:
 E= -191.791027546975     Delta-E=       -0.000000183938 Rises=F Damp=F
 DIIS: error= 1.67D-05 at cycle   6 NSaved=   6.
 NSaved= 6 IEnMin= 6 EnMin= -191.791027546975     IErMin= 6 ErrMin= 1.67D-05
 ErrMax= 1.67D-05  0.00D+00 EMaxC= 1.00D-01 BMatC= 3.22D-09 BMatP= 4.78D-08
 IDIUse=1 WtCom= 1.00D+00 WtEn= 0.00D+00
 Coeff-Com:  0.236D-02-0.580D-03-0.222D-01-0.731D-01-0.550D-01 0.115D+01
 Coeff:      0.236D-02-0.580D-03-0.222D-01-0.731D-01-0.550D-01 0.115D+01
 Gap=     0.347 Goal=   None    Shift=    0.000
 RMSDP=5.63D-06 MaxDP=6.29D-05 DE=-1.84D-07 OVMax= 1.80D-04

 Cycle   7  Pass 1  IDiag  1:
 E= -191.791027572027     Delta-E=       -0.000000025052 Rises=F Damp=F
 DIIS: error= 6.94D-06 at cycle   7 NSaved=   7.
 NSaved= 7 IEnMin= 7 EnMin= -191.791027572027     IErMin= 7 ErrMin= 6.94D-06
 ErrMax= 6.94D-06  0.00D+00 EMaxC= 1.00D-01 BMatC= 9.01D-10 BMatP= 3.22D-09
 IDIUse=1 WtCom= 1.00D+00 WtEn= 0.00D+00
 Coeff-Com: -0.206D-02 0.181D-01 0.204D-01-0.550D-01-0.231D+00 0.343D+00
 Coeff-Com:  0.906D+00
 Coeff:     -0.206D-02 0.181D-01 0.204D-01-0.550D-01-0.231D+00 0.343D+00
 Coeff:      0.906D+00
 Gap=     0.347 Goal=   None    Shift=    0.000
 RMSDP=2.68D-06 MaxDP=2.36D-05 DE=-2.51D-08 OVMax= 8.73D-05

 Cycle   8  Pass 1  IDiag  1:
 E= -191.791027577149     Delta-E=       -0.000000005122 Rises=F Damp=F
 DIIS: error= 2.24D-06 at cycle   8 NSaved=   8.
 NSaved= 8 IEnMin= 8 EnMin= -191.791027577149     IErMin= 8 ErrMin= 2.24D-06
 ErrMax= 2.24D-06  0.00D+00 EMaxC= 1.00D-01 BMatC= 1.56D-10 BMatP= 9.01D-10
 IDIUse=1 WtCom= 1.00D+00 WtEn= 0.00D+00
 Coeff-Com: -0.707D-03 0.283D-02 0.706D-02 0.104D-01-0.289D-01-0.176D+00
 Coeff-Com:  0.177D+00 0.101D+01
 Coeff:     -0.707D-03 0.283D-02 0.706D-02 0.104D-01-0.289D-01-0.176D+00
 Coeff:      0.177D+00 0.101D+01
 Gap=     0.347 Goal=   None    Shift=    0.000
 RMSDP=1.13D-06 MaxDP=1.23D-05 DE=-5.12D-09 OVMax= 3.48D-05

 Cycle   9  Pass 1  IDiag  1:
 E= -191.791027577918     Delta-E=       -0.000000000769 Rises=F Damp=F
 DIIS: error= 7.18D-07 at cycle   9 NSaved=   9.
 NSaved= 9 IEnMin= 9 EnMin= -191.791027577918     IErMin= 9 ErrMin= 7.18D-07
 ErrMax= 7.18D-07  0.00D+00 EMaxC= 1.00D-01 BMatC= 3.48D-11 BMatP= 1.56D-10
 IDIUse=1 WtCom= 1.00D+00 WtEn= 0.00D+00
 Coeff-Com:  0.814D-05-0.176D-02-0.126D-03 0.148D-01 0.257D-01-0.146D+00
 Coeff-Com: -0.685D-01 0.448D+00 0.728D+00
 Coeff:      0.814D-05-0.176D-02-0.126D-03 0.148D-01 0.257D-01-0.146D+00
 Coeff:     -0.685D-01 0.448D+00 0.728D+00
 Gap=     0.347 Goal=   None    Shift=    0.000
 RMSDP=3.90D-07 MaxDP=4.82D-06 DE=-7.69D-10 OVMax= 1.05D-05

 Cycle  10  Pass 1  IDiag  1:
 E= -191.791027578009     Delta-E=       -0.000000000091 Rises=F Damp=F
 DIIS: error= 1.79D-07 at cycle  10 NSaved=  10.
 NSaved=10 IEnMin=10 EnMin= -191.791027578009     IErMin=10 ErrMin= 1.79D-07
 ErrMax= 1.79D-07  0.00D+00 EMaxC= 1.00D-01 BMatC= 1.25D-12 BMatP= 3.48D-11
 IDIUse=1 WtCom= 1.00D+00 WtEn= 0.00D+00
 Coeff-Com:  0.804D-04-0.269D-03-0.848D-03-0.214D-02 0.334D-02 0.248D-01
 Coeff-Com: -0.133D-01-0.141D+00-0.147D-01 0.114D+01
 Coeff:      0.804D-04-0.269D-03-0.848D-03-0.214D-02 0.334D-02 0.248D-01
 Coeff:     -0.133D-01-0.141D+00-0.147D-01 0.114D+01
 Gap=     0.347 Goal=   None    Shift=    0.000
 RMSDP=1.39D-07 MaxDP=1.97D-06 DE=-9.12D-11 OVMax= 2.06D-06

 Cycle  11  Pass 1  IDiag  1:
 E= -191.791027578016     Delta-E=       -0.000000000007 Rises=F Damp=F
 DIIS: error= 3.16D-08 at cycle  11 NSaved=  11.
 NSaved=11 IEnMin=11 EnMin= -191.791027578016     IErMin=11 ErrMin= 3.16D-08
 ErrMax= 3.16D-08  0.00D+00 EMaxC= 1.00D-01 BMatC= 2.47D-14 BMatP= 1.25D-12
 IDIUse=1 WtCom= 1.00D+00 WtEn= 0.00D+00
 Coeff-Com: -0.108D-04 0.966D-04 0.103D-03-0.155D-03-0.140D-02 0.154D-02
 Coeff-Com:  0.523D-02 0.534D-03-0.188D-01-0.167D+00 0.118D+01
 Coeff:     -0.108D-04 0.966D-04 0.103D-03-0.155D-03-0.140D-02 0.154D-02
 Coeff:      0.523D-02 0.534D-03-0.188D-01-0.167D+00 0.118D+01
 Gap=     0.347 Goal=   None    Shift=    0.000
 RMSDP=2.17D-08 MaxDP=2.20D-07 DE=-6.88D-12 OVMax= 2.61D-07

 Cycle  12  Pass 1  IDiag  1:
 E= -191.791027578015     Delta-E=        0.000000000001 Rises=F Damp=F
 DIIS: error= 5.10D-09 at cycle  12 NSaved=  12.
 NSaved=12 IEnMin=11 EnMin= -191.791027578016     IErMin=12 ErrMin= 5.10D-09
 ErrMax= 5.10D-09  0.00D+00 EMaxC= 1.00D-01 BMatC= 7.44D-16 BMatP= 2.47D-14
 IDIUse=1 WtCom= 1.00D+00 WtEn= 0.00D+00
 Coeff-Com:  0.217D-06-0.122D-04-0.370D-05 0.913D-04 0.206D-03-0.991D-03
 Coeff-Com: -0.534D-03 0.308D-02 0.529D-02 0.353D-02-0.246D+00 0.124D+01
 Coeff:      0.217D-06-0.122D-04-0.370D-05 0.913D-04 0.206D-03-0.991D-03
 Coeff:     -0.534D-03 0.308D-02 0.529D-02 0.353D-02-0.246D+00 0.124D+01
 Gap=     0.347 Goal=   None    Shift=    0.000
 RMSDP=4.46D-09 MaxDP=7.57D-08 DE= 1.48D-12 OVMax= 5.12D-08

 SCF Done:  E(RwB97XD) =  -191.791027578     A.U. after   12 cycles
            NFock= 12  Conv=0.45D-08     -V/T= 2.0058
 KE= 1.906884938156D+02 PE=-6.525859989393D+02 EE= 1.675135030161D+02
 Leave Link  502 at Wed May 12 11:58:27 2021, MaxMem=  2147483648 cpu:         8.1
 (Enter /opt/cluster/programs/g09_d.01/g09/l701.exe)
 Compute integral first derivatives.
 ... and contract with generalized density number  0.
 R6Disp: Adding Grimme-D2 dispersion energy 1st derivatives to the gradient.
 Leave Link  701 at Wed May 12 11:58:27 2021, MaxMem=  2147483648 cpu:         0.5
 (Enter /opt/cluster/programs/g09_d.01/g09/l702.exe)
 L702 exits ... SP integral derivatives will be done elsewhere.
 Leave Link  702 at Wed May 12 11:58:27 2021, MaxMem=  2147483648 cpu:         0.2
 (Enter /opt/cluster/programs/g09_d.01/g09/l703.exe)
 Compute integral first derivatives, UseDBF=F ICtDFT=           0.
 Integral derivatives from FoFJK, PRISM(SPDF).
 Calling FoFJK, ICntrl=      2127 FMM=F ISym2X=0 I1Cent= 0 IOpClX= 0 NMat=1 NMatS=1 NMatT=0.
 FoFJK:  IHMeth= 1 ICntrl=    2127 DoSepK=T KAlg= 0 I1Cent=   0 FoldK=F
 IRaf=         1 NMat=   1 IRICut=       1 DoRegI=T DoRafI=F ISym2E= 0.
 FoFCou: FMM=F IPFlag=           0 FMFlag=      100000 FMFlg1=         800
         NFxFlg=           0 DoJE=F BraDBF=F KetDBF=F FulRan=T
         wScrn=  0.000000 ICntrl=    2527 IOpCl=  0 I1Cent=           0 NGrid=           0
         NMat0=    1 NMatS0=      1 NMatT0=    0 NMatD0=    1 NMtDS0=    0 NMtDT0=    0
 Symmetry not used in FoFCou.
 Leave Link  703 at Wed May 12 11:58:28 2021, MaxMem=  2147483648 cpu:         2.4
 (Enter /opt/cluster/programs/g09_d.01/g09/l716.exe)
 Dipole        = 1.34886025D+00 3.28854095D-01 2.74226600D-01
 ***** Axes restored to original set *****
 -------------------------------------------------------------------
 Center     Atomic                   Forces (Hartrees/Bohr)
 Number     Number              X              Y              Z
 -------------------------------------------------------------------
      1        6           0.001651859    0.001653394    0.005549876
      2        6          -0.001403273   -0.003602174   -0.005467021
      3        6          -0.000017892    0.003173781   -0.005881999
      4        8          -0.000592031   -0.001645065    0.005972592
      5        1           0.000345510    0.000217835   -0.000139559
      6        1           0.000159186    0.000077538   -0.000144332
      7        1           0.000066656   -0.000010583   -0.000035261
      8        1          -0.000210014    0.000135274    0.000145704
 -------------------------------------------------------------------
 Cartesian Forces:  Max     0.005972592 RMS     0.002620626
 Leave Link  716 at Wed May 12 11:58:28 2021, MaxMem=  2147483648 cpu:         0.2
 (Enter /opt/cluster/programs/g09_d.01/g09/l103.exe)

 GradGradGradGradGradGradGradGradGradGradGradGradGradGradGradGradGradGrad
 Berny optimization.
 Using GEDIIS/GDIIS optimizer.
 FormGI is forming the generalized inverse of G from B-inverse, IUseBI=4.
 Internal  Forces:  Max     0.007559418 RMS     0.002004549
 Search for a local minimum.
 Step number   2 out of a maximum of   34
 All quantities printed in internal units (Hartrees-Bohrs-Radians)
 RMS Force = .42605D-03 SwitMx=.10000D-02 MixMth= 2
 Mixed Optimization -- En-DIIS/RFO-DIIS
 Update second derivatives using D2CorX and points    1    2
 DE= -1.22D-04 DEPred=-1.31D-04 R= 9.32D-01
 TightC=F SS=  1.41D+00  RLast= 4.53D-02 DXNew= 5.0454D-01 1.3586D-01
 Trust test= 9.32D-01 RLast= 4.53D-02 DXMaxT set to 3.00D-01
 ITU=  1  0
 Use linear search instead of GDIIS.
     Eigenvalues ---    0.01183   0.01797   0.02816   0.02844   0.15849
     Eigenvalues ---    0.15988   0.16000   0.16268   0.21934   0.22752
     Eigenvalues ---    0.33127   0.34839   0.35014   0.35278   0.35888
     Eigenvalues ---    0.61283   0.776111000.000001000.000001000.00000
     Eigenvalues --- 1000.000001000.000001000.000001000.00000
 RFO step:  Lambda=-1.84646497D-05 EMin= 1.18323998D-02
 Quartic linear search produced a step of -0.06277.
 Iteration  1 RMS(Cart)=  0.00483046 RMS(Int)=  0.00004309
 Iteration  2 RMS(Cart)=  0.00003418 RMS(Int)=  0.00002108
 Iteration  3 RMS(Cart)=  0.00000000 RMS(Int)=  0.00002108
 Iteration  1 RMS(Cart)=  0.00000020 RMS(Int)=  0.00000015
 ITry= 1 IFail=0 DXMaxC= 1.49D-02 DCOld= 1.00D+10 DXMaxT= 3.00D-01 DXLimC= 3.00D+00 Rises=F
 Variable       Old X    -DE/DX   Delta X   Delta X   Delta X     New X
                                 (Linear)    (Quad)   (Total)
    R1        2.52945   0.00107   0.00074   0.00021   0.00095   2.53040
    R2        2.04899   0.00011   0.00012   0.00003   0.00015   2.04914
    R3        2.05577   0.00001   0.00006  -0.00011  -0.00005   2.05572
    R4        2.78544   0.00113   0.00011   0.00277   0.00288   2.78832
    R5        2.05370  -0.00010   0.00013  -0.00054  -0.00042   2.05329
    R6        2.33666  -0.00087   0.00075  -0.00255  -0.00180   2.33486
    R7        2.08373   0.00018   0.00027  -0.00005   0.00022   2.08395
    A1        2.12568   0.00021   0.00014   0.00095   0.00108   2.12676
    A2        2.12180  -0.00004   0.00005  -0.00034  -0.00029   2.12152
    A3        2.03570  -0.00017  -0.00019  -0.00061  -0.00080   2.03490
    A4        2.10938   0.00032   0.00035   0.00029   0.00064   2.11002
    A5        2.12261   0.00062  -0.00020   0.00191   0.00170   2.12430
    A6        2.03846  -0.00048  -0.00031  -0.00090  -0.00121   2.03725
    A7        2.14877   0.00063   0.00026   0.00109   0.00129   2.15006
    A8        2.03716  -0.00040  -0.00032  -0.00279  -0.00316   2.03399
    A9        2.09388   0.00022  -0.00001   0.00020   0.00013   2.09401
    D1       -3.01309  -0.00147   0.00093  -0.00227  -0.00134  -3.01444
    D2       -0.04781   0.00165  -0.00012   0.00657   0.00646  -0.04135
    D3        0.12740  -0.00157   0.00079  -0.00529  -0.00450   0.12290
    D4        3.09268   0.00155  -0.00026   0.00356   0.00330   3.09598
    D5        2.44348   0.00756   0.00000   0.00000   0.00000   2.44348
    D6       -0.60965   0.00176   0.00078   0.01961   0.02039  -0.58927
    D7       -0.52999   0.00449   0.00100  -0.00870  -0.00770  -0.53769
    D8        2.70006  -0.00132   0.00178   0.01090   0.01269   2.71275
         Item               Value     Threshold  Converged?
 Maximum Force            0.001130     0.000450     NO 
 RMS     Force            0.000426     0.000300     NO 
 Maximum Displacement     0.014944     0.001800     NO 
 RMS     Displacement     0.004833     0.001200     NO 
 Predicted change in Energy=-9.798780D-06
 Lowest energy point so far.  Saving SCF results.
 GradGradGradGradGradGradGradGradGradGradGradGradGradGradGradGradGradGrad

 Leave Link  103 at Wed May 12 11:58:28 2021, MaxMem=  2147483648 cpu:         0.0
 (Enter /opt/cluster/programs/g09_d.01/g09/l202.exe)
                          Input orientation:                          
 ---------------------------------------------------------------------
 Center     Atomic      Atomic             Coordinates (Angstroms)
 Number     Number       Type             X           Y           Z
 ---------------------------------------------------------------------
      1          6           0        1.735661    0.149891   -0.140432
      2          6           0        0.575728   -0.435218    0.183923
      3          6           0       -0.683321    0.334054    0.196830
      4          8           0       -1.756398   -0.118004   -0.216382
      5          1           0       -0.611439    1.391696    0.500716
      6          1           0        2.648614   -0.421101   -0.268174
      7          1           0        1.808048    1.224530   -0.293109
      8          1           0        0.491232   -1.512655    0.296120
 ---------------------------------------------------------------------
                    Distance matrix (angstroms):
                    1          2          3          4          5
     1  C    0.000000
     2  C    1.339031   0.000000
     3  C    2.449313   1.475517   0.000000
     4  O    3.503143   2.387401   1.235555   0.000000
     5  H    2.731672   2.201667   1.102778   2.025921   0.000000
     6  H    1.084358   2.121662   3.447938   4.415732   3.808592
     7  H    1.087842   2.121541   2.690707   3.809667   2.551866
     8  H    2.122083   1.086553   2.190837   2.694355   3.113357
                    6          7          8
     6  H    0.000000
     7  H    1.848046   0.000000
     8  H    2.482784   3.094087   0.000000
 Stoichiometry    C3H4O
 Framework group  C1[X(C3H4O)]
 Deg. of freedom    18
 Full point group                 C1      NOp   1
 RotChk:  IX=0 Diff= 8.57D-04
 Largest Abelian subgroup         C1      NOp   1
 Largest concise Abelian subgroup C1      NOp   1
                         Standard orientation:                         
 ---------------------------------------------------------------------
 Center     Atomic      Atomic             Coordinates (Angstroms)
 Number     Number       Type             X           Y           Z
 ---------------------------------------------------------------------
      1          6           0        1.733410    0.154093   -0.138700
      2          6           0        0.575244   -0.434682    0.185334
      3          6           0       -0.686073    0.330854    0.198925
      4          8           0       -1.757849   -0.124073   -0.214518
      5          1           0       -0.617290    1.388480    0.503581
      6          1           0        2.648036   -0.414101   -0.266947
      7          1           0        1.802604    1.229054   -0.290594
      8          1           0        0.493946   -1.512446    0.296747
 ---------------------------------------------------------------------
 Rotational constants (GHZ):     40.8169947      4.6750775      4.3638663
 Leave Link  202 at Wed May 12 11:58:28 2021, MaxMem=  2147483648 cpu:         0.0
 (Enter /opt/cluster/programs/g09_d.01/g09/l301.exe)
 Standard basis: 6-31+G (6D, 7F)
 Ernie: Thresh=  0.10000D-02 Tol=  0.10000D-05 Strict=F.
 There are    60 symmetry adapted cartesian basis functions of A   symmetry.
 There are    60 symmetry adapted basis functions of A   symmetry.
    60 basis functions,   120 primitive gaussians,    60 cartesian basis functions
    15 alpha electrons       15 beta electrons
       nuclear repulsion energy       102.5734071081 Hartrees.
 IExCor= 4639 DFT=T Ex+Corr=wB97XD ExCW=0 ScaHFX=  1.000000
 ScaDFX=  1.000000  1.000000  1.000000  1.000000 ScalE2=  1.000000  1.000000
 IRadAn=      0 IRanWt=     -1 IRanGd=            0 ICorTp=0 IEmpDi=121
  HFx wShort=  0.000000 wLong=  0.200000 cFull=  0.222036 cShort=  0.000000 cLong=  0.777964
  DFx wShort=  0.000000 wLong=  0.200000 cFull=  0.000000 cShort=  0.000000 cLong=  1.000000
 NAtoms=    8 NActive=    8 NUniq=    8 SFac= 1.00D+00 NAtFMM=   60 NAOKFM=F Big=F
 Integral buffers will be    131072 words long.
 Raffenetti 2 integral format.
 Two-electron integral symmetry is turned on.
 R6Disp:  Grimme-D2 Dispersion energy=       -0.0018191245 Hartrees.
 Nuclear repulsion after empirical dispersion term =      102.5715879836 Hartrees.
 Leave Link  301 at Wed May 12 11:58:28 2021, MaxMem=  2147483648 cpu:         0.3
 (Enter /opt/cluster/programs/g09_d.01/g09/l302.exe)
 NPDir=0 NMtPBC=     1 NCelOv=     1 NCel=       1 NClECP=     1 NCelD=      1
         NCelK=      1 NCelE2=     1 NClLst=     1 CellRange=     0.0.
 One-electron integrals computed using PRISM.
 NBasis=    60 RedAO= T EigKep=  1.36D-04  NBF=    60
 NBsUse=    60 1.00D-06 EigRej= -1.00D+00 NBFU=    60
 Precomputing XC quadrature grid using
 IXCGrd= 4 IRadAn=           0 IRanWt=          -1 IRanGd=           0 AccXCQ= 0.00D+00.
 Generated NRdTot=       0 NPtTot=           0 NUsed=           0 NTot=          32
 NSgBfM=    60    60    60    60    60 MxSgAt=     8 MxSgA2=     8.
 Leave Link  302 at Wed May 12 11:58:28 2021, MaxMem=  2147483648 cpu:         0.8
 (Enter /opt/cluster/programs/g09_d.01/g09/l303.exe)
 DipDrv:  MaxL=1.
 Leave Link  303 at Wed May 12 11:58:28 2021, MaxMem=  2147483648 cpu:         0.2
 (Enter /opt/cluster/programs/g09_d.01/g09/l401.exe)
 Initial guess from the checkpoint file:  "/home/unibas/boittier/RDKit_G2/L.pdb/SCAN_1_2_3_4_S_17_20.0/16_SCAN_1_2_3_4_F/L.pdb.chk"
 B after Tr=     0.000000    0.000000    0.000000
         Rot=    1.000000   -0.000919   -0.000031    0.000018 Ang=  -0.11 deg.
 Guess basis will be translated and rotated to current coordinates.
 JPrj=2 DoOrth=T DoCkMO=T.
 Leave Link  401 at Wed May 12 11:58:28 2021, MaxMem=  2147483648 cpu:         0.6
 (Enter /opt/cluster/programs/g09_d.01/g09/l502.exe)
 Closed shell SCF:
 Using DIIS extrapolation, IDIIS=  1040.
 Integral symmetry usage will be decided dynamically.
 Keep R1 ints in memory in canonical form, NReq=4262490.
 IVT=       30290 IEndB=       30290 NGot=  2147483648 MDV=  2144102629
 LenX=  2144102629 LenY=  2144098588
 Requested convergence on RMS density matrix=1.00D-08 within 128 cycles.
 Requested convergence on MAX density matrix=1.00D-06.
 Requested convergence on             energy=1.00D-06.
 No special actions if energy rises.
 FoFCou: FMM=F IPFlag=           0 FMFlag=           0 FMFlg1=           0
         NFxFlg=           0 DoJE=F BraDBF=F KetDBF=F FulRan=T
         wScrn=  0.000000 ICntrl=     600 IOpCl=  0 I1Cent=           0 NGrid=           0
         NMat0=    1 NMatS0=   1830 NMatT0=    0 NMatD0=    1 NMtDS0=    0 NMtDT0=    0
 Symmetry not used in FoFCou.

 Cycle   1  Pass 1  IDiag  1:
 E= -191.791004862446    
 DIIS: error= 3.68D-04 at cycle   1 NSaved=   1.
 NSaved= 1 IEnMin= 1 EnMin= -191.791004862446     IErMin= 1 ErrMin= 3.68D-04
 ErrMax= 3.68D-04  0.00D+00 EMaxC= 1.00D-01 BMatC= 9.38D-06 BMatP= 9.38D-06
 IDIUse=3 WtCom= 9.96D-01 WtEn= 3.68D-03
 Coeff-Com:  0.100D+01
 Coeff-En:   0.100D+01
 Coeff:      0.100D+01
 Gap=     0.617 Goal=   None    Shift=    0.000
 RMSDP=1.38D-04 MaxDP=1.06D-03              OVMax= 1.43D-03

 Cycle   2  Pass 1  IDiag  1:
 E= -191.791023156679     Delta-E=       -0.000018294234 Rises=F Damp=F
 DIIS: error= 1.02D-04 at cycle   2 NSaved=   2.
 NSaved= 2 IEnMin= 2 EnMin= -191.791023156679     IErMin= 2 ErrMin= 1.02D-04
 ErrMax= 1.02D-04  0.00D+00 EMaxC= 1.00D-01 BMatC= 8.60D-07 BMatP= 9.38D-06
 IDIUse=3 WtCom= 9.99D-01 WtEn= 1.02D-03
 Coeff-Com: -0.542D-01 0.105D+01
 Coeff-En:   0.000D+00 0.100D+01
 Coeff:     -0.541D-01 0.105D+01
 Gap=     0.347 Goal=   None    Shift=    0.000
 RMSDP=4.89D-05 MaxDP=5.17D-04 DE=-1.83D-05 OVMax= 8.50D-04

 Cycle   3  Pass 1  IDiag  1:
 E= -191.791024159221     Delta-E=       -0.000001002542 Rises=F Damp=F
 DIIS: error= 1.20D-04 at cycle   3 NSaved=   3.
 NSaved= 3 IEnMin= 3 EnMin= -191.791024159221     IErMin= 2 ErrMin= 1.02D-04
 ErrMax= 1.20D-04  0.00D+00 EMaxC= 1.00D-01 BMatC= 1.26D-06 BMatP= 8.60D-07
 IDIUse=3 WtCom= 4.77D-01 WtEn= 5.23D-01
 Coeff-Com: -0.120D+00 0.642D+00 0.478D+00
 Coeff-En:   0.000D+00 0.000D+00 0.100D+01
 Coeff:     -0.575D-01 0.306D+00 0.751D+00
 Gap=     0.347 Goal=   None    Shift=    0.000
 RMSDP=3.64D-05 MaxDP=4.05D-04 DE=-1.00D-06 OVMax= 4.38D-04

 Cycle   4  Pass 1  IDiag  1:
 E= -191.791024600770     Delta-E=       -0.000000441549 Rises=F Damp=F
 DIIS: error= 1.04D-04 at cycle   4 NSaved=   4.
 NSaved= 4 IEnMin= 4 EnMin= -191.791024600770     IErMin= 2 ErrMin= 1.02D-04
 ErrMax= 1.04D-04  0.00D+00 EMaxC= 1.00D-01 BMatC= 9.65D-07 BMatP= 8.60D-07
 IDIUse=3 WtCom= 4.95D-01 WtEn= 5.05D-01
 Coeff-Com: -0.106D-01-0.925D-01 0.489D+00 0.614D+00
 Coeff-En:   0.000D+00 0.000D+00 0.387D+00 0.613D+00
 Coeff:     -0.526D-02-0.458D-01 0.437D+00 0.614D+00
 Gap=     0.347 Goal=   None    Shift=    0.000
 RMSDP=1.97D-05 MaxDP=2.63D-04 DE=-4.42D-07 OVMax= 2.88D-04

 Cycle   5  Pass 1  IDiag  1:
 E= -191.791025379558     Delta-E=       -0.000000778788 Rises=F Damp=F
 DIIS: error= 2.24D-05 at cycle   5 NSaved=   5.
 NSaved= 5 IEnMin= 5 EnMin= -191.791025379558     IErMin= 5 ErrMin= 2.24D-05
 ErrMax= 2.24D-05  0.00D+00 EMaxC= 1.00D-01 BMatC= 3.34D-08 BMatP= 8.60D-07
 IDIUse=1 WtCom= 1.00D+00 WtEn= 0.00D+00
 Coeff-Com:  0.183D-01-0.156D+00 0.347D-01 0.279D+00 0.824D+00
 Coeff:      0.183D-01-0.156D+00 0.347D-01 0.279D+00 0.824D+00
 Gap=     0.347 Goal=   None    Shift=    0.000
 RMSDP=6.91D-06 MaxDP=5.62D-05 DE=-7.79D-07 OVMax= 2.22D-04

 Cycle   6  Pass 1  IDiag  1:
 E= -191.791025446392     Delta-E=       -0.000000066834 Rises=F Damp=F
 DIIS: error= 1.08D-05 at cycle   6 NSaved=   6.
 NSaved= 6 IEnMin= 6 EnMin= -191.791025446392     IErMin= 6 ErrMin= 1.08D-05
 ErrMax= 1.08D-05  0.00D+00 EMaxC= 1.00D-01 BMatC= 1.64D-09 BMatP= 3.34D-08
 IDIUse=1 WtCom= 1.00D+00 WtEn= 0.00D+00
 Coeff-Com:  0.472D-02 0.215D-02-0.109D+00-0.106D+00 0.785D-01 0.113D+01
 Coeff:      0.472D-02 0.215D-02-0.109D+00-0.106D+00 0.785D-01 0.113D+01
 Gap=     0.347 Goal=   None    Shift=    0.000
 RMSDP=4.06D-06 MaxDP=3.53D-05 DE=-6.68D-08 OVMax= 1.46D-04

 Cycle   7  Pass 1  IDiag  1:
 E= -191.791025459077     Delta-E=       -0.000000012685 Rises=F Damp=F
 DIIS: error= 3.38D-06 at cycle   7 NSaved=   7.
 NSaved= 7 IEnMin= 7 EnMin= -191.791025459077     IErMin= 7 ErrMin= 3.38D-06
 ErrMax= 3.38D-06  0.00D+00 EMaxC= 1.00D-01 BMatC= 4.74D-10 BMatP= 1.64D-09
 IDIUse=1 WtCom= 1.00D+00 WtEn= 0.00D+00
 Coeff-Com: -0.204D-02 0.345D-01-0.543D-01-0.104D+00-0.140D+00 0.487D+00
 Coeff-Com:  0.779D+00
 Coeff:     -0.204D-02 0.345D-01-0.543D-01-0.104D+00-0.140D+00 0.487D+00
 Coeff:      0.779D+00
 Gap=     0.347 Goal=   None    Shift=    0.000
 RMSDP=1.43D-06 MaxDP=1.29D-05 DE=-1.27D-08 OVMax= 5.20D-05

 Cycle   8  Pass 1  IDiag  1:
 E= -191.791025460876     Delta-E=       -0.000000001799 Rises=F Damp=F
 DIIS: error= 9.78D-07 at cycle   8 NSaved=   8.
 NSaved= 8 IEnMin= 8 EnMin= -191.791025460876     IErMin= 8 ErrMin= 9.78D-07
 ErrMax= 9.78D-07  0.00D+00 EMaxC= 1.00D-01 BMatC= 2.37D-11 BMatP= 4.74D-10
 IDIUse=1 WtCom= 1.00D+00 WtEn= 0.00D+00
 Coeff-Com: -0.502D-03-0.191D-02 0.177D-01 0.190D-01-0.568D-03-0.196D+00
 Coeff-Com: -0.254D-01 0.119D+01
 Coeff:     -0.502D-03-0.191D-02 0.177D-01 0.190D-01-0.568D-03-0.196D+00
 Coeff:     -0.254D-01 0.119D+01
 Gap=     0.347 Goal=   None    Shift=    0.000
 RMSDP=5.41D-07 MaxDP=4.49D-06 DE=-1.80D-09 OVMax= 1.70D-05

 Cycle   9  Pass 1  IDiag  1:
 E= -191.791025461026     Delta-E=       -0.000000000150 Rises=F Damp=F
 DIIS: error= 2.01D-07 at cycle   9 NSaved=   9.
 NSaved= 9 IEnMin= 9 EnMin= -191.791025461026     IErMin= 9 ErrMin= 2.01D-07
 ErrMax= 2.01D-07  0.00D+00 EMaxC= 1.00D-01 BMatC= 7.52D-13 BMatP= 2.37D-11
 IDIUse=1 WtCom= 1.00D+00 WtEn= 0.00D+00
 Coeff-Com:  0.111D-03-0.158D-02 0.193D-02 0.417D-02 0.642D-02-0.120D-01
 Coeff-Com: -0.436D-01-0.520D-01 0.110D+01
 Coeff:      0.111D-03-0.158D-02 0.193D-02 0.417D-02 0.642D-02-0.120D-01
 Coeff:     -0.436D-01-0.520D-01 0.110D+01
 Gap=     0.347 Goal=   None    Shift=    0.000
 RMSDP=7.57D-08 MaxDP=7.20D-07 DE=-1.50D-10 OVMax= 1.57D-06

 Cycle  10  Pass 1  IDiag  1:
 E= -191.791025461031     Delta-E=       -0.000000000004 Rises=F Damp=F
 DIIS: error= 4.82D-08 at cycle  10 NSaved=  10.
 NSaved=10 IEnMin=10 EnMin= -191.791025461031     IErMin=10 ErrMin= 4.82D-08
 ErrMax= 4.82D-08  0.00D+00 EMaxC= 1.00D-01 BMatC= 6.41D-14 BMatP= 7.52D-13
 IDIUse=1 WtCom= 1.00D+00 WtEn= 0.00D+00
 Coeff-Com:  0.499D-04-0.153D-03-0.769D-03-0.453D-03 0.124D-02 0.998D-02
 Coeff-Com: -0.645D-02-0.777D-01 0.174D+00 0.900D+00
 Coeff:      0.499D-04-0.153D-03-0.769D-03-0.453D-03 0.124D-02 0.998D-02
 Coeff:     -0.645D-02-0.777D-01 0.174D+00 0.900D+00
 Gap=     0.347 Goal=   None    Shift=    0.000
 RMSDP=1.82D-08 MaxDP=2.44D-07 DE=-4.21D-12 OVMax= 2.53D-07

 Cycle  11  Pass 1  IDiag  1:
 E= -191.791025461030     Delta-E=        0.000000000000 Rises=F Damp=F
 DIIS: error= 1.31D-08 at cycle  11 NSaved=  11.
 NSaved=11 IEnMin=10 EnMin= -191.791025461031     IErMin=11 ErrMin= 1.31D-08
 ErrMax= 1.31D-08  0.00D+00 EMaxC= 1.00D-01 BMatC= 5.50D-15 BMatP= 6.41D-14
 IDIUse=1 WtCom= 1.00D+00 WtEn= 0.00D+00
 Coeff-Com: -0.359D-05 0.120D-03-0.276D-03-0.453D-03-0.373D-03 0.235D-02
 Coeff-Com:  0.288D-02-0.492D-02-0.812D-01 0.124D+00 0.958D+00
 Coeff:     -0.359D-05 0.120D-03-0.276D-03-0.453D-03-0.373D-03 0.235D-02
 Coeff:      0.288D-02-0.492D-02-0.812D-01 0.124D+00 0.958D+00
 Gap=     0.347 Goal=   None    Shift=    0.000
 RMSDP=9.89D-09 MaxDP=1.42D-07 DE= 3.41D-13 OVMax= 7.17D-08

 SCF Done:  E(RwB97XD) =  -191.791025461     A.U. after   11 cycles
            NFock= 11  Conv=0.99D-08     -V/T= 2.0058
 KE= 1.906870368272D+02 PE=-6.525396736507D+02 EE= 1.674900233788D+02
 Leave Link  502 at Wed May 12 11:58:29 2021, MaxMem=  2147483648 cpu:         7.4
 (Enter /opt/cluster/programs/g09_d.01/g09/l701.exe)
 Compute integral first derivatives.
 ... and contract with generalized density number  0.
 R6Disp: Adding Grimme-D2 dispersion energy 1st derivatives to the gradient.
 Leave Link  701 at Wed May 12 11:58:29 2021, MaxMem=  2147483648 cpu:         0.6
 (Enter /opt/cluster/programs/g09_d.01/g09/l702.exe)
 L702 exits ... SP integral derivatives will be done elsewhere.
 Leave Link  702 at Wed May 12 11:58:29 2021, MaxMem=  2147483648 cpu:         0.2
 (Enter /opt/cluster/programs/g09_d.01/g09/l703.exe)
 Compute integral first derivatives, UseDBF=F ICtDFT=           0.
 Integral derivatives from FoFJK, PRISM(SPDF).
 Calling FoFJK, ICntrl=      2127 FMM=F ISym2X=0 I1Cent= 0 IOpClX= 0 NMat=1 NMatS=1 NMatT=0.
 FoFJK:  IHMeth= 1 ICntrl=    2127 DoSepK=T KAlg= 0 I1Cent=   0 FoldK=F
 IRaf=         1 NMat=   1 IRICut=       1 DoRegI=T DoRafI=F ISym2E= 0.
 FoFCou: FMM=F IPFlag=           0 FMFlag=      100000 FMFlg1=         800
         NFxFlg=           0 DoJE=F BraDBF=F KetDBF=F FulRan=T
         wScrn=  0.000000 ICntrl=    2527 IOpCl=  0 I1Cent=           0 NGrid=           0
         NMat0=    1 NMatS0=      1 NMatT0=    0 NMatD0=    1 NMtDS0=    0 NMtDT0=    0
 Symmetry not used in FoFCou.
 Leave Link  703 at Wed May 12 11:58:29 2021, MaxMem=  2147483648 cpu:         2.4
 (Enter /opt/cluster/programs/g09_d.01/g09/l716.exe)
 Dipole        = 1.34752267D+00 3.26640462D-01 2.73155102D-01
 ***** Axes restored to original set *****
 -------------------------------------------------------------------
 Center     Atomic                   Forces (Hartrees/Bohr)
 Number     Number              X              Y              Z
 -------------------------------------------------------------------
      1        6           0.000901908    0.001378534    0.005339550
      2        6          -0.001717570   -0.003203860   -0.004424026
      3        6           0.002443918    0.004254810   -0.007724011
      4        8          -0.001722385   -0.002470513    0.006270469
      5        1           0.000070694    0.000056935    0.000645375
      6        1           0.000041430    0.000002883   -0.000052813
      7        1           0.000032272    0.000045870    0.000022269
      8        1          -0.000050267   -0.000064659   -0.000076814
 -------------------------------------------------------------------
 Cartesian Forces:  Max     0.007724011 RMS     0.002861979
 Leave Link  716 at Wed May 12 11:58:29 2021, MaxMem=  2147483648 cpu:         0.2
 (Enter /opt/cluster/programs/g09_d.01/g09/l103.exe)

 GradGradGradGradGradGradGradGradGradGradGradGradGradGradGradGradGradGrad
 Berny optimization.
 Using GEDIIS/GDIIS optimizer.
 FormGI is forming the generalized inverse of G from B-inverse, IUseBI=4.
 Internal  Forces:  Max     0.008193070 RMS     0.002139542
 Search for a local minimum.
 Step number   3 out of a maximum of   34
 All quantities printed in internal units (Hartrees-Bohrs-Radians)
 RMS Force = .24619D-03 SwitMx=.10000D-02 MixMth= 2
 Mixed Optimization -- En-DIIS/RFO-DIIS
 Swapping is turned off.
 Update second derivatives using D2CorX and points    1    2    3
 DE=  2.12D-06 DEPred=-9.80D-06 R=-2.16D-01
 Trust test=-2.16D-01 RLast= 2.72D-02 DXMaxT set to 1.50D-01
 ITU= -1  1  0
     Eigenvalues ---    0.01494   0.02785   0.02819   0.04828   0.14308
     Eigenvalues ---    0.15966   0.16015   0.16026   0.20934   0.22631
     Eigenvalues ---    0.30516   0.33415   0.35012   0.35157   0.35430
     Eigenvalues ---    0.60717   0.698621000.000001000.000001000.00000
     Eigenvalues --- 1000.000001000.000001000.000001000.00000
 En-DIIS/RFO-DIIS IScMMF=        0 using points:     3    2
 RFO step:  Lambda=-8.43995395D-06.
 NNeg= 0 NP= 2 Switch=  2.50D-03 Rises=F DC= -2.12D-06 SmlDif=  1.00D-05
 RMS Error=  0.9420300673D-03 NUsed= 2 EDIIS=F
 DidBck=T Rises=F RFO-DIIS coefs:    0.45215    0.54785
 Iteration  1 RMS(Cart)=  0.00382768 RMS(Int)=  0.00002428
 Iteration  2 RMS(Cart)=  0.00002385 RMS(Int)=  0.00000314
 Iteration  3 RMS(Cart)=  0.00000000 RMS(Int)=  0.00000314
 Iteration  1 RMS(Cart)=  0.00000116 RMS(Int)=  0.00000084
 Iteration  2 RMS(Cart)=  0.00000044 RMS(Int)=  0.00000094
 ITry= 1 IFail=0 DXMaxC= 1.25D-02 DCOld= 1.00D+10 DXMaxT= 1.50D-01 DXLimC= 3.00D+00 Rises=F
 Variable       Old X    -DE/DX   Delta X   Delta X   Delta X     New X
                                 (Linear)    (Quad)   (Total)
    R1        2.53040   0.00019  -0.00052   0.00080   0.00028   2.53068
    R2        2.04914   0.00004  -0.00008   0.00014   0.00006   2.04920
    R3        2.05572   0.00005   0.00003  -0.00001   0.00002   2.05574
    R4        2.78832   0.00027  -0.00158   0.00309   0.00151   2.78984
    R5        2.05329   0.00006   0.00023  -0.00038  -0.00015   2.05314
    R6        2.33486   0.00030   0.00098  -0.00187  -0.00089   2.33397
    R7        2.08395   0.00023  -0.00012   0.00041   0.00029   2.08424
    A1        2.12676   0.00005  -0.00059   0.00115   0.00056   2.12732
    A2        2.12152  -0.00001   0.00016  -0.00033  -0.00017   2.12134
    A3        2.03490  -0.00004   0.00044  -0.00083  -0.00039   2.03451
    A4        2.11002  -0.00005  -0.00035  -0.00009  -0.00043   2.10959
    A5        2.12430   0.00055  -0.00093   0.00149   0.00056   2.12487
    A6        2.03725  -0.00009   0.00066  -0.00136  -0.00069   2.03656
    A7        2.15006   0.00046  -0.00071   0.00214   0.00142   2.15148
    A8        2.03399  -0.00004   0.00173  -0.00277  -0.00105   2.03295
    A9        2.09401   0.00027  -0.00007   0.00113   0.00106   2.09507
    D1       -3.01444  -0.00141   0.00074   0.00292   0.00366  -3.01078
    D2       -0.04135   0.00150  -0.00354   0.00313  -0.00041  -0.04176
    D3        0.12290  -0.00141   0.00246  -0.00013   0.00234   0.12524
    D4        3.09598   0.00150  -0.00181   0.00008  -0.00173   3.09425
    D5        2.44348   0.00819   0.00000   0.00000   0.00000   2.44348
    D6       -0.58927   0.00085  -0.01117  -0.00528  -0.01645  -0.60572
    D7       -0.53769   0.00536   0.00422  -0.00045   0.00376  -0.53393
    D8        2.71275  -0.00197  -0.00695  -0.00574  -0.01269   2.70005
         Item               Value     Threshold  Converged?
 Maximum Force            0.000739     0.000450     NO 
 RMS     Force            0.000246     0.000300     YES
 Maximum Displacement     0.012540     0.001800     NO 
 RMS     Displacement     0.003833     0.001200     NO 
 Predicted change in Energy=-1.058396D-05
 GradGradGradGradGradGradGradGradGradGradGradGradGradGradGradGradGradGrad

 Leave Link  103 at Wed May 12 11:58:29 2021, MaxMem=  2147483648 cpu:         0.0
 (Enter /opt/cluster/programs/g09_d.01/g09/l202.exe)
                          Input orientation:                          
 ---------------------------------------------------------------------
 Center     Atomic      Atomic             Coordinates (Angstroms)
 Number     Number       Type             X           Y           Z
 ---------------------------------------------------------------------
      1          6           0        1.736413    0.149647   -0.140821
      2          6           0        0.576301   -0.434602    0.185057
      3          6           0       -0.683525    0.335004    0.192794
      4          8           0       -1.756447   -0.117449   -0.218984
      5          1           0       -0.613507    1.389807    0.507352
      6          1           0        2.649419   -0.421386   -0.268278
      7          1           0        1.808677    1.223897   -0.296341
      8          1           0        0.490793   -1.511725    0.298713
 ---------------------------------------------------------------------
                    Distance matrix (angstroms):
                    1          2          3          4          5
     1  C    0.000000
     2  C    1.339180   0.000000
     3  C    2.449849   1.476318   0.000000
[...]
 Coeff:      0.158D+00 0.969D+00
 Gap=     0.347 Goal=   None    Shift=    0.000
 RMSDP=1.03D-07 MaxDP=1.06D-06 DE=-3.67D-11 OVMax= 2.79D-06

 Cycle   9  Pass 1  IDiag  1:
 E= -191.791035089161     Delta-E=       -0.000000000006 Rises=F Damp=F
 DIIS: error= 6.97D-08 at cycle   9 NSaved=   9.
 NSaved= 9 IEnMin= 9 EnMin= -191.791035089161     IErMin= 9 ErrMin= 6.97D-08
 ErrMax= 6.97D-08  0.00D+00 EMaxC= 1.00D-01 BMatC= 2.62D-13 BMatP= 1.04D-12
 IDIUse=1 WtCom= 1.00D+00 WtEn= 0.00D+00
 Coeff-Com: -0.188D-04-0.184D-02 0.166D-02 0.101D-01 0.255D-01-0.119D+00
 Coeff-Com: -0.859D-01 0.416D+00 0.754D+00
 Coeff:     -0.188D-04-0.184D-02 0.166D-02 0.101D-01 0.255D-01-0.119D+00
 Coeff:     -0.859D-01 0.416D+00 0.754D+00
 Gap=     0.347 Goal=   None    Shift=    0.000
 RMSDP=2.85D-08 MaxDP=3.36D-07 DE=-5.91D-12 OVMax= 7.30D-07

 Cycle  10  Pass 1  IDiag  1:
 E= -191.791035089162     Delta-E=        0.000000000000 Rises=F Damp=F
 DIIS: error= 1.74D-08 at cycle  10 NSaved=  10.
 NSaved=10 IEnMin=10 EnMin= -191.791035089162     IErMin=10 ErrMin= 1.74D-08
 ErrMax= 1.74D-08  0.00D+00 EMaxC= 1.00D-01 BMatC= 5.37D-15 BMatP= 2.62D-13
 IDIUse=1 WtCom= 1.00D+00 WtEn= 0.00D+00
 Coeff-Com:  0.748D-04-0.147D-03-0.894D-03-0.134D-02 0.586D-04 0.252D-01
 Coeff-Com: -0.894D-02-0.123D+00-0.107D+00 0.122D+01
 Coeff:      0.748D-04-0.147D-03-0.894D-03-0.134D-02 0.586D-04 0.252D-01
 Coeff:     -0.894D-02-0.123D+00-0.107D+00 0.122D+01
 Gap=     0.347 Goal=   None    Shift=    0.000
 RMSDP=8.82D-09 MaxDP=9.65D-08 DE=-1.71D-13 OVMax= 1.12D-07

 SCF Done:  E(RwB97XD) =  -191.791035089     A.U. after   10 cycles
            NFock= 10  Conv=0.88D-08     -V/T= 2.0058
 KE= 1.906844488892D+02 PE=-6.524978347346D+02 EE= 1.674706671007D+02
 Leave Link  502 at Wed May 12 11:58:34 2021, MaxMem=  2147483648 cpu:         6.8
 (Enter /opt/cluster/programs/g09_d.01/g09/l701.exe)
 Compute integral first derivatives.
 ... and contract with generalized density number  0.
 R6Disp: Adding Grimme-D2 dispersion energy 1st derivatives to the gradient.
 Leave Link  701 at Wed May 12 11:58:34 2021, MaxMem=  2147483648 cpu:         0.6
 (Enter /opt/cluster/programs/g09_d.01/g09/l702.exe)
 L702 exits ... SP integral derivatives will be done elsewhere.
 Leave Link  702 at Wed May 12 11:58:34 2021, MaxMem=  2147483648 cpu:         0.2
 (Enter /opt/cluster/programs/g09_d.01/g09/l703.exe)
 Compute integral first derivatives, UseDBF=F ICtDFT=           0.
 Integral derivatives from FoFJK, PRISM(SPDF).
 Calling FoFJK, ICntrl=      2127 FMM=F ISym2X=0 I1Cent= 0 IOpClX= 0 NMat=1 NMatS=1 NMatT=0.
 FoFJK:  IHMeth= 1 ICntrl=    2127 DoSepK=T KAlg= 0 I1Cent=   0 FoldK=F
 IRaf=         1 NMat=   1 IRICut=       1 DoRegI=T DoRafI=F ISym2E= 0.
 FoFCou: FMM=F IPFlag=           0 FMFlag=      100000 FMFlg1=         800
         NFxFlg=           0 DoJE=F BraDBF=F KetDBF=F FulRan=T
         wScrn=  0.000000 ICntrl=    2527 IOpCl=  0 I1Cent=           0 NGrid=           0
         NMat0=    1 NMatS0=      1 NMatT0=    0 NMatD0=    1 NMtDS0=    0 NMtDT0=    0
 Symmetry not used in FoFCou.
 Leave Link  703 at Wed May 12 11:58:34 2021, MaxMem=  2147483648 cpu:         2.4
 (Enter /opt/cluster/programs/g09_d.01/g09/l716.exe)
 Dipole        = 1.34730986D+00 3.26661850D-01 2.73587335D-01
 ***** Axes restored to original set *****
 -------------------------------------------------------------------
 Center     Atomic                   Forces (Hartrees/Bohr)
 Number     Number              X              Y              Z
 -------------------------------------------------------------------
      1        6           0.000850784    0.001353279    0.005549075
      2        6          -0.001869315   -0.003011716   -0.005366485
      3        6           0.002347968    0.003868551   -0.005970051
      4        8          -0.001335912   -0.002208911    0.005832880
      5        1           0.000009253    0.000015802   -0.000020400
      6        1          -0.000002625   -0.000009134   -0.000004146
      7        1           0.000000217   -0.000007183   -0.000031087
      8        1          -0.000000370   -0.000000688    0.000010214
 -------------------------------------------------------------------
 Cartesian Forces:  Max     0.005970051 RMS     0.002673325
 Leave Link  716 at Wed May 12 11:58:34 2021, MaxMem=  2147483648 cpu:         0.2
 (Enter /opt/cluster/programs/g09_d.01/g09/l103.exe)

 GradGradGradGradGradGradGradGradGradGradGradGradGradGradGradGradGradGrad
 Berny optimization.
 Using GEDIIS/GDIIS optimizer.
 FormGI is forming the generalized inverse of G from B-inverse, IUseBI=4.
 Internal  Forces:  Max     0.007709951 RMS     0.002000318
 Search for a local minimum.
 Step number   5 out of a maximum of   34
 All quantities printed in internal units (Hartrees-Bohrs-Radians)
 RMS Force = .14229D-04 SwitMx=.10000D-02 MixMth= 2
 Mixed Optimization -- En-DIIS/RFO-DIIS
 Swapping is turned off.
 Update second derivatives using D2CorX and points    1    2    3    4    5
 DE= -8.69D-07 DEPred=-7.99D-07 R= 1.09D+00
 Trust test= 1.09D+00 RLast= 4.68D-03 DXMaxT set to 1.50D-01
 ITU=  0  1 -1  1  0
     Eigenvalues ---    0.01548   0.02817   0.03367   0.05189   0.13551
     Eigenvalues ---    0.15853   0.16011   0.16112   0.21579   0.23196
     Eigenvalues ---    0.31848   0.33627   0.35001   0.35190   0.35396
     Eigenvalues ---    0.61898   0.773031000.000001000.000001000.00000
     Eigenvalues --- 1000.000001000.000001000.000001000.00000
 En-DIIS/RFO-DIIS IScMMF=        0 using points:     5    4    3    2
 RFO step:  Lambda=-3.04923789D-06.
 NNeg= 0 NP= 4 Switch=  2.50D-03 Rises=F DC= -2.12D-06 SmlDif=  1.00D-05
 RMS Error=  0.7748459790D-04 NUsed= 4 EDIIS=F
 DidBck=F Rises=F RFO-DIIS coefs:    0.97032    0.01609    0.00521    0.00838
 Iteration  1 RMS(Cart)=  0.00022456 RMS(Int)=  0.00000098
 Iteration  2 RMS(Cart)=  0.00000007 RMS(Int)=  0.00000097
 Iteration  1 RMS(Cart)=  0.00000076 RMS(Int)=  0.00000055
 ITry= 1 IFail=0 DXMaxC= 5.03D-04 DCOld= 1.00D+10 DXMaxT= 1.50D-01 DXLimC= 3.00D+00 Rises=F
 Variable       Old X    -DE/DX   Delta X   Delta X   Delta X     New X
                                 (Linear)    (Quad)   (Total)
    R1        2.53075  -0.00002  -0.00001  -0.00001  -0.00003   2.53072
    R2        2.04925   0.00000   0.00000   0.00000   0.00000   2.04925
    R3        2.05586   0.00000   0.00000   0.00002   0.00002   2.05588
    R4        2.78935  -0.00001  -0.00003   0.00000  -0.00003   2.78932
    R5        2.05346   0.00000   0.00000   0.00002   0.00002   2.05348
    R6        2.33490   0.00003   0.00000   0.00006   0.00006   2.33496
    R7        2.08463   0.00001  -0.00002   0.00005   0.00003   2.08466
    A1        2.12722   0.00001  -0.00001   0.00005   0.00004   2.12725
    A2        2.12139   0.00000   0.00000  -0.00003  -0.00003   2.12136
    A3        2.03458   0.00000   0.00001  -0.00002  -0.00001   2.03456
    A4        2.10934   0.00009   0.00001  -0.00020  -0.00019   2.10915
    A5        2.12461   0.00047  -0.00001   0.00003   0.00001   2.12462
    A6        2.03693  -0.00012   0.00001   0.00012   0.00013   2.03706
    A7        2.15102   0.00018  -0.00002   0.00004   0.00002   2.15104
    A8        2.03290   0.00016   0.00004  -0.00010  -0.00006   2.03284
    A9        2.09543   0.00017  -0.00003   0.00005   0.00003   2.09546
    D1       -3.01232  -0.00152   0.00001   0.00052   0.00053  -3.01179
    D2       -0.04420   0.00154   0.00002   0.00016   0.00018  -0.04402
    D3        0.12647  -0.00155  -0.00003  -0.00031  -0.00034   0.12613
    D4        3.09458   0.00152  -0.00001  -0.00067  -0.00069   3.09389
    D5        2.44348   0.00771   0.00000   0.00000   0.00000   2.44348
    D6       -0.60409   0.00150   0.00000   0.00015   0.00016  -0.60393
    D7       -0.53302   0.00474  -0.00001   0.00036   0.00034  -0.53268
    D8        2.70260  -0.00148  -0.00001   0.00050   0.00050   2.70309
         Item               Value     Threshold  Converged?
 Maximum Force            0.000039     0.000450     YES
 RMS     Force            0.000014     0.000300     YES
 Maximum Displacement     0.000503     0.001800     YES
 RMS     Displacement     0.000225     0.001200     YES
 Predicted change in Energy=-2.651842D-08
 Optimization completed.
    -- Stationary point found.
                           ----------------------------
                           !   Optimized Parameters   !
                           ! (Angstroms and Degrees)  !
 --------------------------                            --------------------------
 ! Name  Definition              Value          Derivative Info.                !
 --------------------------------------------------------------------------------
 ! R1    R(1,2)                  1.3392         -DE/DX =    0.0                 !
 ! R2    R(1,6)                  1.0844         -DE/DX =    0.0                 !
 ! R3    R(1,7)                  1.0879         -DE/DX =    0.0                 !
 ! R4    R(2,3)                  1.4761         -DE/DX =    0.0                 !
 ! R5    R(2,8)                  1.0866         -DE/DX =    0.0                 !
 ! R6    R(3,4)                  1.2356         -DE/DX =    0.0                 !
 ! R7    R(3,5)                  1.1031         -DE/DX =    0.0                 !
 ! A1    A(2,1,6)              121.8805         -DE/DX =    0.0                 !
 ! A2    A(2,1,7)              121.5467         -DE/DX =    0.0                 !
 ! A3    A(6,1,7)              116.5727         -DE/DX =    0.0                 !
 ! A4    A(1,2,3)              120.8564         -DE/DX =    0.0001              !
 ! A5    A(1,2,8)              121.7311         -DE/DX =    0.0005              !
 ! A6    A(3,2,8)              116.7074         -DE/DX =   -0.0001              !
 ! A7    A(2,3,4)              123.2445         -DE/DX =    0.0002              !
 ! A8    A(2,3,5)              116.4767         -DE/DX =    0.0002              !
 ! A9    A(4,3,5)              120.0596         -DE/DX =    0.0002              !
 ! D1    D(6,1,2,3)           -172.593          -DE/DX =   -0.0015              !
 ! D2    D(6,1,2,8)             -2.5327         -DE/DX =    0.0015              !
 ! D3    D(7,1,2,3)              7.2462         -DE/DX =   -0.0015              !
 ! D4    D(7,1,2,8)            177.3065         -DE/DX =    0.0015              !
 ! D5    D(1,2,3,4)            140.0012         -DE/DX =    0.0077              !
 ! D6    D(1,2,3,5)            -34.6117         -DE/DX =    0.0015              !
 ! D7    D(8,2,3,4)            -30.5397         -DE/DX =    0.0047              !
 ! D8    D(8,2,3,5)            154.8475         -DE/DX =   -0.0015              !
 --------------------------------------------------------------------------------
 Lowest energy point so far.  Saving SCF results.
 GradGradGradGradGradGradGradGradGradGradGradGradGradGradGradGradGradGrad

 Largest change from initial coordinates is atom    7       0.008 Angstoms.
 Leave Link  103 at Wed May 12 11:58:34 2021, MaxMem=  2147483648 cpu:         0.1
 (Enter /opt/cluster/programs/g09_d.01/g09/l202.exe)
                          Input orientation:                          
 ---------------------------------------------------------------------
 Center     Atomic      Atomic             Coordinates (Angstroms)
 Number     Number       Type             X           Y           Z
 ---------------------------------------------------------------------
      1          6           0        1.736087    0.149650   -0.141285
      2          6           0        0.576125   -0.434688    0.185102
      3          6           0       -0.683350    0.334996    0.193279
      4          8           0       -1.756673   -0.117960   -0.218370
      5          1           0       -0.612719    1.390430    0.506308
      6          1           0        2.649342   -0.421257   -0.267740
      7          1           0        1.808509    1.224105   -0.295749
      8          1           0        0.490803   -1.512083    0.297946
 ---------------------------------------------------------------------
                    Distance matrix (angstroms):
                    1          2          3          4          5
     1  C    0.000000
     2  C    1.339213   0.000000
     3  C    2.449482   1.476061   0.000000
     4  O    3.503845   2.388525   1.235576   0.000000
     5  H    2.734192   2.201722   1.103139   2.027075   0.000000
     6  H    1.084417   2.122139   3.448375   4.416718   3.810827
     7  H    1.087915   2.121694   2.690543   3.810204   2.556033
     8  H    2.122502   1.086644   2.191186   2.694683   3.112196
                    6          7          8
     6  H    0.000000
     7  H    1.847972   0.000000
     8  H    2.483785   3.094439   0.000000
 Stoichiometry    C3H4O
 Framework group  C1[X(C3H4O)]
 Deg. of freedom    18
 Full point group                 C1      NOp   1
 RotChk:  IX=0 Diff= 2.78D-16
 Largest Abelian subgroup         C1      NOp   1
 Largest concise Abelian subgroup C1      NOp   1
                         Standard orientation:                         
 ---------------------------------------------------------------------
 Center     Atomic      Atomic             Coordinates (Angstroms)
 Number     Number       Type             X           Y           Z
 ---------------------------------------------------------------------
      1          6           0        1.733674    0.153988   -0.139357
      2          6           0        0.575730   -0.434461    0.186812
      3          6           0       -0.686108    0.331316    0.197047
      4          8           0       -1.758292   -0.124280   -0.214660
      5          1           0       -0.618536    1.386451    0.511754
      6          1           0        2.648606   -0.413889   -0.267324
      7          1           0        1.802680    1.228913   -0.292111
      8          1           0        0.493808   -1.512297    0.297950
 ---------------------------------------------------------------------
 Rotational constants (GHZ):     40.7974598      4.6725278      4.3622276
 Leave Link  202 at Wed May 12 11:58:34 2021, MaxMem=  2147483648 cpu:         0.0
 (Enter /opt/cluster/programs/g09_d.01/g09/l601.exe)
 Copying SCF densities to generalized density rwf, IOpCl= 0 IROHF=0.

 **********************************************************************

            Population analysis using the SCF density.

 **********************************************************************

 Orbital symmetries:
       Occupied  (A) (A) (A) (A) (A) (A) (A) (A) (A) (A) (A) (A)
                 (A) (A) (A)
       Virtual   (A) (A) (A) (A) (A) (A) (A) (A) (A) (A) (A) (A)
                 (A) (A) (A) (A) (A) (A) (A) (A) (A) (A) (A) (A)
                 (A) (A) (A) (A) (A) (A) (A) (A) (A) (A) (A) (A)
                 (A) (A) (A) (A) (A) (A) (A) (A) (A)
 The electronic state is 1-A.
 Alpha  occ. eigenvalues --  -19.29071 -10.40834 -10.33637 -10.33285  -1.17412
 Alpha  occ. eigenvalues --   -0.91870  -0.75929  -0.68096  -0.58606  -0.57476
 Alpha  occ. eigenvalues --   -0.52395  -0.49430  -0.48124  -0.38108  -0.35412
 Alpha virt. eigenvalues --   -0.00717   0.06907   0.07792   0.08890   0.09084
 Alpha virt. eigenvalues --    0.11455   0.12681   0.12883   0.14724   0.15889
 Alpha virt. eigenvalues --    0.17420   0.18050   0.20078   0.22630   0.26848
 Alpha virt. eigenvalues --    0.28218   0.28960   0.30870   0.33234   0.35450
 Alpha virt. eigenvalues --    0.36971   0.38781   0.43254   0.46516   0.49825
 Alpha virt. eigenvalues --    0.70377   0.71909   0.75207   0.79495   0.80256
 Alpha virt. eigenvalues --    0.85075   0.88207   0.95832   1.01181   1.06437
 Alpha virt. eigenvalues --    1.09800   1.12752   1.17812   1.23178   1.28148
 Alpha virt. eigenvalues --    1.33959   1.36665   1.38801   1.40583   1.88791
          Condensed to atoms (all electrons):
               1          2          3          4          5          6
     1  C    5.456072   0.052680   0.104651   0.018969   0.069815   0.350732
     2  C    0.052680   5.852115   0.168564  -0.158329  -0.180305  -0.002794
     3  C    0.104651   0.168564   5.036200   0.285486   0.374460   0.006444
     4  O    0.018969  -0.158329   0.285486   8.327604  -0.060871  -0.000552
     5  H    0.069815  -0.180305   0.374460  -0.060871   0.613139   0.000020
     6  H    0.350732  -0.002794   0.006444  -0.000552   0.000020   0.460160
     7  H    0.388680  -0.059198   0.010401   0.000678   0.001040  -0.022249
     8  H   -0.012611   0.351618  -0.013039  -0.004302   0.001508  -0.003069
               7          8
     1  C    0.388680  -0.012611
     2  C   -0.059198   0.351618
     3  C    0.010401  -0.013039
     4  O    0.000678  -0.004302
     5  H    0.001040   0.001508
     6  H   -0.022249  -0.003069
     7  H    0.473132   0.002422
     8  H    0.002422   0.439881
 Mulliken charges:
               1
     1  C   -0.428988
     2  C   -0.024351
     3  C    0.026832
     4  O   -0.408684
     5  H    0.181195
     6  H    0.211308
     7  H    0.205095
     8  H    0.237592
 Sum of Mulliken charges =   0.00000
 Mulliken charges with hydrogens summed into heavy atoms:
               1
     1  C   -0.012585
     2  C    0.213241
     3  C    0.208028
     4  O   -0.408684
 Electronic spatial extent (au):  <R**2>=            298.0659
 Charge=              0.0000 electrons
 Dipole moment (field-independent basis, Debye):
    X=              3.4245    Y=              0.8303    Z=              0.6954  Tot=              3.5917
 Quadrupole moment (field-independent basis, Debye-Ang):
   XX=            -27.9676   YY=            -21.6971   ZZ=            -25.3287
   XY=             -1.2084   XZ=             -2.1937   YZ=             -0.3843
 Traceless Quadrupole moment (field-independent basis, Debye-Ang):
   XX=             -2.9698   YY=              3.3007   ZZ=             -0.3309
   XY=             -1.2084   XZ=             -2.1937   YZ=             -0.3843
 Octapole moment (field-independent basis, Debye-Ang**2):
  XXX=             16.0708  YYY=              0.0107  ZZZ=             -0.7525  XYY=              0.1379
  XXY=              0.8289  XXZ=             -0.0107  XZZ=             -3.9791  YZZ=              0.3410
  YYZ=              0.5251  XYZ=             -0.2683
 Hexadecapole moment (field-independent basis, Debye-Ang**3):
 XXXX=           -302.2240 YYYY=            -53.4290 ZZZZ=            -34.2506 XXXY=             -3.9137
 XXXZ=             -8.2628 YYYX=             -0.3080 YYYZ=             -0.9087 ZZZX=              0.2914
 ZZZY=             -0.0398 XXYY=            -56.9562 XXZZ=            -57.7436 YYZZ=            -15.8096
 XXYZ=             -0.5264 YYXZ=             -0.9235 ZZXY=              0.0966
 N-N= 1.025516836555D+02 E-N=-6.524978343656D+02  KE= 1.906844488892D+02
 No NMR shielding tensors so no spin-rotation constants.
 Leave Link  601 at Wed May 12 11:58:35 2021, MaxMem=  2147483648 cpu:         0.6
 (Enter /opt/cluster/programs/g09_d.01/g09/l9999.exe)
 1\1\GINC-NODE22\FOpt\RwB97XD\6-31+G\C3H4O1\BOITTIER\12-May-2021\0\\#p 
 wB97XD/6-31+G Opt=ModRedun\\L.pdb\\0,1\C,1.7360870968,0.1496497178,-0.
 1412852788\C,0.5761247354,-0.4346878361,0.1851022174\C,-0.6833497839,0
 .3349963427,0.1932793627\O,-1.7566733929,-0.1179602799,-0.2183695947\H
 ,-0.6127191018,1.3904303758,0.5063079773\H,2.6493417687,-0.421257207,-
 0.2677396704\H,1.8085091798,1.2241053481,-0.2957485042\H,0.4908034979,
 -1.5120834613,0.2979464907\\Version=ES64L-G09RevD.01\State=1-A\HF=-191
 .7910351\RMSD=8.821e-09\RMSF=2.673e-03\Dipole=1.3481381,0.3229479,0.27
 39164\Quadrupole=-2.2114146,2.4585436,-0.247129,-0.8865133,-1.6316484,
 -0.2856466\PG=C01 [X(C3H4O1)]\\@


 Just remember, when you're over the hill, you begin to pick up speed.
 -- Charles Schulz
 Job cpu time:       0 days  0 hours  1 minutes 20.3 seconds.
 File lengths (MBytes):  RWF=      5 Int=      0 D2E=      0 Chk=      2 Scr=      1
 Normal termination of Gaussian 09 at Wed May 12 11:58:35 2021.
