L.pdb                                                                   
FOpt      RwB97XD                                                     6-31+G              
Number of atoms                            I                8
Info1-9                                    I   N=           9
          19          19           0           0           0         110
           2          18        -802
Charge                                     I                0
Multiplicity                               I                1
Number of electrons                        I               30
Number of alpha electrons                  I               15
Number of beta electrons                   I               15
Number of basis functions                  I               60
Number of independent functions            I               60
Number of point charges in /Mol/           I                0
Number of translation vectors              I                0
Atomic numbers                             I   N=           8
           6           6           6           8           1           1
           1           1
Nuclear charges                            R   N=           8
  6.00000000E+00  6.00000000E+00  6.00000000E+00  8.00000000E+00  1.00000000E+00
  1.00000000E+00  1.00000000E+00  1.00000000E+00
Current cartesian coordinates              R   N=          24
  3.34277349E+00  2.59027030E-01  1.18381702E-04  1.06245270E+00 -8.41797624E-01
  4.02742477E-04 -1.26305352E+00  6.77054113E-01 -4.90271729E-04 -3.41239230E+00
 -2.38202340E-01 -2.42877436E-04 -1.00359204E+00  2.74684830E+00  1.30087180E-03
  5.07775867E+00 -8.31203164E-01  2.92089561E-04  3.54227862E+00  2.30560940E+00
 -3.80428076E-04  8.29657180E-01 -2.88133692E+00  5.45371502E-04
Force Field                                I                0
Int Atom Types                             I   N=           8
           0           0           0           0           0           0
           0           0
MM charges                                 R   N=           8
  0.00000000E+00  0.00000000E+00  0.00000000E+00  0.00000000E+00  0.00000000E+00
  0.00000000E+00  0.00000000E+00  0.00000000E+00
Integer atomic weights                     I   N=           8
          12          12          12          16           1           1
           1           1
Real atomic weights                        R   N=           8
  1.20000000E+01  1.20000000E+01  1.20000000E+01  1.59949146E+01  1.00782504E+00
  1.00782504E+00  1.00782504E+00  1.00782504E+00
Atom fragment info                         I   N=           8
           0           0           0           0           0           0
           0           0
Atom residue num                           I   N=           8
           0           0           0           0           0           0
           0           0
Nuclear spins                              I   N=           8
           0           0           0           0           1           1
           1           1
Nuclear ZEff                               R   N=           8
 -3.60000000E+00 -3.60000000E+00 -3.60000000E+00 -5.60000000E+00 -1.00000000E+00
 -1.00000000E+00 -1.00000000E+00 -1.00000000E+00
Nuclear ZNuc                               R   N=           8
  6.00000000E+00  6.00000000E+00  6.00000000E+00  8.00000000E+00  1.00000000E+00
  1.00000000E+00  1.00000000E+00  1.00000000E+00
Nuclear QMom                               R   N=           8
  0.00000000E+00  0.00000000E+00  0.00000000E+00  0.00000000E+00  0.00000000E+00
  0.00000000E+00  0.00000000E+00  0.00000000E+00
Nuclear GFac                               R   N=           8
  0.00000000E+00  0.00000000E+00  0.00000000E+00  0.00000000E+00  2.79284600E+00
  2.79284600E+00  2.79284600E+00  2.79284600E+00
MicOpt                                     I   N=           8
          -1          -1          -1          -1          -1          -1
          -1          -1
Number of contracted shells                I               24
Number of primitive shells                 I               60
Pure/Cartesian d shells                    I                1
Pure/Cartesian f shells                    I                0
Highest angular momentum                   I                1
Largest degree of contraction              I                6
Shell types                                I   N=          24
           0          -1          -1          -1           0          -1
          -1          -1           0          -1          -1          -1
           0          -1          -1          -1           0           0
           0           0           0           0           0           0
Number of primitives per shell             I   N=          24
           6           3           1           1           6           3
           1           1           6           3           1           1
           6           3           1           1           3           1
           3           1           3           1           3           1
Shell to atom map                          I   N=          24
           1           1           1           1           2           2
           2           2           3           3           3           3
           4           4           4           4           5           5
           6           6           7           7           8           8
Primitive exponents                        R   N=          60
  3.04752488E+03  4.57369518E+02  1.03948685E+02  2.92101553E+01  9.28666296E+00
  3.16392696E+00  7.86827235E+00  1.88128854E+00  5.44249258E-01  1.68714478E-01
  4.38000000E-02  3.04752488E+03  4.57369518E+02  1.03948685E+02  2.92101553E+01
  9.28666296E+00  3.16392696E+00  7.86827235E+00  1.88128854E+00  5.44249258E-01
  1.68714478E-01  4.38000000E-02  3.04752488E+03  4.57369518E+02  1.03948685E+02
  2.92101553E+01  9.28666296E+00  3.16392696E+00  7.86827235E+00  1.88128854E+00
  5.44249258E-01  1.68714478E-01  4.38000000E-02  5.48467166E+03  8.25234946E+02
  1.88046958E+02  5.29645000E+01  1.68975704E+01  5.79963534E+00  1.55396162E+01
  3.59993359E+00  1.01376175E+00  2.70005823E-01  8.45000000E-02  1.87311370E+01
  2.82539436E+00  6.40121692E-01  1.61277759E-01  1.87311370E+01  2.82539436E+00
  6.40121692E-01  1.61277759E-01  1.87311370E+01  2.82539436E+00  6.40121692E-01
  1.61277759E-01  1.87311370E+01  2.82539436E+00  6.40121692E-01  1.61277759E-01
Contraction coefficients                   R   N=          60
  1.83473713E-03  1.40373228E-02  6.88426223E-02  2.32184443E-01  4.67941348E-01
  3.62311985E-01 -1.19332420E-01 -1.60854152E-01  1.14345644E+00  1.00000000E+00
  1.00000000E+00  1.83473713E-03  1.40373228E-02  6.88426223E-02  2.32184443E-01
  4.67941348E-01  3.62311985E-01 -1.19332420E-01 -1.60854152E-01  1.14345644E+00
  1.00000000E+00  1.00000000E+00  1.83473713E-03  1.40373228E-02  6.88426223E-02
  2.32184443E-01  4.67941348E-01  3.62311985E-01 -1.19332420E-01 -1.60854152E-01
  1.14345644E+00  1.00000000E+00  1.00000000E+00  1.83107443E-03  1.39501722E-02
  6.84450781E-02  2.32714336E-01  4.70192898E-01  3.58520853E-01 -1.10777550E-01
 -1.48026263E-01  1.13076702E+00  1.00000000E+00  1.00000000E+00  3.34946043E-02
  2.34726953E-01  8.13757326E-01  1.00000000E+00  3.34946043E-02  2.34726953E-01
  8.13757326E-01  1.00000000E+00  3.34946043E-02  2.34726953E-01  8.13757326E-01
  1.00000000E+00  3.34946043E-02  2.34726953E-01  8.13757326E-01  1.00000000E+00
P(S=P) Contraction coefficients            R   N=          60
  0.00000000E+00  0.00000000E+00  0.00000000E+00  0.00000000E+00  0.00000000E+00
  0.00000000E+00  6.89990666E-02  3.16423961E-01  7.44308291E-01  1.00000000E+00
  1.00000000E+00  0.00000000E+00  0.00000000E+00  0.00000000E+00  0.00000000E+00
  0.00000000E+00  0.00000000E+00  6.89990666E-02  3.16423961E-01  7.44308291E-01
  1.00000000E+00  1.00000000E+00  0.00000000E+00  0.00000000E+00  0.00000000E+00
  0.00000000E+00  0.00000000E+00  0.00000000E+00  6.89990666E-02  3.16423961E-01
  7.44308291E-01  1.00000000E+00  1.00000000E+00  0.00000000E+00  0.00000000E+00
  0.00000000E+00  0.00000000E+00  0.00000000E+00  0.00000000E+00  7.08742682E-02
  3.39752839E-01  7.27158577E-01  1.00000000E+00  1.00000000E+00  0.00000000E+00
  0.00000000E+00  0.00000000E+00  0.00000000E+00  0.00000000E+00  0.00000000E+00
  0.00000000E+00  0.00000000E+00  0.00000000E+00  0.00000000E+00  0.00000000E+00
  0.00000000E+00  0.00000000E+00  0.00000000E+00  0.00000000E+00  0.00000000E+00
Coordinates of each shell                  R   N=          72
  3.34277349E+00  2.59027030E-01  1.18381702E-04  3.34277349E+00  2.59027030E-01
  1.18381702E-04  3.34277349E+00  2.59027030E-01  1.18381702E-04  3.34277349E+00
  2.59027030E-01  1.18381702E-04  1.06245270E+00 -8.41797624E-01  4.02742477E-04
  1.06245270E+00 -8.41797624E-01  4.02742477E-04  1.06245270E+00 -8.41797624E-01
  4.02742477E-04  1.06245270E+00 -8.41797624E-01  4.02742477E-04 -1.26305352E+00
  6.77054113E-01 -4.90271729E-04 -1.26305352E+00  6.77054113E-01 -4.90271729E-04
 -1.26305352E+00  6.77054113E-01 -4.90271729E-04 -1.26305352E+00  6.77054113E-01
 -4.90271729E-04 -3.41239230E+00 -2.38202340E-01 -2.42877436E-04 -3.41239230E+00
 -2.38202340E-01 -2.42877436E-04 -3.41239230E+00 -2.38202340E-01 -2.42877436E-04
 -3.41239230E+00 -2.38202340E-01 -2.42877436E-04 -1.00359204E+00  2.74684830E+00
  1.30087180E-03 -1.00359204E+00  2.74684830E+00  1.30087180E-03  5.07775867E+00
 -8.31203164E-01  2.92089561E-04  5.07775867E+00 -8.31203164E-01  2.92089561E-04
  3.54227862E+00  2.30560940E+00 -3.80428076E-04  3.54227862E+00  2.30560940E+00
 -3.80428076E-04  8.29657180E-01 -2.88133692E+00  5.45371502E-04  8.29657180E-01
 -2.88133692E+00  5.45371502E-04
Constraint Structure                       R   N=          24
  3.35634017E+00  2.55632492E-01  3.90543401E-06  1.06124709E+00 -8.38500242E-01
 -1.76374439E-06 -1.26165921E+00  6.77829032E-01 -2.06610057E-05 -3.42682418E+00
 -2.37752917E-01  7.68488627E-06 -1.00052191E+00  2.75033139E+00  3.79205044E-05
  5.08924558E+00 -8.40491662E-01  7.68488627E-06  3.56576889E+00  2.30184686E+00
  1.25981742E-07  8.24532613E-01 -2.87943094E+00  3.90543401E-06
Num ILSW                                   I              100
ILSW                                       I   N=         100
           0           1           0           0           2           0
           0           0           0           0        4639          -1
           0           0           0           0           2           0
           0           0           0           0           1           0
           1           0           0           0           0           0
           0           0      100000           0          -1           0
           0           0           0           0           0           0
           0           0           0           1           0           0
           0           0           1           0           0           0
           0           0         121          41           0           0
           0           0          58           0           0           0
           0           0           0           8           0           0
           0           0           0           0           0           0
           0           0           0           0           0           0
           0           0           0           0           0           0
           0           0           0           0           0           0
           0           0           0           0
Num RLSW                                   I               41
RLSW                                       R   N=          41
  1.00000000E+00  1.00000000E+00  1.00000000E+00  1.00000000E+00  1.00000000E+00
  0.00000000E+00  2.00000000E-01  2.22036000E-01  0.00000000E+00  7.77964000E-01
  0.00000000E+00  2.00000000E-01  0.00000000E+00  0.00000000E+00  1.00000000E+00
  0.00000000E+00  0.00000000E+00  1.00000000E+00  0.00000000E+00  0.00000000E+00
  0.00000000E+00  0.00000000E+00  1.00000000E+00  0.00000000E+00  0.00000000E+00
  0.00000000E+00  0.00000000E+00  1.00000000E+00  0.00000000E+00  0.00000000E+00
  0.00000000E+00  0.00000000E+00  1.00000000E+00  0.00000000E+00  0.00000000E+00
  0.00000000E+00  0.00000000E+00  0.00000000E+00  1.00000000E+00  1.00000000E+00
  0.00000000E+00
MxBond                                     I                3
NBond                                      I   N=           8
           3           3           3           1           1           1
           1           1
IBond                                      I   N=          24
           2           6           7           1           3           8
           2           4           5           3           0           0
           3           0           0           1           0           0
           1           0           0           2           0           0
RBond                                      R   N=          24
  2.00000000E+00  1.00000000E+00  1.00000000E+00  2.00000000E+00  1.00000000E+00
  1.00000000E+00  1.00000000E+00  2.00000000E+00  1.00000000E+00  2.00000000E+00
  0.00000000E+00  0.00000000E+00  1.00000000E+00  0.00000000E+00  0.00000000E+00
  1.00000000E+00  0.00000000E+00  0.00000000E+00  1.00000000E+00  0.00000000E+00
  0.00000000E+00  1.00000000E+00  0.00000000E+00  0.00000000E+00
Virial Ratio                               R      2.005793494364295E+00
SCF Energy                                 R     -1.917957010083113E+02
Total Energy                               R     -1.917957010083113E+02
RMS Force                                  R      5.865333583273370E-05
RMS Density                                R      8.026321423982888E-09
External E-field                           R   N=          35
  0.00000000E+00  0.00000000E+00  0.00000000E+00  0.00000000E+00  0.00000000E+00
  0.00000000E+00  0.00000000E+00  0.00000000E+00  0.00000000E+00  0.00000000E+00
  0.00000000E+00  0.00000000E+00  0.00000000E+00  0.00000000E+00  0.00000000E+00
  0.00000000E+00  0.00000000E+00  0.00000000E+00  0.00000000E+00  0.00000000E+00
  0.00000000E+00  0.00000000E+00  0.00000000E+00  0.00000000E+00  0.00000000E+00
  0.00000000E+00  0.00000000E+00  0.00000000E+00  0.00000000E+00  0.00000000E+00
  0.00000000E+00  0.00000000E+00  0.00000000E+00  0.00000000E+00  0.00000000E+00
IOpCl                                      I                0
IROHF                                      I                0
Alpha Orbital Energies                     R   N=          60
 -1.92884414E+01 -1.04059505E+01 -1.03399173E+01 -1.03328546E+01 -1.17172789E+00
 -9.20955398E-01 -7.59826389E-01 -6.82720045E-01 -5.84337686E-01 -5.75988360E-01
 -5.13235999E-01 -4.98481515E-01 -4.88730703E-01 -3.82194371E-01 -3.53648066E-01
 -1.28942522E-02  6.94922413E-02  8.34595831E-02  8.51969076E-02  9.26236788E-02
  1.20630906E-01  1.24703438E-01  1.27384555E-01  1.48715326E-01  1.54931011E-01
  1.77363407E-01  1.88181426E-01  2.01961157E-01  2.20911380E-01  2.61199262E-01
  2.85873098E-01  2.90752268E-01  3.30181716E-01  3.32144157E-01  3.47069553E-01
  3.63977602E-01  3.86091435E-01  4.39274414E-01  4.74599220E-01  4.94377574E-01
  7.09460307E-01  7.16436657E-01  7.69941149E-01  7.71245448E-01  8.04190147E-01
  8.64960923E-01  8.81293590E-01  9.80949118E-01  1.02512978E+00  1.08437838E+00
  1.09657765E+00  1.12877000E+00  1.21005879E+00  1.24113688E+00  1.30225565E+00
  1.31250383E+00  1.37217320E+00  1.40298034E+00  1.46559284E+00  1.93107394E+00
Alpha MO coefficients                      R   N=        3600
 -2.07311439E-05 -2.43601501E-04  2.98031471E-04 -1.19180525E-04  9.73891581E-08
 -2.06896695E-03 -9.07895210E-04  1.79283597E-03 -9.52154078E-07  3.18371748E-03
 -9.07591986E-04 -3.75382934E-04 -1.06957329E-07  3.70574506E-05  1.45489149E-04
  3.75760917E-05 -1.40819493E-04  2.31293899E-09 -1.82113032E-03  3.69175917E-03
  1.41926339E-03  5.21163863E-07  8.72833862E-03 -3.85061678E-03  1.05157703E-03
  3.58603468E-07  1.97985211E-04  1.19871512E-04  2.00902795E-05  1.94265838E-04
  1.97834069E-07  8.84590059E-03 -5.66743776E-03 -5.68478274E-03 -2.26250873E-09
 -1.63028421E-02 -8.78640521E-04  3.38379392E-03 -3.31903079E-06  9.95230586E-01
  2.95462095E-02  2.05329522E-03  7.86917411E-04 -3.26421256E-07 -2.22894561E-02
 -5.11485180E-03 -1.49459521E-03  6.73006265E-07  7.98079824E-03  7.22519080E-04
 -1.80598150E-04  9.64608818E-07 -1.94245716E-05  1.92352365E-03  1.86364074E-04
  1.29540184E-03 -2.07794822E-04 -5.98841972E-04  2.86082400E-04  8.60571183E-04
  7.74844382E-06 -1.54857134E-04  1.29523259E-04 -4.42935140E-05  6.80968741E-08
 -1.73734001E-04 -3.47633002E-04  1.85408172E-04 -2.80768045E-07 -2.15990087E-02
  3.20602527E-03  3.36127858E-03 -1.61060728E-06  1.90564649E-03 -6.32644355E-04
  4.63002187E-04 -4.20827476E-04  2.04228613E-07  5.51530583E-03 -2.93183541E-03
  1.95006925E-03 -5.50982962E-07  5.07612905E-03  1.30745794E-02  1.20332997E-03
  2.44934249E-06  9.95439197E-01  3.62133590E-02 -1.22657451E-03 -6.93117789E-04
  8.12816137E-07 -3.23715596E-02  6.26926410E-04  2.36064258E-03 -3.80278707E-06
  1.40516896E-02  2.61977365E-03 -4.92959044E-03 -3.10181029E-07 -1.23522895E-04
 -2.91593347E-05 -5.59122421E-04 -2.13463232E-04  5.87382370E-08  1.10424584E-03
  2.70023531E-04 -2.19813359E-04  4.13667677E-07  1.11500977E-02  5.76551478E-03
  2.17887969E-03  7.19111440E-07 -5.49594307E-04  3.47224393E-03 -1.17372841E-05
  8.17823097E-04 -4.81076795E-05 -2.58915483E-04 -1.45912012E-04 -9.97071440E-05
  9.93579577E-01  3.51989086E-02 -3.89274830E-04 -1.05034720E-04  5.85045736E-08
 -2.99850760E-02  3.38980159E-03  1.46953924E-03 -3.05139789E-07  2.07156750E-02
 -6.32319222E-03 -3.71009060E-03  1.05608961E-06  5.87808059E-02  8.49688295E-04
 -1.08199878E-03 -5.28240539E-04  1.30351446E-07  7.24695316E-03  5.02240359E-03
  2.11682994E-03 -5.47684685E-07  1.88815723E-02 -1.24291285E-02  6.50999142E-03
 -3.52104015E-06 -1.49804916E-04 -1.79449647E-04 -1.08325997E-04 -4.08807324E-05
  7.21267888E-08 -1.32823967E-03  1.59962974E-03  5.94042809E-04 -2.19001464E-07
 -3.96610145E-02 -9.70754261E-03  5.25582396E-03 -3.97077167E-06 -1.29514387E-05
 -1.90768623E-04 -5.17189608E-05 -2.46468258E-05  2.93104797E-08  9.76785833E-04
  7.41480658E-04  2.86637146E-04 -1.70741029E-07  3.79158799E-03  1.54740870E-03
 -9.97790713E-05  4.91348383E-07 -2.27584424E-04  2.75384200E-04 -7.45378866E-04
  4.08646769E-03 -6.21987917E-04  3.81033189E-03 -1.84797726E-04  1.98372333E-04
 -5.90344643E-02 -3.45433066E-03  8.95149258E-04  4.44180374E-04 -1.56107028E-07
  1.23465989E-02 -5.71514630E-03 -8.21520421E-04  1.12966568E-07 -4.00131126E-02
  9.43113988E-03  3.07834282E-03 -5.75962214E-07  9.93657474E-01  3.63804591E-02
  2.66470015E-04  6.70767964E-04 -5.73403480E-07 -3.59026376E-02 -1.02011837E-03
 -5.97087095E-03  2.63605430E-06  7.28767135E-02  2.36493950E-03  1.29256477E-02
 -5.29643013E-06 -1.88085257E-03 -8.46631525E-04 -5.06826610E-04  3.14556181E-04
 -2.56055058E-07  7.34261461E-03  5.23625548E-03 -1.48628537E-03  1.84383624E-06
 -3.22245880E-02 -7.10745267E-03  4.29007317E-03 -2.55093462E-06  3.15342676E-07
 -3.57290853E-05 -6.10340629E-05 -6.87367789E-05  6.79741973E-08  8.07695565E-05
  7.16661345E-05  5.77136362E-04 -4.54798013E-07  3.12743652E-03  6.51952654E-04
 -1.67892776E-04  2.50320286E-08 -2.82104597E-04 -4.42032157E-04 -7.93598443E-05
  7.33342677E-04 -3.13516956E-04 -9.33765109E-04 -7.11081890E-04  2.22621508E-03
 -3.60477141E-03  9.62152152E-03 -7.18309983E-03 -1.30563289E-04 -6.86714151E-07
  1.89414419E-02  9.54868932E-03 -1.70756894E-02  9.29728669E-06  5.97913425E-02
 -1.04746512E-02 -5.61658233E-03  4.40962897E-06 -2.00857237E-02  3.73263119E-02
 -2.57380981E-02  1.04899251E-02 -6.72803589E-06  2.05886404E-02 -2.62048170E-02
 -1.17012323E-02 -5.41809927E-06 -1.12672593E-01 -2.26457819E-03 -2.05604136E-02
 -6.79464296E-06 -1.16247101E-01  2.38473133E-01 -1.68375561E-01 -7.91705893E-02
  3.07245596E-05  2.71853487E-02  6.06327130E-02  4.68466529E-02  1.15707092E-05
  6.52986567E-02  2.60279799E-03 -8.03256446E-03  2.76638719E-05 -1.92409914E-01
  4.23348601E-01  1.67238181E-01  6.91462594E-02 -1.56416522E-05  4.28848749E-01
  7.35775729E-02  2.61967911E-02 -8.40731307E-06  2.46228739E-03  7.16265723E-03
  4.42779816E-03 -1.24721043E-05  2.79269208E-02 -2.47636532E-02 -3.83543046E-04
 -1.46439997E-02  3.36323297E-03  5.93898277E-03  6.06295178E-03 -5.01217463E-03
 -1.42075483E-01  2.73699677E-01 -1.00471796E-01 -3.77088672E-02  6.39620813E-06
  2.18884844E-01 -1.78500932E-02  7.41818200E-03  3.85314140E-07  1.46585783E-02
 -4.29025696E-03  4.71236070E-03  3.60865005E-07 -1.60376879E-01  3.13182296E-01
  6.07632505E-02  7.13388246E-02 -3.66085187E-05  2.05322059E-01 -2.16840888E-03
 -1.59782860E-02 -4.77418982E-06 -1.00364150E-01  1.94476760E-02 -3.16708726E-02
  7.14874998E-06 -5.42530696E-02  1.05929615E-01  1.36149583E-01 -1.52463059E-02
  3.77541840E-05  1.01043433E-01  3.33344989E-02  3.77116112E-03  1.86366321E-05
  8.70071350E-02  2.59861947E-02 -4.54097829E-03  1.29067007E-05  3.99391409E-02
 -9.25979840E-02 -4.69119142E-03 -1.62802766E-02  1.14590875E-05 -9.01718821E-02
 -4.99125246E-04 -2.06157917E-03 -1.03790480E-06 -4.36488591E-03 -7.23708153E-03
 -2.82094891E-03 -4.25256377E-06  3.40065823E-02  3.01867454E-03  6.87241265E-02
  1.46063183E-02  7.27660366E-02  6.63205378E-03  7.42855586E-02 -1.67207993E-03
 -1.33244287E-01  2.67994280E-01  7.00052794E-02 -9.61167882E-03  1.62113624E-06
  2.58295544E-01  3.39242542E-02 -8.28884909E-03 -2.03333031E-06 -1.13744333E-01
  2.55458518E-02  1.63437667E-02 -4.64037176E-06  5.40114816E-02 -1.09917561E-01
  2.21105060E-01 -2.85833589E-02  2.82124938E-05 -1.02847645E-01  3.63713071E-02
 -3.46834123E-03  9.57475611E-06  1.96426209E-02  6.78967098E-02  7.10613441E-05
  4.94622290E-06  1.16046063E-01 -2.44796136E-01 -1.71919430E-01 -1.87125940E-03
 -1.02395662E-04 -2.60829197E-01 -2.11614351E-02  3.02629452E-03 -3.62841631E-05
  9.49229579E-02  1.35211612E-02 -2.25139753E-02  1.08769521E-05 -6.72495566E-02
  1.55231774E-01 -5.13467397E-02  9.03454349E-04 -3.05973841E-05  2.07318528E-01
 -1.03917377E-02  6.44224190E-03 -1.03642864E-05  3.25219948E-02  1.11297029E-02
  4.89774168E-03  7.02601178E-07 -1.01573364E-01 -3.52610778E-02  1.33625985E-01
  3.80363230E-02  1.06217325E-01  3.70261332E-02 -4.13467266E-02 -1.09371962E-02
 -4.78126611E-02  9.35354218E-02  7.55698928E-02  1.43830549E-01 -2.24272602E-05
  1.11940529E-01  1.03811717E-02  4.65196297E-02 -2.31243153E-06 -9.86467627E-02
  2.83699567E-02  1.10335060E-02 -1.02181657E-06  9.47995234E-02 -1.91498838E-01
 -2.73332851E-03  1.83952947E-01  7.58549205E-06 -2.11208854E-01  1.23565176E-03
  6.15053862E-02 -4.75338817E-06  1.50216726E-01  5.90181174E-03  2.47948553E-02
 -1.19903246E-05 -8.30062550E-02  1.77121143E-01 -6.08547305E-04  2.38795656E-01
  1.20054927E-04  1.90414142E-01  1.63533816E-02  9.18747571E-02  5.31989498E-05
 -5.18354036E-02 -7.83940178E-03  2.03019628E-02 -1.59571266E-07  3.61821866E-02
 -8.51370277E-02  1.69764628E-02  1.14227855E-01  3.96216440E-05 -1.03233878E-01
  7.66968463E-03  5.09150785E-02  1.07823927E-05 -7.90982572E-03 -3.27731586E-03
 -6.13483013E-03 -3.84786323E-06  1.83627456E-01  7.76742528E-02  3.93459538E-02
  2.33024282E-02  1.19011889E-01  6.07948491E-02 -1.70169702E-01 -6.97485986E-02
  1.36807454E-02 -2.54574834E-02 -1.00037454E-01 -2.83904755E-01  9.96819002E-05
 -6.47293020E-02 -1.83459517E-02 -1.14364168E-01  4.75956170E-05 -7.10965519E-02
  1.29345782E-03 -6.35795932E-04 -9.32529528E-07 -2.08796548E-02  3.85496825E-02
  2.54493001E-01 -1.16032359E-01  1.12887498E-04  7.33693064E-02  6.41513867E-02
 -3.35299595E-02  2.26104595E-05  7.05734624E-02  4.18177008E-02  7.25036285E-03
 -5.53268596E-06 -1.96562657E-03  2.30642747E-03 -1.38355728E-01  3.06941858E-01
  1.36954466E-04  1.46166123E-02 -5.89754037E-02  1.38017288E-01  7.56963897E-05
  6.58219614E-03 -1.69393127E-02  1.13359042E-02  1.54996807E-05  3.21344028E-03
 -7.07214019E-03 -7.22105331E-02  1.96238721E-01  9.01147032E-05 -1.19811646E-02
 -3.93832060E-02  9.69553002E-02  4.32612483E-05 -8.66446289E-03 -2.46086325E-04
 -4.98416815E-03 -4.15807660E-06  1.46190311E-01  6.98708731E-02  1.94692499E-02
  6.21926725E-03 -1.78537741E-01 -9.84720369E-02  6.77944303E-02  3.69106769E-02
 -9.10141074E-03  1.60164249E-02  3.56214214E-01 -7.83478466E-02  2.61282398E-06
  3.88755614E-02  1.33542202E-01 -4.42006722E-02  3.20918757E-06  1.50202772E-02
  1.78853388E-02 -6.77081429E-03 -1.22083278E-06  2.73876274E-02 -5.90280039E-02
 -1.61471307E-01 -2.26153993E-01  2.97854652E-05 -3.46601270E-02 -2.54118936E-02
 -6.83263854E-02  9.00112596E-06 -1.20756534E-02 -2.04837167E-02 -5.42759612E-03
  9.93766426E-06 -5.27825367E-02  1.28886541E-01 -1.21967807E-01 -6.69304370E-02
  2.49681199E-05  1.74576790E-01 -6.08850514E-02 -5.14494729E-02  6.53894847E-06
  2.07181833E-02  6.71449252E-03 -1.06997216E-03 -1.07009661E-05  6.70340284E-02
 -1.48528354E-01  2.40947035E-01  7.10625451E-02 -1.19808441E-05 -2.79191904E-01
  7.97788165E-02  1.50259367E-02  1.81446765E-06 -8.60848113E-02 -4.44121621E-03
  2.16030988E-03  4.81388507E-06  1.78283391E-02  1.97686241E-02  2.10747995E-01
  1.23015057E-01 -1.20235728E-02 -2.36608818E-03  1.04374864E-01  7.08838941E-02
 -1.75576761E-02  4.33968457E-02 -2.31828463E-01 -2.28648193E-02 -1.80586695E-04
  3.09197938E-02 -7.24088558E-02 -1.36379804E-02 -1.01628227E-04 -2.97762447E-02
 -1.30949331E-04 -4.72718535E-03  6.44097100E-06 -5.79408843E-04  4.87029657E-03
  1.86839920E-01  1.22964072E-01 -3.63505486E-04 -2.35274464E-02  4.84511340E-02
  4.95661107E-02 -1.69351618E-04  3.81286481E-02  5.26928838E-03  1.55883323E-02
 -2.66315987E-05 -1.36087923E-02  6.04473455E-02 -2.87637421E-01 -1.79636005E-01
 -8.18870240E-04  3.66443164E-03 -6.92806513E-02 -5.43784214E-02 -4.19008158E-04
 -2.06395398E-02 -4.65772261E-03 -1.69775944E-03 -4.91551464E-05  6.49191723E-02
 -1.40462867E-01  4.21612632E-01  1.50902639E-01 -9.14658587E-04 -2.59427177E-01
  1.81913842E-01  6.51128897E-02 -5.32921457E-04 -7.76786691E-02  1.59807410E-02
  9.66248058E-03 -1.19788939E-05 -1.15095252E-01 -8.93996253E-02 -1.00538369E-01
 -8.41197732E-02 -1.43825116E-02 -1.37640605E-02 -9.52861885E-02 -6.55818729E-02
 -3.72694578E-05  8.74471762E-05 -5.19593832E-04  3.00953136E-04  1.10476607E-01
  1.94033672E-04 -2.36143107E-04  1.43946005E-04  6.12470090E-02  1.61677160E-04
 -3.80587579E-05 -8.38028087E-06 -7.95266059E-04 -2.12013286E-05  6.25875205E-05
  3.22240606E-04  6.79938112E-05  1.86470838E-01 -9.59682301E-05  4.87439339E-05
 -1.09361819E-04  9.08302958E-02 -2.81126905E-04 -4.66750405E-05 -6.01365879E-05
  1.02448263E-02  5.50634744E-05 -7.44144005E-05 -7.45406350E-04 -4.22914159E-04
  3.71192286E-01 -1.26232684E-04 -1.24288627E-04 -9.07408195E-05  1.97402226E-01
  1.02930322E-04  6.55032032E-05 -4.46517531E-06  2.57915825E-02  1.22670041E-04
 -2.60120642E-04  9.82383594E-04  3.14570675E-04  4.30599837E-01 -4.97744948E-04
  4.41712813E-04  1.22307493E-04  2.58944459E-01 -1.47697411E-04  3.86993683E-05
  3.77400117E-05  7.26895013E-03 -2.15922943E-04 -2.56117504E-04 -3.58828537E-04
 -2.75315429E-04  1.90013752E-04  1.09504173E-04 -3.14252820E-05 -8.15828097E-05
  1.00749395E-02 -2.29529789E-02 -5.95590389E-02  3.21713883E-01 -1.61498985E-04
 -8.43408902E-03 -5.30334312E-02  1.60753611E-01 -8.05489093E-05 -3.85053059E-02
 -4.30992751E-03  3.43048367E-02 -7.25008585E-06 -1.59652466E-02  2.58834853E-02
 -1.41548121E-03 -2.84962316E-01 -7.79214596E-05  8.65380096E-02 -7.96860375E-03
 -1.50800309E-01 -5.04456557E-05  1.09685257E-02  3.84753411E-02 -3.19191030E-02
 -5.79751751E-06  2.52128422E-02 -5.37609339E-02 -1.67912364E-01  1.11647598E-01
 -3.07050659E-04 -7.21963858E-02 -5.83762793E-02  7.36055592E-02 -1.57723305E-04
  4.16767305E-02 -9.36924415E-04  4.52187702E-03 -7.66856068E-06  1.01469177E-02
 -2.35784236E-02  1.85767327E-03  1.69628594E-01 -3.75110477E-04 -3.87966185E-02
 -4.64691148E-03  9.02012646E-02 -2.26600495E-04 -6.27753979E-03  4.86472348E-03
  4.75910526E-03 -1.23227421E-05  3.35545373E-02  1.99773629E-02 -1.73844148E-01
 -1.14291116E-01  2.17437259E-01  1.61550890E-01  2.18105855E-01  1.35476839E-01
  4.82134057E-06 -9.40134979E-06  3.78234626E-05  9.13387597E-05  3.73527122E-01
 -7.93074759E-05  3.42081655E-05  7.08652789E-05  2.44288846E-01 -8.72094243E-06
 -1.11940289E-05  2.03996093E-05  4.73917447E-02 -9.17810979E-06  2.16030928E-05
 -3.42161675E-05  4.71356129E-05  3.60742764E-01  1.72223450E-05  5.21954983E-05
  1.18560331E-04  2.46712092E-01  4.27104477E-05  3.03136572E-05  4.38979131E-05
  2.40197339E-02 -4.72760375E-06  1.16679585E-05  2.99717469E-06  3.69764843E-05
 -5.88298361E-02  4.03339705E-05 -4.99109898E-05 -1.25999073E-04 -4.31197000E-02
 -1.66858608E-05 -5.32506882E-05 -5.09391530E-05 -1.17612015E-02  1.89641484E-06
 -7.62261821E-07  6.99203332E-06 -1.79026297E-04 -2.90239478E-01 -5.55864861E-05
 -2.08497941E-05 -1.15042814E-04 -1.97076543E-01 -6.36674548E-05 -2.12082853E-07
 -2.15858486E-05 -3.01408980E-02  3.92083777E-05  1.76457100E-04  6.99733892E-06
  1.60440106E-05  3.92030318E-07  7.32329063E-07  1.07946877E-05  7.62366577E-05
  6.97349104E-03 -8.54401203E-03  6.63685565E-02  1.08794967E-02  1.41616694E-04
 -1.15187447E-01  1.07914131E-01 -1.50013017E-02  1.04613327E-04 -4.61572228E-01
  9.97254373E-02  3.02808412E-02 -6.54505676E-06 -3.82492298E-02  6.90355181E-02
 -1.89550096E-01  1.11649525E-01  8.56265548E-05  3.49074892E-01 -9.98706636E-02
  1.96587687E-01  5.19652744E-06  5.46414147E-01  1.35114556E-01  1.17693890E-01
 -2.63692357E-06  8.31601039E-04  1.68137778E-02  6.00734835E-02 -1.35395889E-01
 -3.27737643E-05 -8.18120611E-02 -1.17514053E-01  1.94444654E-02 -2.01193613E-05
 -8.93714429E-02 -6.91557715E-02 -4.90802636E-03 -1.26258994E-05 -1.18142601E-03
  6.36644890E-03 -2.29652493E-01  5.42622274E-01  7.10538292E-05 -2.45909355E-02
 -1.65826900E-01  3.62224126E-01  5.43662050E-05 -3.81823440E-02 -2.32798460E-02