 Entering Gaussian System, Link 0=/opt/cluster/programs/g09_d.01/g09//g09
 Input=/home/unibas/boittier/RDKit_G2/N.pdb/SCAN_1_2_6_8_S_17_20.0/10_SCAN_1_2_6_8_F/10_SCAN_N.pdb.com
 Output=/scratch/boittier/10_SCAN_N.pdb/10_SCAN_N.pdb.out
 Initial command:
 /opt/cluster/programs/g09_d.01/g09/l1.exe "/scratch/boittier/10_SCAN_N.pdb/Gau-145258.inp" -scrdir="/scratch/boittier/10_SCAN_N.pdb/"
 Entering Link 1 = /opt/cluster/programs/g09_d.01/g09/l1.exe PID=    145260.
  
 Copyright (c) 1988,1990,1992,1993,1995,1998,2003,2009,2013,
            Gaussian, Inc.  All Rights Reserved.
  
 This is part of the Gaussian(R) 09 program.  It is based on
 the Gaussian(R) 03 system (copyright 2003, Gaussian, Inc.),
 the Gaussian(R) 98 system (copyright 1998, Gaussian, Inc.),
 the Gaussian(R) 94 system (copyright 1995, Gaussian, Inc.),
 the Gaussian 92(TM) system (copyright 1992, Gaussian, Inc.),
 the Gaussian 90(TM) system (copyright 1990, Gaussian, Inc.),
 the Gaussian 88(TM) system (copyright 1988, Gaussian, Inc.),
 the Gaussian 86(TM) system (copyright 1986, Carnegie Mellon
 University), and the Gaussian 82(TM) system (copyright 1983,
 Carnegie Mellon University). Gaussian is a federally registered
 trademark of Gaussian, Inc.
  
 This software contains proprietary and confidential information,
 including trade secrets, belonging to Gaussian, Inc.
  
 This software is provided under written license and may be
 used, copied, transmitted, or stored only in accord with that
 written license.
  
 The following legend is applicable only to US Government
 contracts under FAR:
  
                    RESTRICTED RIGHTS LEGEND
  
 Use, reproduction and disclosure by the US Government is
 subject to restrictions as set forth in subparagraphs (a)
 and (c) of the Commercial Computer Software - Restricted
 Rights clause in FAR 52.227-19.
  
 Gaussian, Inc.
 340 Quinnipiac St., Bldg. 40, Wallingford CT 06492
  
  
 ---------------------------------------------------------------
 Warning -- This program may not be used in any manner that
 competes with the business of Gaussian, Inc. or will provide
 assistance to any competitor of Gaussian, Inc.  The licensee
 of this program is prohibited from giving any competitor of
 Gaussian, Inc. access to this program.  By using this program,
 the user acknowledges that Gaussian, Inc. is engaged in the
 business of creating and licensing software in the field of
 computational chemistry and represents and warrants to the
 licensee that it is not a competitor of Gaussian, Inc. and that
 it will not use this program in any manner prohibited above.
 ---------------------------------------------------------------
  

 Cite this work as:
 Gaussian 09, Revision D.01,
 M. J. Frisch, G. W. Trucks, H. B. Schlegel, G. E. Scuseria, 
 M. A. Robb, J. R. Cheeseman, G. Scalmani, V. Barone, B. Mennucci, 
 G. A. Petersson, H. Nakatsuji, M. Caricato, X. Li, H. P. Hratchian, 
 A. F. Izmaylov, J. Bloino, G. Zheng, J. L. Sonnenberg, M. Hada, 
 M. Ehara, K. Toyota, R. Fukuda, J. Hasegawa, M. Ishida, T. Nakajima, 
 Y. Honda, O. Kitao, H. Nakai, T. Vreven, J. A. Montgomery, Jr., 
 J. E. Peralta, F. Ogliaro, M. Bearpark, J. J. Heyd, E. Brothers, 
 K. N. Kudin, V. N. Staroverov, T. Keith, R. Kobayashi, J. Normand, 
 K. Raghavachari, A. Rendell, J. C. Burant, S. S. Iyengar, J. Tomasi, 
 M. Cossi, N. Rega, J. M. Millam, M. Klene, J. E. Knox, J. B. Cross, 
 V. Bakken, C. Adamo, J. Jaramillo, R. Gomperts, R. E. Stratmann, 
 O. Yazyev, A. J. Austin, R. Cammi, C. Pomelli, J. W. Ochterski, 
 R. L. Martin, K. Morokuma, V. G. Zakrzewski, G. A. Voth, 
 P. Salvador, J. J. Dannenberg, S. Dapprich, A. D. Daniels, 
 O. Farkas, J. B. Foresman, J. V. Ortiz, J. Cioslowski, 
 and D. J. Fox, Gaussian, Inc., Wallingford CT, 2013.
 
 ******************************************
 Gaussian 09:  ES64L-G09RevD.01 24-Apr-2013
                26-May-2021 
 ******************************************
 %chk=/home/unibas/boittier/RDKit_G2/N.pdb/SCAN_1_2_6_8_S_17_20.0/10_SCAN_1_2_6_8
 _F/N.pdb.chk
 %nproc=8
 Will use up to    8 processors via shared memory.
 %mem=16GB
 -----------------------------
 #p wB97XD/6-31+G Opt=ModRedun
 -----------------------------
 1/14=-1,18=120,19=15,26=3,38=1/1,3;
 2/9=110,12=2,17=6,18=5,40=1/2;
 3/5=1,6=6,7=10,11=2,16=1,25=1,30=1,71=1,74=-58/1,2,3;
 4//1;
 5/5=2,38=5/2;
 6/7=2,8=2,9=2,10=2,28=1/1;
 7//1,2,3,16;
 1/14=-1,18=20,19=15,26=3/3(2);
 2/9=110/2;
 99//99;
 2/9=110/2;
 3/5=1,6=6,7=10,11=2,16=1,25=1,30=1,71=1,74=-58/1,2,3;
 4/5=5,16=3,69=1/1;
 5/5=2,38=5/2;
 7//1,2,3,16;
 1/14=-1,18=20,19=15,26=3/3(-5);
 2/9=110/2;
 6/7=2,8=2,9=2,10=2,19=2,28=1/1;
 99/9=1/99;
 Leave Link    1 at Wed May 26 09:20:48 2021, MaxMem=  2147483648 cpu:         0.2
 (Enter /opt/cluster/programs/g09_d.01/g09/l101.exe)
 -----
 N.pdb
 -----
 Symbolic Z-matrix:
 Charge =  0 Multiplicity = 1
 C                     2.09232   1.13759   0.03854 
 C                     1.4881   -0.22003  -0.17912 
 H                     2.231     1.64746  -0.92212 
 H                     3.05608   1.03413   0.53789 
 H                     1.42967   1.7645    0.64434 
 C                     0.13764  -0.29859  -0.89817 
 O                     2.05405  -1.26271   0.15626 
 C                    -1.04158  -0.00305  -0.01179 
 H                     0.01412  -1.31357  -1.2819 
 H                     0.10379   0.40835  -1.73185 
 F                    -1.0894   -0.81967   1.10729 
 F                    -2.2402   -0.17524  -0.6959 
 F                    -1.03995   1.31328   0.45602 
 
 The following ModRedundant input section has been read:
 D       1       2       6       8 F                                           
 
 NAtoms=     13 NQM=       13 NQMF=       0 NMMI=      0 NMMIF=      0
                NMic=       0 NMicF=      0.
                    Isotopes and Nuclear Properties:
 (Nuclear quadrupole moments (NQMom) in fm**2, nuclear magnetic moments (NMagM)
  in nuclear magnetons)

  Atom         1           2           3           4           5           6           7           8           9          10
 IAtWgt=          12          12           1           1           1          12          16          12           1           1
 AtmWgt=  12.0000000  12.0000000   1.0078250   1.0078250   1.0078250  12.0000000  15.9949146  12.0000000   1.0078250   1.0078250
 NucSpn=           0           0           1           1           1           0           0           0           1           1
 AtZEff=   0.0000000   0.0000000   0.0000000   0.0000000   0.0000000   0.0000000   0.0000000   0.0000000   0.0000000   0.0000000
 NQMom=    0.0000000   0.0000000   0.0000000   0.0000000   0.0000000   0.0000000   0.0000000   0.0000000   0.0000000   0.0000000
 NMagM=    0.0000000   0.0000000   2.7928460   2.7928460   2.7928460   0.0000000   0.0000000   0.0000000   2.7928460   2.7928460
 AtZNuc=   6.0000000   6.0000000   1.0000000   1.0000000   1.0000000   6.0000000   8.0000000   6.0000000   1.0000000   1.0000000

  Atom        11          12          13
 IAtWgt=          19          19          19
 AtmWgt=  18.9984033  18.9984033  18.9984033
 NucSpn=           1           1           1
 AtZEff=   0.0000000   0.0000000   0.0000000
 NQMom=    0.0000000   0.0000000   0.0000000
 NMagM=    2.6288670   2.6288670   2.6288670
 AtZNuc=   9.0000000   9.0000000   9.0000000
 Leave Link  101 at Wed May 26 09:20:48 2021, MaxMem=  2147483648 cpu:         4.2
 (Enter /opt/cluster/programs/g09_d.01/g09/l103.exe)

 GradGradGradGradGradGradGradGradGradGradGradGradGradGradGradGradGradGrad
 Berny optimization.
 Initialization pass.
                           ----------------------------
                           !    Initial Parameters    !
                           ! (Angstroms and Degrees)  !
 --------------------------                            --------------------------
 ! Name  Definition              Value          Derivative Info.                !
 --------------------------------------------------------------------------------
 ! R1    R(1,2)                  1.5019         estimate D2E/DX2                !
 ! R2    R(1,3)                  1.0964         estimate D2E/DX2                !
 ! R3    R(1,4)                  1.0904         estimate D2E/DX2                !
 ! R4    R(1,5)                  1.095          estimate D2E/DX2                !
 ! R5    R(2,6)                  1.532          estimate D2E/DX2                !
 ! R6    R(2,7)                  1.2329         estimate D2E/DX2                !
 ! R7    R(6,8)                  1.5045         estimate D2E/DX2                !
 ! R8    R(6,9)                  1.0921         estimate D2E/DX2                !
 ! R9    R(6,10)                 1.0936         estimate D2E/DX2                !
 ! R10   R(8,11)                 1.3862         estimate D2E/DX2                !
 ! R11   R(8,12)                 1.3908         estimate D2E/DX2                !
 ! R12   R(8,13)                 1.397          estimate D2E/DX2                !
 ! A1    A(2,1,3)              110.1383         estimate D2E/DX2                !
 ! A2    A(2,1,4)              109.6456         estimate D2E/DX2                !
 ! A3    A(2,1,5)              110.7467         estimate D2E/DX2                !
 ! A4    A(3,1,4)              109.4867         estimate D2E/DX2                !
 ! A5    A(3,1,5)              107.1596         estimate D2E/DX2                !
 ! A6    A(4,1,5)              109.6242         estimate D2E/DX2                !
 ! A7    A(1,2,6)              117.9708         estimate D2E/DX2                !
 ! A8    A(1,2,7)              122.7107         estimate D2E/DX2                !
 ! A9    A(6,2,7)              119.2737         estimate D2E/DX2                !
 ! A10   A(2,6,8)              113.8487         estimate D2E/DX2                !
 ! A11   A(2,6,9)              108.1964         estimate D2E/DX2                !
 ! A12   A(2,6,10)             110.6072         estimate D2E/DX2                !
 ! A13   A(8,6,9)              107.5129         estimate D2E/DX2                !
 ! A14   A(8,6,10)             107.3302         estimate D2E/DX2                !
 ! A15   A(9,6,10)             109.2341         estimate D2E/DX2                !
 ! A16   A(6,8,11)             112.764          estimate D2E/DX2                !
 ! A17   A(6,8,12)             111.1843         estimate D2E/DX2                !
 ! A18   A(6,8,13)             112.4244         estimate D2E/DX2                !
 ! A19   A(11,8,12)            107.1234         estimate D2E/DX2                !
 ! A20   A(11,8,13)            106.5471         estimate D2E/DX2                !
 ! A21   A(12,8,13)            106.4026         estimate D2E/DX2                !
 ! D1    D(3,1,2,6)            -58.1643         estimate D2E/DX2                !
 ! D2    D(3,1,2,7)            119.3784         estimate D2E/DX2                !
 ! D3    D(4,1,2,6)           -178.7069         estimate D2E/DX2                !
 ! D4    D(4,1,2,7)             -1.1642         estimate D2E/DX2                !
 ! D5    D(5,1,2,6)             60.1914         estimate D2E/DX2                !
 ! D6    D(5,1,2,7)           -122.2659         estimate D2E/DX2                !
 ! D7    D(1,2,6,8)            -80.2166         Frozen                          !
 ! D8    D(1,2,6,9)            160.3345         estimate D2E/DX2                !
 ! D9    D(1,2,6,10)            40.7257         estimate D2E/DX2                !
 ! D10   D(7,2,6,8)            102.1536         estimate D2E/DX2                !
 ! D11   D(7,2,6,9)            -17.2952         estimate D2E/DX2                !
 ! D12   D(7,2,6,10)          -136.9041         estimate D2E/DX2                !
 ! D13   D(2,6,8,11)           -55.7421         estimate D2E/DX2                !
 ! D14   D(2,6,8,12)          -176.0783         estimate D2E/DX2                !
 ! D15   D(2,6,8,13)            64.7415         estimate D2E/DX2                !
 ! D16   D(9,6,8,11)            64.0936         estimate D2E/DX2                !
 ! D17   D(9,6,8,12)           -56.2425         estimate D2E/DX2                !
 ! D18   D(9,6,8,13)          -175.4228         estimate D2E/DX2                !
 ! D19   D(10,6,8,11)         -178.4979         estimate D2E/DX2                !
 ! D20   D(10,6,8,12)           61.1659         estimate D2E/DX2                !
 ! D21   D(10,6,8,13)          -58.0143         estimate D2E/DX2                !
 --------------------------------------------------------------------------------
 Trust Radius=3.00D-01 FncErr=1.00D-07 GrdErr=1.00D-06
 Number of steps in this run=     64 maximum allowed number of steps=    100.
 GradGradGradGradGradGradGradGradGradGradGradGradGradGradGradGradGradGrad

 Leave Link  103 at Wed May 26 09:20:48 2021, MaxMem=  2147483648 cpu:         0.1
 (Enter /opt/cluster/programs/g09_d.01/g09/l202.exe)
                          Input orientation:                          
 ---------------------------------------------------------------------
 Center     Atomic      Atomic             Coordinates (Angstroms)
 Number     Number       Type             X           Y           Z
 ---------------------------------------------------------------------
      1          6           0        2.092317    1.137585    0.038544
      2          6           0        1.488098   -0.220034   -0.179115
      3          1           0        2.231002    1.647460   -0.922121
      4          1           0        3.056082    1.034126    0.537888
      5          1           0        1.429666    1.764497    0.644337
      6          6           0        0.137644   -0.298589   -0.898169
      7          8           0        2.054055   -1.262707    0.156260
      8          6           0       -1.041583   -0.003045   -0.011786
      9          1           0        0.014124   -1.313574   -1.281896
     10          1           0        0.103787    0.408345   -1.731850
     11          9           0       -1.089403   -0.819671    1.107290
     12          9           0       -2.240200   -0.175239   -0.695896
     13          9           0       -1.039948    1.313277    0.456019
 ---------------------------------------------------------------------
                    Distance matrix (angstroms):
                    1          2          3          4          5
     1  C    0.000000
     2  C    1.501861   0.000000
     3  H    1.096396   2.142778   0.000000
     4  H    1.090363   2.132038   1.785654   0.000000
     5  H    1.095039   2.149384   1.763414   1.786058   0.000000
     6  C    2.600149   1.531971   2.858291   3.515063   2.881834
     7  O    2.403481   1.232863   3.108583   2.534786   3.129224
     8  C    3.335401   2.544478   3.776598   4.262479   3.108339
     9  H    3.474281   2.141157   3.716411   4.251684   3.897262
    10  H    2.760496   2.173054   2.591546   3.776157   3.040291
    11  F    3.885410   2.942433   4.607639   4.576661   3.638401
    12  F    4.586242   3.764210   4.833741   5.570942   4.361962
    13  F    3.164844   3.024145   3.565117   4.106347   2.517550
                    6          7          8          9         10
     6  C    0.000000
     7  O    2.390392   0.000000
     8  C    1.504526   3.346336   0.000000
     9  H    1.092107   2.496437   2.108360   0.000000
    10  H    1.093584   3.187620   2.107068   1.781994   0.000000
    11  F    2.408119   3.313920   1.386180   2.677671   3.315485
    12  F    2.389617   4.511029   1.390806   2.592524   2.628316
    13  F    2.412190   4.037128   1.396978   3.321410   2.629411
                   11         12         13
    11  F    0.000000
    12  F    2.234078   0.000000
    13  F    2.230710   2.232307   0.000000
 Stoichiometry    C4H5F3O
 Framework group  C1[X(C4H5F3O)]
 Deg. of freedom    33
 Full point group                 C1      NOp   1
 Largest Abelian subgroup         C1      NOp   1
 Largest concise Abelian subgroup C1      NOp   1
                         Standard orientation:                         
 ---------------------------------------------------------------------
 Center     Atomic      Atomic             Coordinates (Angstroms)
 Number     Number       Type             X           Y           Z
 ---------------------------------------------------------------------
      1          6           0       -2.092317    1.137585   -0.038544
      2          6           0       -1.488098   -0.220034    0.179115
      3          1           0       -2.231002    1.647460    0.922121
      4          1           0       -3.056082    1.034126   -0.537888
      5          1           0       -1.429666    1.764497   -0.644337
      6          6           0       -0.137644   -0.298589    0.898169
      7          8           0       -2.054055   -1.262707   -0.156260
      8          6           0        1.041583   -0.003045    0.011786
      9          1           0       -0.014124   -1.313574    1.281896
     10          1           0       -0.103787    0.408345    1.731850
     11          9           0        1.089403   -0.819671   -1.107290
     12          9           0        2.240200   -0.175239    0.695896
     13          9           0        1.039948    1.313277   -0.456019
 ---------------------------------------------------------------------
 Rotational constants (GHZ):      3.3645403      1.3761279      1.2284460
 Leave Link  202 at Wed May 26 09:20:48 2021, MaxMem=  2147483648 cpu:         0.0
 (Enter /opt/cluster/programs/g09_d.01/g09/l301.exe)
 Standard basis: 6-31+G (6D, 7F)
 Ernie: Thresh=  0.10000D-02 Tol=  0.10000D-05 Strict=F.
 There are   114 symmetry adapted cartesian basis functions of A   symmetry.
 There are   114 symmetry adapted basis functions of A   symmetry.
   114 basis functions,   228 primitive gaussians,   114 cartesian basis functions
    32 alpha electrons       32 beta electrons
       nuclear repulsion energy       404.3728522385 Hartrees.
 IExCor= 4639 DFT=T Ex+Corr=wB97XD ExCW=0 ScaHFX=  1.000000
 ScaDFX=  1.000000  1.000000  1.000000  1.000000 ScalE2=  1.000000  1.000000
 IRadAn=      0 IRanWt=     -1 IRanGd=            0 ICorTp=0 IEmpDi=121
  HFx wShort=  0.000000 wLong=  0.200000 cFull=  0.222036 cShort=  0.000000 cLong=  0.777964
  DFx wShort=  0.000000 wLong=  0.200000 cFull=  0.000000 cShort=  0.000000 cLong=  1.000000
 NAtoms=   13 NActive=   13 NUniq=   13 SFac= 1.00D+00 NAtFMM=   60 NAOKFM=F Big=F
 Integral buffers will be    131072 words long.
 Raffenetti 2 integral format.
 Two-electron integral symmetry is turned on.
 R6Disp:  Grimme-D2 Dispersion energy=       -0.0060299722 Hartrees.
 Nuclear repulsion after empirical dispersion term =      404.3668222663 Hartrees.
 Leave Link  301 at Wed May 26 09:20:48 2021, MaxMem=  2147483648 cpu:         0.3
 (Enter /opt/cluster/programs/g09_d.01/g09/l302.exe)
 NPDir=0 NMtPBC=     1 NCelOv=     1 NCel=       1 NClECP=     1 NCelD=      1
         NCelK=      1 NCelE2=     1 NClLst=     1 CellRange=     0.0.
 One-electron integrals computed using PRISM.
 NBasis=   114 RedAO= T EigKep=  9.64D-05  NBF=   114
 NBsUse=   114 1.00D-06 EigRej= -1.00D+00 NBFU=   114
 Precomputing XC quadrature grid using
 IXCGrd= 4 IRadAn=           0 IRanWt=          -1 IRanGd=           0 AccXCQ= 0.00D+00.
 Generated NRdTot=       0 NPtTot=           0 NUsed=           0 NTot=          32
 NSgBfM=   114   114   114   114   114 MxSgAt=    13 MxSgA2=    13.
 Leave Link  302 at Wed May 26 09:20:49 2021, MaxMem=  2147483648 cpu:         0.9
 (Enter /opt/cluster/programs/g09_d.01/g09/l303.exe)
 DipDrv:  MaxL=1.
 Leave Link  303 at Wed May 26 09:20:49 2021, MaxMem=  2147483648 cpu:         0.3
 (Enter /opt/cluster/programs/g09_d.01/g09/l401.exe)
 ExpMin= 4.38D-02 ExpMax= 7.00D+03 ExpMxC= 1.05D+03 IAcc=2 IRadAn=         4 AccDes= 0.00D+00
 Harris functional with IExCor= 4639 and IRadAn=       4 diagonalized for initial guess.
 HarFok:  IExCor= 4639 AccDes= 0.00D+00 IRadAn=         4 IDoV= 1 UseB2=F ITyADJ=14
 ICtDFT=  3500011 ScaDFX=  1.000000  1.000000  1.000000  1.000000
 FoFCou: FMM=F IPFlag=           0 FMFlag=      100000 FMFlg1=           0
         NFxFlg=           0 DoJE=T BraDBF=F KetDBF=T FulRan=T
         wScrn=  0.000000 ICntrl=     500 IOpCl=  0 I1Cent=   200000004 NGrid=           0
         NMat0=    1 NMatS0=      1 NMatT0=    0 NMatD0=    1 NMtDS0=    0 NMtDT0=    0
 Petite list used in FoFCou.
 Harris En= -511.190881235842    
 JPrj=0 DoOrth=F DoCkMO=F.
 Leave Link  401 at Wed May 26 09:20:49 2021, MaxMem=  2147483648 cpu:         2.0
 (Enter /opt/cluster/programs/g09_d.01/g09/l502.exe)
 Closed shell SCF:
 Using DIIS extrapolation, IDIIS=  1040.
 Integral symmetry usage will be decided dynamically.
 Keep R1 ints in memory in canonical form, NReq=43969700.
 IVT=       59316 IEndB=       59316 NGot=  2147483648 MDV=  2104449753
 LenX=  2104449753 LenY=  2104436316
 Requested convergence on RMS density matrix=1.00D-08 within 128 cycles.
 Requested convergence on MAX density matrix=1.00D-06.
 Requested convergence on             energy=1.00D-06.
 No special actions if energy rises.
 FoFCou: FMM=F IPFlag=           0 FMFlag=           0 FMFlg1=           0
         NFxFlg=           0 DoJE=F BraDBF=F KetDBF=F FulRan=T
         wScrn=  0.000000 ICntrl=     600 IOpCl=  0 I1Cent=           0 NGrid=           0
         NMat0=    1 NMatS0=   6555 NMatT0=    0 NMatD0=    1 NMtDS0=    0 NMtDT0=    0
 Symmetry not used in FoFCou.

 Cycle   1  Pass 1  IDiag  1:
 E= -529.579078845671    
 DIIS: error= 6.90D-02 at cycle   1 NSaved=   1.
 NSaved= 1 IEnMin= 1 EnMin= -529.579078845671     IErMin= 1 ErrMin= 6.90D-02
 ErrMax= 6.90D-02  0.00D+00 EMaxC= 1.00D-01 BMatC= 5.32D-01 BMatP= 5.32D-01
 IDIUse=3 WtCom= 3.10D-01 WtEn= 6.90D-01
 Coeff-Com:  0.100D+01
 Coeff-En:   0.100D+01
 Coeff:      0.100D+01
 Gap=     0.416 Goal=   None    Shift=    0.000
 GapD=    0.416 DampG=2.000 DampE=0.500 DampFc=1.0000 IDamp=-1.
 RMSDP=2.05D-02 MaxDP=8.48D-01              OVMax= 1.32D-01

 Cycle   2  Pass 1  IDiag  1:
 E= -529.730459063695     Delta-E=       -0.151380218025 Rises=F Damp=F
 DIIS: error= 5.78D-02 at cycle   2 NSaved=   2.
 NSaved= 2 IEnMin= 2 EnMin= -529.730459063695     IErMin= 2 ErrMin= 5.78D-02
 ErrMax= 5.78D-02  0.00D+00 EMaxC= 1.00D-01 BMatC= 3.18D-01 BMatP= 5.32D-01
 IDIUse=3 WtCom= 4.22D-01 WtEn= 5.78D-01
 Coeff-Com:  0.430D+00 0.570D+00
 Coeff-En:   0.324D+00 0.676D+00
 Coeff:      0.369D+00 0.631D+00
 Gap=     0.536 Goal=   None    Shift=    0.000
 RMSDP=4.06D-03 MaxDP=7.57D-02 DE=-1.51D-01 OVMax= 5.81D-02

 Cycle   3  Pass 1  IDiag  1:
 E= -529.909106534490     Delta-E=       -0.178647470795 Rises=F Damp=F
 DIIS: error= 1.34D-02 at cycle   3 NSaved=   3.
 NSaved= 3 IEnMin= 3 EnMin= -529.909106534490     IErMin= 3 ErrMin= 1.34D-02
 ErrMax= 1.34D-02  0.00D+00 EMaxC= 1.00D-01 BMatC= 2.44D-02 BMatP= 3.18D-01
 IDIUse=3 WtCom= 8.66D-01 WtEn= 1.34D-01
 Coeff-Com:  0.969D-01 0.260D+00 0.643D+00
 Coeff-En:   0.000D+00 0.000D+00 0.100D+01
 Coeff:      0.839D-01 0.225D+00 0.691D+00
 Gap=     0.385 Goal=   None    Shift=    0.000
 RMSDP=4.02D-03 MaxDP=1.39D-01 DE=-1.79D-01 OVMax= 3.37D-02

 Cycle   4  Pass 1  IDiag  1:
 E= -529.923048381069     Delta-E=       -0.013941846579 Rises=F Damp=F
 DIIS: error= 4.30D-03 at cycle   4 NSaved=   4.
 NSaved= 4 IEnMin= 4 EnMin= -529.923048381069     IErMin= 4 ErrMin= 4.30D-03
 ErrMax= 4.30D-03  0.00D+00 EMaxC= 1.00D-01 BMatC= 3.93D-03 BMatP= 2.44D-02
 IDIUse=3 WtCom= 9.57D-01 WtEn= 4.30D-02
 Coeff-Com: -0.521D-02 0.251D-01 0.333D+00 0.647D+00
 Coeff-En:   0.000D+00 0.000D+00 0.109D+00 0.891D+00
 Coeff:     -0.499D-02 0.241D-01 0.323D+00 0.658D+00
 Gap=     0.375 Goal=   None    Shift=    0.000
 RMSDP=8.19D-04 MaxDP=1.25D-02 DE=-1.39D-02 OVMax= 1.79D-02

 Cycle   5  Pass 1  IDiag  1:
 E= -529.925813020358     Delta-E=       -0.002764639289 Rises=F Damp=F
 DIIS: error= 1.24D-03 at cycle   5 NSaved=   5.
 NSaved= 5 IEnMin= 5 EnMin= -529.925813020358     IErMin= 5 ErrMin= 1.24D-03
 ErrMax= 1.24D-03  0.00D+00 EMaxC= 1.00D-01 BMatC= 2.94D-04 BMatP= 3.93D-03
 IDIUse=3 WtCom= 9.88D-01 WtEn= 1.24D-02
 Coeff-Com: -0.903D-02-0.275D-02 0.152D+00 0.378D+00 0.481D+00
 Coeff-En:   0.000D+00 0.000D+00 0.000D+00 0.000D+00 0.100D+01
 Coeff:     -0.892D-02-0.271D-02 0.150D+00 0.374D+00 0.488D+00
 Gap=     0.378 Goal=   None    Shift=    0.000
 RMSDP=6.63D-04 MaxDP=2.54D-02 DE=-2.76D-03 OVMax= 4.77D-03

 Cycle   6  Pass 1  IDiag  1:
 E= -529.926026445003     Delta-E=       -0.000213424644 Rises=F Damp=F
 DIIS: error= 2.07D-04 at cycle   6 NSaved=   6.
 NSaved= 6 IEnMin= 6 EnMin= -529.926026445003     IErMin= 6 ErrMin= 2.07D-04
 ErrMax= 2.07D-04  0.00D+00 EMaxC= 1.00D-01 BMatC= 6.94D-06 BMatP= 2.94D-04
 IDIUse=3 WtCom= 9.98D-01 WtEn= 2.07D-03
 Coeff-Com: -0.108D-02-0.460D-02-0.930D-02-0.126D-02 0.115D+00 0.901D+00
 Coeff-En:   0.000D+00 0.000D+00 0.000D+00 0.000D+00 0.000D+00 0.100D+01
 Coeff:     -0.107D-02-0.459D-02-0.928D-02-0.125D-02 0.115D+00 0.901D+00
 Gap=     0.378 Goal=   None    Shift=    0.000
 RMSDP=1.72D-04 MaxDP=5.98D-03 DE=-2.13D-04 OVMax= 1.46D-03

 Cycle   7  Pass 1  IDiag  1:
 E= -529.926035130186     Delta-E=       -0.000008685183 Rises=F Damp=F
 DIIS: error= 5.65D-05 at cycle   7 NSaved=   7.
 NSaved= 7 IEnMin= 7 EnMin= -529.926035130186     IErMin= 7 ErrMin= 5.65D-05
 ErrMax= 5.65D-05  0.00D+00 EMaxC= 1.00D-01 BMatC= 6.69D-07 BMatP= 6.94D-06
 IDIUse=1 WtCom= 1.00D+00 WtEn= 0.00D+00
 Coeff-Com:  0.412D-03-0.159D-02-0.173D-01-0.332D-01-0.108D-01 0.303D+00
 Coeff-Com:  0.759D+00
 Coeff:      0.412D-03-0.159D-02-0.173D-01-0.332D-01-0.108D-01 0.303D+00
 Coeff:      0.759D+00
 Gap=     0.378 Goal=   None    Shift=    0.000
 RMSDP=6.16D-05 MaxDP=2.20D-03 DE=-8.69D-06 OVMax= 3.72D-04

 Cycle   8  Pass 1  IDiag  1:
 E= -529.926036058660     Delta-E=       -0.000000928475 Rises=F Damp=F
 DIIS: error= 1.86D-05 at cycle   8 NSaved=   8.
 NSaved= 8 IEnMin= 8 EnMin= -529.926036058660     IErMin= 8 ErrMin= 1.86D-05
 ErrMax= 1.86D-05  0.00D+00 EMaxC= 1.00D-01 BMatC= 2.76D-08 BMatP= 6.69D-07
 IDIUse=1 WtCom= 1.00D+00 WtEn= 0.00D+00
 Coeff-Com:  0.898D-04 0.176D-03-0.559D-03-0.151D-02-0.120D-01-0.373D-01
 Coeff-Com:  0.548D-01 0.996D+00
 Coeff:      0.898D-04 0.176D-03-0.559D-03-0.151D-02-0.120D-01-0.373D-01
 Coeff:      0.548D-01 0.996D+00
 Gap=     0.378 Goal=   None    Shift=    0.000
 RMSDP=1.61D-05 MaxDP=5.22D-04 DE=-9.28D-07 OVMax= 1.96D-04

 Cycle   9  Pass 1  IDiag  1:
 E= -529.926036128690     Delta-E=       -0.000000070029 Rises=F Damp=F
 DIIS: error= 8.08D-06 at cycle   9 NSaved=   9.
 NSaved= 9 IEnMin= 9 EnMin= -529.926036128690     IErMin= 9 ErrMin= 8.08D-06
 ErrMax= 8.08D-06  0.00D+00 EMaxC= 1.00D-01 BMatC= 6.29D-09 BMatP= 2.76D-08
 IDIUse=1 WtCom= 1.00D+00 WtEn= 0.00D+00
 Coeff-Com:  0.519D-06 0.207D-03 0.127D-02 0.240D-02-0.415D-02-0.395D-01
 Coeff-Com: -0.396D-01 0.382D+00 0.697D+00
 Coeff:      0.519D-06 0.207D-03 0.127D-02 0.240D-02-0.415D-02-0.395D-01
 Coeff:     -0.396D-01 0.382D+00 0.697D+00
 Gap=     0.378 Goal=   None    Shift=    0.000
 RMSDP=2.68D-06 MaxDP=6.14D-05 DE=-7.00D-08 OVMax= 7.60D-05

 Cycle  10  Pass 1  IDiag  1:
 E= -529.926036140663     Delta-E=       -0.000000011974 Rises=F Damp=F
 DIIS: error= 4.85D-06 at cycle  10 NSaved=  10.
 NSaved=10 IEnMin=10 EnMin= -529.926036140663     IErMin=10 ErrMin= 4.85D-06
 ErrMax= 4.85D-06  0.00D+00 EMaxC= 1.00D-01 BMatC= 1.38D-09 BMatP= 6.29D-09
 IDIUse=1 WtCom= 1.00D+00 WtEn= 0.00D+00
 Coeff-Com: -0.236D-04 0.306D-04 0.640D-03 0.140D-02 0.173D-02-0.375D-02
 Coeff-Com: -0.294D-01-0.141D+00 0.261D+00 0.910D+00
 Coeff:     -0.236D-04 0.306D-04 0.640D-03 0.140D-02 0.173D-02-0.375D-02
 Coeff:     -0.294D-01-0.141D+00 0.261D+00 0.910D+00
 Gap=     0.378 Goal=   None    Shift=    0.000
 RMSDP=1.76D-06 MaxDP=3.16D-05 DE=-1.20D-08 OVMax= 7.06D-05

 Cycle  11  Pass 1  IDiag  1:
 E= -529.926036145740     Delta-E=       -0.000000005076 Rises=F Damp=F
 DIIS: error= 2.06D-06 at cycle  11 NSaved=  11.
 NSaved=11 IEnMin=11 EnMin= -529.926036145740     IErMin=11 ErrMin= 2.06D-06
 ErrMax= 2.06D-06  0.00D+00 EMaxC= 1.00D-01 BMatC= 1.26D-10 BMatP= 1.38D-09
 IDIUse=1 WtCom= 1.00D+00 WtEn= 0.00D+00
 Coeff-Com:  0.273D-05-0.343D-04-0.255D-03-0.502D-03 0.533D-03 0.656D-02
 Coeff-Com:  0.729D-02-0.499D-01-0.128D+00-0.791D-01 0.124D+01
 Coeff:      0.273D-05-0.343D-04-0.255D-03-0.502D-03 0.533D-03 0.656D-02
 Coeff:      0.729D-02-0.499D-01-0.128D+00-0.791D-01 0.124D+01
 Gap=     0.378 Goal=   None    Shift=    0.000
 RMSDP=9.30D-07 MaxDP=1.86D-05 DE=-5.08D-09 OVMax= 4.24D-05

 Cycle  12  Pass 1  IDiag  1:
 E= -529.926036146813     Delta-E=       -0.000000001074 Rises=F Damp=F
 DIIS: error= 5.61D-07 at cycle  12 NSaved=  12.
 NSaved=12 IEnMin=12 EnMin= -529.926036146813     IErMin=12 ErrMin= 5.61D-07
 ErrMax= 5.61D-07  0.00D+00 EMaxC= 1.00D-01 BMatC= 2.53D-11 BMatP= 1.26D-10
 IDIUse=1 WtCom= 1.00D+00 WtEn= 0.00D+00
 Coeff-Com:  0.314D-05-0.144D-04-0.151D-03-0.320D-03-0.588D-04 0.201D-02
 Coeff-Com:  0.587D-02 0.107D-01-0.712D-01-0.165D+00 0.332D+00 0.885D+00
 Coeff:      0.314D-05-0.144D-04-0.151D-03-0.320D-03-0.588D-04 0.201D-02
 Coeff:      0.587D-02 0.107D-01-0.712D-01-0.165D+00 0.332D+00 0.885D+00
 Gap=     0.378 Goal=   None    Shift=    0.000
 RMSDP=2.89D-07 MaxDP=5.39D-06 DE=-1.07D-09 OVMax= 1.23D-05

 Cycle  13  Pass 1  IDiag  1:
 E= -529.926036146916     Delta-E=       -0.000000000103 Rises=F Damp=F
 DIIS: error= 1.48D-07 at cycle  13 NSaved=  13.
 NSaved=13 IEnMin=13 EnMin= -529.926036146916     IErMin=13 ErrMin= 1.48D-07
 ErrMax= 1.48D-07  0.00D+00 EMaxC= 1.00D-01 BMatC= 2.01D-12 BMatP= 2.53D-11
 IDIUse=1 WtCom= 1.00D+00 WtEn= 0.00D+00
 Coeff-Com: -0.372D-06 0.377D-05 0.310D-04 0.545D-04-0.396D-04-0.885D-03
 Coeff-Com: -0.857D-03 0.695D-02 0.151D-01 0.801D-02-0.159D+00-0.162D-01
 Coeff-Com:  0.115D+01
 Coeff:     -0.372D-06 0.377D-05 0.310D-04 0.545D-04-0.396D-04-0.885D-03
 Coeff:     -0.857D-03 0.695D-02 0.151D-01 0.801D-02-0.159D+00-0.162D-01
 Coeff:      0.115D+01
 Gap=     0.378 Goal=   None    Shift=    0.000
 RMSDP=1.11D-07 MaxDP=1.84D-06 DE=-1.03D-10 OVMax= 3.89D-06

 Cycle  14  Pass 1  IDiag  1:
 E= -529.926036146924     Delta-E=       -0.000000000008 Rises=F Damp=F
 DIIS: error= 1.66D-08 at cycle  14 NSaved=  14.
 NSaved=14 IEnMin=14 EnMin= -529.926036146924     IErMin=14 ErrMin= 1.66D-08
 ErrMax= 1.66D-08  0.00D+00 EMaxC= 1.00D-01 BMatC= 5.29D-14 BMatP= 2.01D-12
 IDIUse=1 WtCom= 1.00D+00 WtEn= 0.00D+00
 Coeff-Com: -0.556D-07 0.165D-06 0.173D-05 0.390D-05 0.134D-04 0.125D-04
 Coeff-Com: -0.490D-04-0.967D-03 0.200D-03 0.437D-02 0.626D-02-0.294D-01
 Coeff-Com: -0.107D+00 0.113D+01
 Coeff:     -0.556D-07 0.165D-06 0.173D-05 0.390D-05 0.134D-04 0.125D-04
 Coeff:     -0.490D-04-0.967D-03 0.200D-03 0.437D-02 0.626D-02-0.294D-01
 Coeff:     -0.107D+00 0.113D+01
 Gap=     0.378 Goal=   None    Shift=    0.000
 RMSDP=1.96D-08 MaxDP=6.31D-07 DE=-7.96D-12 OVMax= 2.96D-07

 Cycle  15  Pass 1  IDiag  1:
 E= -529.926036146922     Delta-E=        0.000000000002 Rises=F Damp=F
 DIIS: error= 3.40D-09 at cycle  15 NSaved=  15.
 NSaved=15 IEnMin=14 EnMin= -529.926036146924     IErMin=15 ErrMin= 3.40D-09
 ErrMax= 3.40D-09  0.00D+00 EMaxC= 1.00D-01 BMatC= 2.58D-15 BMatP= 5.29D-14
 IDIUse=1 WtCom= 1.00D+00 WtEn= 0.00D+00
 Coeff-Com:  0.671D-08-0.807D-07-0.777D-06-0.127D-05 0.425D-05 0.291D-04
 Coeff-Com:  0.258D-04-0.415D-03-0.412D-03 0.473D-03 0.630D-02-0.524D-02
 Coeff-Com: -0.523D-01 0.176D+00 0.876D+00
 Coeff:      0.671D-08-0.807D-07-0.777D-06-0.127D-05 0.425D-05 0.291D-04
 Coeff:      0.258D-04-0.415D-03-0.412D-03 0.473D-03 0.630D-02-0.524D-02
 Coeff:     -0.523D-01 0.176D+00 0.876D+00
 Gap=     0.378 Goal=   None    Shift=    0.000
 RMSDP=2.56D-09 MaxDP=9.24D-08 DE= 2.05D-12 OVMax= 2.01D-08

 SCF Done:  E(RwB97XD) =  -529.926036147     A.U. after   15 cycles
            NFock= 15  Conv=0.26D-08     -V/T= 2.0052
 KE= 5.271877119250D+02 PE=-2.059082089966D+03 EE= 5.976015196279D+02
 Leave Link  502 at Wed May 26 09:20:53 2021, MaxMem=  2147483648 cpu:        31.3
 (Enter /opt/cluster/programs/g09_d.01/g09/l601.exe)
 Copying SCF densities to generalized density rwf, IOpCl= 0 IROHF=0.

 **********************************************************************

            Population analysis using the SCF density.

 **********************************************************************

 Orbital symmetries:
       Occupied  (A) (A) (A) (A) (A) (A) (A) (A) (A) (A) (A) (A)
                 (A) (A) (A) (A) (A) (A) (A) (A) (A) (A) (A) (A)
                 (A) (A) (A) (A) (A) (A) (A) (A)
       Virtual   (A) (A) (A) (A) (A) (A) (A) (A) (A) (A) (A) (A)
                 (A) (A) (A) (A) (A) (A) (A) (A) (A) (A) (A) (A)
                 (A) (A) (A) (A) (A) (A) (A) (A) (A) (A) (A) (A)
                 (A) (A) (A) (A) (A) (A) (A) (A) (A) (A) (A) (A)
                 (A) (A) (A) (A) (A) (A) (A) (A) (A) (A) (A) (A)
                 (A) (A) (A) (A) (A) (A) (A) (A) (A) (A) (A) (A)
                 (A) (A) (A) (A) (A) (A) (A) (A) (A) (A)
 The electronic state is 1-A.
 Alpha  occ. eigenvalues --  -24.89033 -24.88906 -24.88857 -19.30509 -10.59513
 Alpha  occ. eigenvalues --  -10.43860 -10.36303 -10.32244  -1.43822  -1.35305
 Alpha  occ. eigenvalues --   -1.35264  -1.19590  -0.95179  -0.87446  -0.79841
 Alpha  occ. eigenvalues --   -0.71005  -0.70151  -0.69068  -0.64114  -0.59466
 Alpha  occ. eigenvalues --   -0.58464  -0.57350  -0.56743  -0.55662  -0.54153
 Alpha  occ. eigenvalues --   -0.53560  -0.52449  -0.51327  -0.51046  -0.49650
 Alpha  occ. eigenvalues --   -0.46419  -0.36989
 Alpha virt. eigenvalues --    0.00830   0.05645   0.07848   0.09227   0.10070
 Alpha virt. eigenvalues --    0.10742   0.11165   0.12423   0.12534   0.12976
 Alpha virt. eigenvalues --    0.14693   0.15936   0.16302   0.16508   0.17319
 Alpha virt. eigenvalues --    0.18222   0.18404   0.19471   0.22049   0.23077
 Alpha virt. eigenvalues --    0.26152   0.26411   0.27598   0.29686   0.30605
 Alpha virt. eigenvalues --    0.33100   0.33413   0.35446   0.36817   0.38206
 Alpha virt. eigenvalues --    0.38484   0.38689   0.39929   0.41271   0.41416
 Alpha virt. eigenvalues --    0.43273   0.43500   0.44137   0.44824   0.44988
 Alpha virt. eigenvalues --    0.46080   0.50000   0.52131   0.54045   0.54574
 Alpha virt. eigenvalues --    0.67910   0.74009   0.75666   0.76778   0.79756
 Alpha virt. eigenvalues --    0.82225   0.85356   0.87504   0.88772   0.90457
 Alpha virt. eigenvalues --    0.97900   1.00023   1.10812   1.16295   1.17973
 Alpha virt. eigenvalues --    1.21873   1.22616   1.29086   1.34473   1.35419
 Alpha virt. eigenvalues --    1.41765   1.45804   1.47910   1.55953   1.61106
 Alpha virt. eigenvalues --    1.67381   1.68852   1.72259   1.74051   1.81070
 Alpha virt. eigenvalues --    1.83092   1.84018   1.85467   1.99612   2.30117
 Alpha virt. eigenvalues --    2.32149   2.67990
          Condensed to atoms (all electrons):
               1          2          3          4          5          6
     1  C    8.049593  -0.460913   0.322263   0.342566   0.325652  -1.927853
     2  C   -0.460913   5.953527  -0.012311  -0.022194  -0.019468  -0.434352
     3  H    0.322263  -0.012311   0.474617  -0.020116  -0.022723   0.033205
     4  H    0.342566  -0.022194  -0.020116   0.444117  -0.018062   0.027360
     5  H    0.325652  -0.019468  -0.022723  -0.018062   0.450383   0.010261
     6  C   -1.927853  -0.434352   0.033205   0.027360   0.010261   8.983115
     7  O   -0.130095   0.505623   0.000798  -0.005117   0.005232  -0.242524
     8  C    0.072488   0.040866  -0.010687   0.000476   0.008634  -0.039502
     9  H    0.018464   0.016002  -0.000061  -0.000090  -0.000039   0.302406
    10  H    0.040283  -0.003580  -0.000542  -0.000026  -0.000342   0.286259
    11  F    0.017647   0.048416   0.000092  -0.000012  -0.000906  -0.159402
    12  F   -0.006938  -0.008279   0.000023   0.000021   0.000146  -0.121674
    13  F    0.038177  -0.000171  -0.001465  -0.000007   0.003390  -0.183258
               7          8          9         10         11         12
     1  C   -0.130095   0.072488   0.018464   0.040283   0.017647  -0.006938
     2  C    0.505623   0.040866   0.016002  -0.003580   0.048416  -0.008279
     3  H    0.000798  -0.010687  -0.000061  -0.000542   0.000092   0.000023
     4  H   -0.005117   0.000476  -0.000090  -0.000026  -0.000012   0.000021
     5  H    0.005232   0.008634  -0.000039  -0.000342  -0.000906   0.000146
     6  C   -0.242524  -0.039502   0.302406   0.286259  -0.159402  -0.121674
     7  O    8.261969  -0.019930  -0.001631   0.003981   0.007123  -0.000800
     8  C   -0.019930   5.155108  -0.029934  -0.033331   0.078756   0.159315
     9  H   -0.001631  -0.029934   0.417954  -0.019307  -0.004814  -0.001371
    10  H    0.003981  -0.033331  -0.019307   0.458424   0.009573  -0.004647
    11  F    0.007123   0.078756  -0.004814   0.009573   9.302637  -0.060846
    12  F   -0.000800   0.159315  -0.001371  -0.004647  -0.060846   9.296793
    13  F   -0.000076   0.122221   0.008156  -0.006261  -0.057490  -0.051996
              13
     1  C    0.038177
     2  C   -0.000171
     3  H   -0.001465
     4  H   -0.000007
     5  H    0.003390
     6  C   -0.183258
     7  O   -0.000076
     8  C    0.122221
     9  H    0.008156
    10  H   -0.006261
    11  F   -0.057490
    12  F   -0.051996
    13  F    9.330298
 Mulliken charges:
               1
     1  C   -0.701333
     2  C    0.396834
     3  H    0.236905
     4  H    0.251084
     5  H    0.257840
     6  C   -0.534039
     7  O   -0.384553
     8  C    0.495520
     9  H    0.294266
    10  H    0.269517
    11  F   -0.180774
    12  F   -0.199748
    13  F   -0.201518
 Sum of Mulliken charges =   0.00000
 Mulliken charges with hydrogens summed into heavy atoms:
               1
     1  C    0.044496
     2  C    0.396834
     6  C    0.029744
     7  O   -0.384553
     8  C    0.495520
    11  F   -0.180774
    12  F   -0.199748
    13  F   -0.201518
 Electronic spatial extent (au):  <R**2>=            973.7858
 Charge=              0.0000 electrons
 Dipole moment (field-independent basis, Debye):
    X=             -1.1115    Y=              2.2930    Z=              2.4254  Tot=              3.5179
 Quadrupole moment (field-independent basis, Debye-Ang):
   XX=            -51.9226   YY=            -48.7456   ZZ=            -44.0288
   XY=             -6.9923   XZ=             -1.3040   YZ=             -1.3084
 Traceless Quadrupole moment (field-independent basis, Debye-Ang):
   XX=             -3.6903   YY=             -0.5132   ZZ=              4.2035
   XY=             -6.9923   XZ=             -1.3040   YZ=             -1.3084
 Octapole moment (field-independent basis, Debye-Ang**2):
  XXX=             18.9511  YYY=              2.7192  ZZZ=             -1.2999  XYY=             11.0809
  XXY=             15.3028  XXZ=             -2.5135  XZZ=              3.8013  YZZ=              1.2801
  YYZ=              1.9992  XYZ=              1.1694
 Hexadecapole moment (field-independent basis, Debye-Ang**3):
 XXXX=           -742.2523 YYYY=           -255.4058 ZZZZ=           -144.4023 XXXY=            -26.8590
 XXXZ=             -9.0419 YYYX=             -9.6148 YYYZ=             -1.3034 ZZZX=             -0.8299
 ZZZY=              2.2878 XXYY=           -175.2182 XXZZ=           -144.6056 YYZZ=            -62.6446
 XXYZ=             -2.3277 YYXZ=             -0.3042 ZZXY=              1.3089
 N-N= 4.043668222663D+02 E-N=-2.059082090002D+03  KE= 5.271877119250D+02
 No NMR shielding tensors so no spin-rotation constants.
 Leave Link  601 at Wed May 26 09:20:54 2021, MaxMem=  2147483648 cpu:         0.6
 (Enter /opt/cluster/programs/g09_d.01/g09/l701.exe)
 Compute integral first derivatives.
 ... and contract with generalized density number  0.
 R6Disp: Adding Grimme-D2 dispersion energy 1st derivatives to the gradient.
 Leave Link  701 at Wed May 26 09:20:54 2021, MaxMem=  2147483648 cpu:         0.6
 (Enter /opt/cluster/programs/g09_d.01/g09/l702.exe)
 L702 exits ... SP integral derivatives will be done elsewhere.
 Leave Link  702 at Wed May 26 09:20:54 2021, MaxMem=  2147483648 cpu:         0.2
 (Enter /opt/cluster/programs/g09_d.01/g09/l703.exe)
 Compute integral first derivatives, UseDBF=F ICtDFT=           0.
 Integral derivatives from FoFJK, PRISM(SPDF).
 Calling FoFJK, ICntrl=      2127 FMM=F ISym2X=0 I1Cent= 0 IOpClX= 0 NMat=1 NMatS=1 NMatT=0.
 FoFJK:  IHMeth= 1 ICntrl=    2127 DoSepK=T KAlg= 0 I1Cent=   0 FoldK=F
 IRaf=         1 NMat=   1 IRICut=       1 DoRegI=T DoRafI=F ISym2E= 0.
 FoFCou: FMM=F IPFlag=           0 FMFlag=      100000 FMFlg1=         800
         NFxFlg=           0 DoJE=F BraDBF=F KetDBF=F FulRan=T
         wScrn=  0.000000 ICntrl=    2527 IOpCl=  0 I1Cent=           0 NGrid=           0
         NMat0=    1 NMatS0=      1 NMatT0=    0 NMatD0=    1 NMtDS0=    0 NMtDT0=    0
 Symmetry not used in FoFCou.
 Leave Link  703 at Wed May 26 09:20:55 2021, MaxMem=  2147483648 cpu:         8.4
 (Enter /opt/cluster/programs/g09_d.01/g09/l716.exe)
 Dipole        =-4.37300426D-01 9.02135603D-01 9.54217594D-01
 ***** Axes restored to original set *****
 -------------------------------------------------------------------
 Center     Atomic                   Forces (Hartrees/Bohr)
 Number     Number              X              Y              Z
 -------------------------------------------------------------------
      1        6          -0.000411933    0.000043846    0.000760749
      2        6           0.000622171    0.000245817   -0.001198368
      3        1           0.000005444   -0.000006113   -0.000000593
      4        1           0.000003674   -0.000006999   -0.000002057
      5        1           0.000006093   -0.000004853    0.000002996
      6        6          -0.000260729   -0.001104023    0.000624868
      7        8          -0.000004724   -0.000012339   -0.000005579
      8        6           0.000043964    0.000813729   -0.000202789
      9        1          -0.000010107    0.000001886    0.000000813
     10        1          -0.000004329    0.000003794    0.000002574
     11        9          -0.000003113    0.000007594    0.000000671
     12        9           0.000008358    0.000011233    0.000008466
     13        9           0.000005231    0.000006430    0.000008248
 -------------------------------------------------------------------
 Cartesian Forces:  Max     0.001198368 RMS     0.000358684
 Leave Link  716 at Wed May 26 09:20:55 2021, MaxMem=  2147483648 cpu:         0.2
 (Enter /opt/cluster/programs/g09_d.01/g09/l103.exe)

 GradGradGradGradGradGradGradGradGradGradGradGradGradGradGradGradGradGrad
 Berny optimization.
 FormGI is forming the generalized inverse of G from B-inverse, IUseBI=4.
 Internal  Forces:  Max     0.000846060 RMS     0.000184979
 Search for a local minimum.
 Step number   1 out of a maximum of   64
 All quantities printed in internal units (Hartrees-Bohrs-Radians)
 RMS Force = .30639D-05 SwitMx=.10000D-02 MixMth= 2
 Mixed Optimization -- En-DIIS/RFO-DIIS
 Second derivative matrix not updated -- first step.
 ITU=  0
     Eigenvalues ---    0.00484   0.00706   0.00741   0.03043   0.05630
     Eigenvalues ---    0.07345   0.07422   0.08271   0.08529   0.09357
     Eigenvalues ---    0.11759   0.16000   0.16000   0.16000   0.22078
     Eigenvalues ---    0.24972   0.25000   0.25000   0.25000   0.25000
     Eigenvalues ---    0.29242   0.31907   0.32183   0.34084   0.34237
     Eigenvalues ---    0.34402   0.34570   0.34771   0.46125   0.47179
     Eigenvalues ---    0.47990   0.899041000.000001000.000001000.00000
     Eigenvalues --- 1000.000001000.000001000.000001000.000001000.00000
     Eigenvalues --- 1000.000001000.000001000.000001000.000001000.00000
     Eigenvalues --- 1000.000001000.000001000.000001000.000001000.00000
     Eigenvalues --- 1000.000001000.000001000.000001000.00000
 RFO step:  Lambda= 0.00000000D+00 EMin= 4.83590833D-03
 Linear search not attempted -- first point.
 Iteration  1 RMS(Cart)=  0.00002912 RMS(Int)=  0.00000000
 Iteration  2 RMS(Cart)=  0.00000000 RMS(Int)=  0.00000000
 Iteration  1 RMS(Cart)=  0.00000000 RMS(Int)=  0.00000000
 ITry= 1 IFail=0 DXMaxC= 1.03D-04 DCOld= 1.00D+10 DXMaxT= 3.00D-01 DXLimC= 3.00D+00 Rises=F
 Variable       Old X    -DE/DX   Delta X   Delta X   Delta X     New X
                                 (Linear)    (Quad)   (Total)
    R1        2.83811  -0.00001   0.00000  -0.00003  -0.00003   2.83808
    R2        2.07189   0.00000   0.00000   0.00000   0.00000   2.07189
    R3        2.06049   0.00000   0.00000   0.00000   0.00000   2.06049
    R4        2.06932   0.00000   0.00000   0.00000   0.00000   2.06933
    R5        2.89501   0.00000   0.00000  -0.00001  -0.00001   2.89499
    R6        2.32977   0.00001   0.00000   0.00001   0.00001   2.32978
    R7        2.84314   0.00000   0.00000   0.00001   0.00001   2.84315
    R8        2.06378   0.00000   0.00000   0.00000   0.00000   2.06379
    R9        2.06657   0.00000   0.00000   0.00000   0.00000   2.06657
   R10        2.61950   0.00000   0.00000   0.00000   0.00000   2.61950
   R11        2.62824  -0.00001   0.00000  -0.00002  -0.00002   2.62822
   R12        2.63991   0.00000   0.00000   0.00001   0.00001   2.63991
    A1        1.92228   0.00000   0.00000   0.00000   0.00000   1.92227
    A2        1.91368   0.00000   0.00000   0.00003   0.00003   1.91371
    A3        1.93289   0.00000   0.00000  -0.00001  -0.00001   1.93288
    A4        1.91090   0.00000   0.00000  -0.00001  -0.00001   1.91089
    A5        1.87029   0.00000   0.00000   0.00001   0.00001   1.87030
    A6        1.91330   0.00000   0.00000  -0.00002  -0.00002   1.91329
    A7        2.05898   0.00000   0.00000  -0.00001  -0.00001   2.05897
    A8        2.14171   0.00002   0.00000   0.00002   0.00002   2.14173
    A9        2.08172  -0.00001   0.00000  -0.00001  -0.00001   2.08171
   A10        1.98703   0.00000   0.00000   0.00002   0.00002   1.98706
   A11        1.88838  -0.00001   0.00000   0.00000   0.00000   1.88838
   A12        1.93046   0.00001   0.00000   0.00002   0.00002   1.93048
   A13        1.87645   0.00037   0.00000  -0.00004  -0.00004   1.87641
   A14        1.87326  -0.00036   0.00000  -0.00002  -0.00002   1.87325
   A15        1.90649   0.00000   0.00000   0.00001   0.00001   1.90651
   A16        1.96810   0.00000   0.00000   0.00001   0.00001   1.96812
   A17        1.94053   0.00000   0.00000  -0.00001  -0.00001   1.94052
   A18        1.96218   0.00000   0.00000   0.00001   0.00001   1.96218
   A19        1.86966   0.00000   0.00000   0.00000   0.00000   1.86965
   A20        1.85960   0.00000   0.00000  -0.00002  -0.00002   1.85957
   A21        1.85708   0.00000   0.00000   0.00001   0.00001   1.85709
    D1       -1.01516  -0.00018   0.00000  -0.00003  -0.00003  -1.01519
    D2        2.08355   0.00018   0.00000  -0.00008  -0.00008   2.08347
    D3       -3.11902  -0.00018   0.00000  -0.00004  -0.00004  -3.11906
    D4       -0.02032   0.00018   0.00000  -0.00008  -0.00008  -0.02040
    D5        1.05054  -0.00018   0.00000  -0.00003  -0.00003   1.05051
    D6       -2.13394   0.00018   0.00000  -0.00007  -0.00007  -2.13402
    D7       -1.40004   0.00085   0.00000   0.00000   0.00000  -1.40004
    D8        2.79837   0.00039   0.00000   0.00004   0.00004   2.79840
    D9        0.71080   0.00038   0.00000   0.00001   0.00001   0.71080
   D10        1.78292   0.00049   0.00000   0.00004   0.00004   1.78296
   D11       -0.30186   0.00004   0.00000   0.00008   0.00008  -0.30178
   D12       -2.38943   0.00003   0.00000   0.00005   0.00005  -2.38938
   D13       -0.97288  -0.00016   0.00000   0.00000   0.00000  -0.97288
   D14       -3.07315  -0.00016   0.00000   0.00000   0.00000  -3.07315
   D15        1.12995  -0.00016   0.00000  -0.00001  -0.00001   1.12994
   D16        1.11864   0.00008   0.00000  -0.00001  -0.00001   1.11863
   D17       -0.98162   0.00008   0.00000  -0.00001  -0.00001  -0.98163
   D18       -3.06170   0.00008   0.00000  -0.00003  -0.00003  -3.06173
   D19       -3.11538   0.00008   0.00000  -0.00003  -0.00003  -3.11540
   D20        1.06755   0.00008   0.00000  -0.00003  -0.00003   1.06752
   D21       -1.01254   0.00008   0.00000  -0.00004  -0.00004  -1.01258
         Item               Value     Threshold  Converged?
 Maximum Force            0.000012     0.000450     YES
 RMS     Force            0.000003     0.000300     YES
 Maximum Displacement     0.000103     0.001800     YES
 RMS     Displacement     0.000029     0.001200     YES
 Predicted change in Energy=-1.057499D-09
 Optimization completed.
    -- Stationary point found.
                           ----------------------------
                           !   Optimized Parameters   !
                           ! (Angstroms and Degrees)  !
 --------------------------                            --------------------------
 ! Name  Definition              Value          Derivative Info.                !
 --------------------------------------------------------------------------------
 ! R1    R(1,2)                  1.5019         -DE/DX =    0.0                 !
 ! R2    R(1,3)                  1.0964         -DE/DX =    0.0                 !
 ! R3    R(1,4)                  1.0904         -DE/DX =    0.0                 !
 ! R4    R(1,5)                  1.095          -DE/DX =    0.0                 !
 ! R5    R(2,6)                  1.532          -DE/DX =    0.0                 !
 ! R6    R(2,7)                  1.2329         -DE/DX =    0.0                 !
 ! R7    R(6,8)                  1.5045         -DE/DX =    0.0                 !
 ! R8    R(6,9)                  1.0921         -DE/DX =    0.0                 !
 ! R9    R(6,10)                 1.0936         -DE/DX =    0.0                 !
 ! R10   R(8,11)                 1.3862         -DE/DX =    0.0                 !
 ! R11   R(8,12)                 1.3908         -DE/DX =    0.0                 !
 ! R12   R(8,13)                 1.397          -DE/DX =    0.0                 !
 ! A1    A(2,1,3)              110.1383         -DE/DX =    0.0                 !
 ! A2    A(2,1,4)              109.6456         -DE/DX =    0.0                 !
 ! A3    A(2,1,5)              110.7467         -DE/DX =    0.0                 !
 ! A4    A(3,1,4)              109.4867         -DE/DX =    0.0                 !
 ! A5    A(3,1,5)              107.1596         -DE/DX =    0.0                 !
 ! A6    A(4,1,5)              109.6242         -DE/DX =    0.0                 !
 ! A7    A(1,2,6)              117.9708         -DE/DX =    0.0                 !
 ! A8    A(1,2,7)              122.7107         -DE/DX =    0.0                 !
 ! A9    A(6,2,7)              119.2737         -DE/DX =    0.0                 !
 ! A10   A(2,6,8)              113.8487         -DE/DX =    0.0                 !
 ! A11   A(2,6,9)              108.1964         -DE/DX =    0.0                 !
 ! A12   A(2,6,10)             110.6072         -DE/DX =    0.0                 !
 ! A13   A(8,6,9)              107.5129         -DE/DX =    0.0004              !
 ! A14   A(8,6,10)             107.3302         -DE/DX =   -0.0004              !
 ! A15   A(9,6,10)             109.2341         -DE/DX =    0.0                 !
 ! A16   A(6,8,11)             112.764          -DE/DX =    0.0                 !
 ! A17   A(6,8,12)             111.1843         -DE/DX =    0.0                 !
 ! A18   A(6,8,13)             112.4244         -DE/DX =    0.0                 !
 ! A19   A(11,8,12)            107.1234         -DE/DX =    0.0                 !
 ! A20   A(11,8,13)            106.5471         -DE/DX =    0.0                 !
 ! A21   A(12,8,13)            106.4026         -DE/DX =    0.0                 !
 ! D1    D(3,1,2,6)            -58.1643         -DE/DX =   -0.0002              !
 ! D2    D(3,1,2,7)            119.3784         -DE/DX =    0.0002              !
 ! D3    D(4,1,2,6)           -178.7069         -DE/DX =   -0.0002              !
 ! D4    D(4,1,2,7)             -1.1642         -DE/DX =    0.0002              !
 ! D5    D(5,1,2,6)             60.1914         -DE/DX =   -0.0002              !
 ! D6    D(5,1,2,7)           -122.2659         -DE/DX =    0.0002              !
 ! D7    D(1,2,6,8)            -80.2166         -DE/DX =    0.0008              !
 ! D8    D(1,2,6,9)            160.3345         -DE/DX =    0.0004              !
 ! D9    D(1,2,6,10)            40.7257         -DE/DX =    0.0004              !
 ! D10   D(7,2,6,8)            102.1536         -DE/DX =    0.0005              !
 ! D11   D(7,2,6,9)            -17.2952         -DE/DX =    0.0                 !
 ! D12   D(7,2,6,10)          -136.9041         -DE/DX =    0.0                 !
 ! D13   D(2,6,8,11)           -55.7421         -DE/DX =   -0.0002              !
 ! D14   D(2,6,8,12)          -176.0783         -DE/DX =   -0.0002              !
 ! D15   D(2,6,8,13)            64.7415         -DE/DX =   -0.0002              !
 ! D16   D(9,6,8,11)            64.0936         -DE/DX =    0.0001              !
 ! D17   D(9,6,8,12)           -56.2425         -DE/DX =    0.0001              !
 ! D18   D(9,6,8,13)          -175.4228         -DE/DX =    0.0001              !
 ! D19   D(10,6,8,11)         -178.4979         -DE/DX =    0.0001              !
 ! D20   D(10,6,8,12)           61.1659         -DE/DX =    0.0001              !
 ! D21   D(10,6,8,13)          -58.0143         -DE/DX =    0.0001              !
 --------------------------------------------------------------------------------
 Lowest energy point so far.  Saving SCF results.
 GradGradGradGradGradGradGradGradGradGradGradGradGradGradGradGradGradGrad

 Largest change from initial coordinates is atom    1       0.000 Angstoms.
 Leave Link  103 at Wed May 26 09:20:55 2021, MaxMem=  2147483648 cpu:         0.1
 (Enter /opt/cluster/programs/g09_d.01/g09/l202.exe)
                          Input orientation:                          
 ---------------------------------------------------------------------
 Center     Atomic      Atomic             Coordinates (Angstroms)
 Number     Number       Type             X           Y           Z
 ---------------------------------------------------------------------
      1          6           0        2.092317    1.137585    0.038544
      2          6           0        1.488098   -0.220034   -0.179115
      3          1           0        2.231002    1.647460   -0.922121
      4          1           0        3.056082    1.034126    0.537888
      5          1           0        1.429666    1.764497    0.644337
      6          6           0        0.137644   -0.298589   -0.898169
      7          8           0        2.054055   -1.262707    0.156260
      8          6           0       -1.041583   -0.003045   -0.011786
      9          1           0        0.014124   -1.313574   -1.281896
     10          1           0        0.103787    0.408345   -1.731850
     11          9           0       -1.089403   -0.819671    1.107290
     12          9           0       -2.240200   -0.175239   -0.695896
     13          9           0       -1.039948    1.313277    0.456019
 ---------------------------------------------------------------------
                    Distance matrix (angstroms):
                    1          2          3          4          5
     1  C    0.000000
     2  C    1.501861   0.000000
     3  H    1.096396   2.142778   0.000000
     4  H    1.090363   2.132038   1.785654   0.000000
     5  H    1.095039   2.149384   1.763414   1.786058   0.000000
     6  C    2.600149   1.531971   2.858291   3.515063   2.881834
     7  O    2.403481   1.232863   3.108583   2.534786   3.129224
     8  C    3.335401   2.544478   3.776598   4.262479   3.108339
     9  H    3.474281   2.141157   3.716411   4.251684   3.897262
    10  H    2.760496   2.173054   2.591546   3.776157   3.040291
    11  F    3.885410   2.942433   4.607639   4.576661   3.638401
    12  F    4.586242   3.764210   4.833741   5.570942   4.361962
    13  F    3.164844   3.024145   3.565117   4.106347   2.517550
                    6          7          8          9         10
     6  C    0.000000
     7  O    2.390392   0.000000
     8  C    1.504526   3.346336   0.000000
     9  H    1.092107   2.496437   2.108360   0.000000
    10  H    1.093584   3.187620   2.107068   1.781994   0.000000
    11  F    2.408119   3.313920   1.386180   2.677671   3.315485
    12  F    2.389617   4.511029   1.390806   2.592524   2.628316
    13  F    2.412190   4.037128   1.396978   3.321410   2.629411
                   11         12         13
    11  F    0.000000
    12  F    2.234078   0.000000
    13  F    2.230710   2.232307   0.000000
 Stoichiometry    C4H5F3O
 Framework group  C1[X(C4H5F3O)]
 Deg. of freedom    33
 Full point group                 C1      NOp   1
 RotChk:  IX=0 Diff= 3.88D-16
 Largest Abelian subgroup         C1      NOp   1
 Largest concise Abelian subgroup C1      NOp   1
                         Standard orientation:                         
 ---------------------------------------------------------------------
 Center     Atomic      Atomic             Coordinates (Angstroms)
 Number     Number       Type             X           Y           Z
 ---------------------------------------------------------------------
      1          6           0       -2.092317    1.137585   -0.038544
      2          6           0       -1.488098   -0.220034    0.179115
      3          1           0       -2.231002    1.647460    0.922121
      4          1           0       -3.056082    1.034126   -0.537888
      5          1           0       -1.429666    1.764497   -0.644337
      6          6           0       -0.137644   -0.298589    0.898169
      7          8           0       -2.054055   -1.262707   -0.156260
      8          6           0        1.041583   -0.003045    0.011786
      9          1           0       -0.014124   -1.313574    1.281896
     10          1           0       -0.103787    0.408345    1.731850
     11          9           0        1.089403   -0.819671   -1.107290
     12          9           0        2.240200   -0.175239    0.695896
     13          9           0        1.039948    1.313277   -0.456019
 ---------------------------------------------------------------------
 Rotational constants (GHZ):      3.3645403      1.3761279      1.2284460
 Leave Link  202 at Wed May 26 09:20:55 2021, MaxMem=  2147483648 cpu:         0.0
 (Enter /opt/cluster/programs/g09_d.01/g09/l9999.exe)
 1\1\GINC-NODE11\FOpt\RwB97XD\6-31+G\C4H5F3O1\BOITTIER\26-May-2021\0\\#
 p wB97XD/6-31+G Opt=ModRedun\\N.pdb\\0,1\C,2.092317,1.137585,0.038544\
 C,1.488098,-0.220034,-0.179115\H,2.231002,1.64746,-0.922121\H,3.056082
 ,1.034126,0.537888\H,1.429666,1.764497,0.644337\C,0.137644,-0.298589,-
 0.898169\O,2.054055,-1.262707,0.15626\C,-1.041583,-0.003045,-0.011786\
 H,0.014124,-1.313574,-1.281896\H,0.103787,0.408345,-1.73185\F,-1.08940
 3,-0.819671,1.10729\F,-2.2402,-0.175239,-0.695896\F,-1.039948,1.313277
 ,0.456019\\Version=ES64L-G09RevD.01\State=1-A\HF=-529.9260361\RMSD=2.5
 64e-09\RMSF=3.587e-04\Dipole=0.4373005,0.9021356,-0.9542176\Quadrupole
 =-2.7436318,-0.3815804,3.1252122,5.1986091,-0.9695155,0.9727584\PG=C01
  [X(C4H5F3O1)]\\@


 YOU SHOULDN'T LET PEOPLE DRIVE YOU CRAZY
 WHEN YOU KNOW IT'S WITHIN WALKING DISTANCE.
 Job cpu time:       0 days  0 hours  0 minutes 50.4 seconds.
 File lengths (MBytes):  RWF=      7 Int=      0 D2E=      0 Chk=      3 Scr=      1
 Normal termination of Gaussian 09 at Wed May 26 09:20:55 2021.
