N.pdb                                                                   
FOpt      RwB97XD                                                     6-31+G              
Number of atoms                            I               13
Info1-9                                    I   N=           9
          24          24           0           0           0         100
           2          18        -802
Charge                                     I                0
Multiplicity                               I                1
Number of electrons                        I               64
Number of alpha electrons                  I               32
Number of beta electrons                   I               32
Number of basis functions                  I              114
Number of independent functions            I              114
Number of point charges in /Mol/           I                0
Number of translation vectors              I                0
Atomic numbers                             I   N=          13
           6           6           1           1           1           6
           8           6           1           1           9           9
           9
Nuclear charges                            R   N=          13
  6.00000000E+00  6.00000000E+00  1.00000000E+00  1.00000000E+00  1.00000000E+00
  6.00000000E+00  8.00000000E+00  6.00000000E+00  1.00000000E+00  1.00000000E+00
  9.00000000E+00  9.00000000E+00  9.00000000E+00
Current cartesian coordinates              R   N=          39
 -3.95390598E+00  2.14972437E+00 -7.28376336E-02 -2.81209777E+00 -4.15803838E-01
  3.38478267E-01 -4.21598256E+00  3.11324850E+00  1.74255612E+00 -5.77515790E+00
  1.95421535E+00 -1.01646104E+00 -2.70167696E+00  3.33441624E+00 -1.21762050E+00
 -2.60109573E-01 -5.64251502E-01  1.69729340E+00 -3.88160168E+00 -2.38617016E+00
 -2.95288635E-01  1.96830656E+00 -5.75447986E-03  2.22722827E-02 -2.66907719E-02
 -2.48229520E+00  2.42243234E+00 -1.96128997E-01  7.71660147E-01  3.27272217E+00
  2.05867312E+00 -1.54895398E+00 -2.09247488E+00  4.23336439E+00 -3.31154183E-01
  1.31505283E+00  1.96521707E+00  2.48173360E+00 -8.61751051E-01
Force Field                                I                0
Int Atom Types                             I   N=          13
           0           0           0           0           0           0
           0           0           0           0           0           0
           0
MM charges                                 R   N=          13
  0.00000000E+00  0.00000000E+00  0.00000000E+00  0.00000000E+00  0.00000000E+00
  0.00000000E+00  0.00000000E+00  0.00000000E+00  0.00000000E+00  0.00000000E+00
  0.00000000E+00  0.00000000E+00  0.00000000E+00
Integer atomic weights                     I   N=          13
          12          12           1           1           1          12
          16          12           1           1          19          19
          19
Real atomic weights                        R   N=          13
  1.20000000E+01  1.20000000E+01  1.00782504E+00  1.00782504E+00  1.00782504E+00
  1.20000000E+01  1.59949146E+01  1.20000000E+01  1.00782504E+00  1.00782504E+00
  1.89984032E+01  1.89984032E+01  1.89984032E+01
Atom fragment info                         I   N=          13
           0           0           0           0           0           0
           0           0           0           0           0           0
           0
Atom residue num                           I   N=          13
           0           0           0           0           0           0
           0           0           0           0           0           0
           0
Nuclear spins                              I   N=          13
           0           0           1           1           1           0
           0           0           1           1           1           1
           1
Nuclear ZEff                               R   N=          13
 -3.60000000E+00 -3.60000000E+00 -1.00000000E+00 -1.00000000E+00 -1.00000000E+00
 -3.60000000E+00 -5.60000000E+00 -3.60000000E+00 -1.00000000E+00 -1.00000000E+00
 -6.75000000E+00 -6.75000000E+00 -6.75000000E+00
Nuclear ZNuc                               R   N=          13
  6.00000000E+00  6.00000000E+00  1.00000000E+00  1.00000000E+00  1.00000000E+00
  6.00000000E+00  8.00000000E+00  6.00000000E+00  1.00000000E+00  1.00000000E+00
  9.00000000E+00  9.00000000E+00  9.00000000E+00
Nuclear QMom                               R   N=          13
  0.00000000E+00  0.00000000E+00  0.00000000E+00  0.00000000E+00  0.00000000E+00
  0.00000000E+00  0.00000000E+00  0.00000000E+00  0.00000000E+00  0.00000000E+00
  0.00000000E+00  0.00000000E+00  0.00000000E+00
Nuclear GFac                               R   N=          13
  0.00000000E+00  0.00000000E+00  2.79284600E+00  2.79284600E+00  2.79284600E+00
  0.00000000E+00  0.00000000E+00  0.00000000E+00  2.79284600E+00  2.79284600E+00
  2.62886700E+00  2.62886700E+00  2.62886700E+00
MicOpt                                     I   N=          13
          -1          -1          -1          -1          -1          -1
          -1          -1          -1          -1          -1          -1
          -1
Number of contracted shells                I               42
Number of primitive shells                 I              108
Pure/Cartesian d shells                    I                1
Pure/Cartesian f shells                    I                0
Highest angular momentum                   I                1
Largest degree of contraction              I                6
Shell types                                I   N=          42
           0          -1          -1          -1           0          -1
          -1          -1           0           0           0           0
           0           0           0          -1          -1          -1
           0          -1          -1          -1           0          -1
          -1          -1           0           0           0           0
           0          -1          -1          -1           0          -1
          -1          -1           0          -1          -1          -1
Number of primitives per shell             I   N=          42
           6           3           1           1           6           3
           1           1           3           1           3           1
           3           1           6           3           1           1
           6           3           1           1           6           3
           1           1           3           1           3           1
           6           3           1           1           6           3
           1           1           6           3           1           1
Shell to atom map                          I   N=          42
           1           1           1           1           2           2
           2           2           3           3           4           4
           5           5           6           6           6           6
           7           7           7           7           8           8
           8           8           9           9          10          10
          11          11          11          11          12          12
          12          12          13          13          13          13
Primitive exponents                        R   N=         108
  3.04752488E+03  4.57369518E+02  1.03948685E+02  2.92101553E+01  9.28666296E+00
  3.16392696E+00  7.86827235E+00  1.88128854E+00  5.44249258E-01  1.68714478E-01
  4.38000000E-02  3.04752488E+03  4.57369518E+02  1.03948685E+02  2.92101553E+01
  9.28666296E+00  3.16392696E+00  7.86827235E+00  1.88128854E+00  5.44249258E-01
  1.68714478E-01  4.38000000E-02  1.87311370E+01  2.82539436E+00  6.40121692E-01
  1.61277759E-01  1.87311370E+01  2.82539436E+00  6.40121692E-01  1.61277759E-01
  1.87311370E+01  2.82539436E+00  6.40121692E-01  1.61277759E-01  3.04752488E+03
  4.57369518E+02  1.03948685E+02  2.92101553E+01  9.28666296E+00  3.16392696E+00
  7.86827235E+00  1.88128854E+00  5.44249258E-01  1.68714478E-01  4.38000000E-02
  5.48467166E+03  8.25234946E+02  1.88046958E+02  5.29645000E+01  1.68975704E+01
  5.79963534E+00  1.55396162E+01  3.59993359E+00  1.01376175E+00  2.70005823E-01
  8.45000000E-02  3.04752488E+03  4.57369518E+02  1.03948685E+02  2.92101553E+01
  9.28666296E+00  3.16392696E+00  7.86827235E+00  1.88128854E+00  5.44249258E-01
  1.68714478E-01  4.38000000E-02  1.87311370E+01  2.82539436E+00  6.40121692E-01
  1.61277759E-01  1.87311370E+01  2.82539436E+00  6.40121692E-01  1.61277759E-01
  7.00171309E+03  1.05136609E+03  2.39285690E+02  6.73974453E+01  2.15199573E+01
  7.40310130E+00  2.08479528E+01  4.80830834E+00  1.34406986E+00  3.58151393E-01
  1.07600000E-01  7.00171309E+03  1.05136609E+03  2.39285690E+02  6.73974453E+01
  2.15199573E+01  7.40310130E+00  2.08479528E+01  4.80830834E+00  1.34406986E+00
  3.58151393E-01  1.07600000E-01  7.00171309E+03  1.05136609E+03  2.39285690E+02
  6.73974453E+01  2.15199573E+01  7.40310130E+00  2.08479528E+01  4.80830834E+00
  1.34406986E+00  3.58151393E-01  1.07600000E-01
Contraction coefficients                   R   N=         108
  1.83473713E-03  1.40373228E-02  6.88426223E-02  2.32184443E-01  4.67941348E-01
  3.62311985E-01 -1.19332420E-01 -1.60854152E-01  1.14345644E+00  1.00000000E+00
  1.00000000E+00  1.83473713E-03  1.40373228E-02  6.88426223E-02  2.32184443E-01
  4.67941348E-01  3.62311985E-01 -1.19332420E-01 -1.60854152E-01  1.14345644E+00
  1.00000000E+00  1.00000000E+00  3.34946043E-02  2.34726953E-01  8.13757326E-01
  1.00000000E+00  3.34946043E-02  2.34726953E-01  8.13757326E-01  1.00000000E+00
  3.34946043E-02  2.34726953E-01  8.13757326E-01  1.00000000E+00  1.83473713E-03
  1.40373228E-02  6.88426223E-02  2.32184443E-01  4.67941348E-01  3.62311985E-01
 -1.19332420E-01 -1.60854152E-01  1.14345644E+00  1.00000000E+00  1.00000000E+00
  1.83107443E-03  1.39501722E-02  6.84450781E-02  2.32714336E-01  4.70192898E-01
  3.58520853E-01 -1.10777550E-01 -1.48026263E-01  1.13076702E+00  1.00000000E+00
  1.00000000E+00  1.83473713E-03  1.40373228E-02  6.88426223E-02  2.32184443E-01
  4.67941348E-01  3.62311985E-01 -1.19332420E-01 -1.60854152E-01  1.14345644E+00
  1.00000000E+00  1.00000000E+00  3.34946043E-02  2.34726953E-01  8.13757326E-01
  1.00000000E+00  3.34946043E-02  2.34726953E-01  8.13757326E-01  1.00000000E+00
  1.81961690E-03  1.39160796E-02  6.84053245E-02  2.33185760E-01  4.71267439E-01
  3.56618546E-01 -1.08506975E-01 -1.46451658E-01  1.12868858E+00  1.00000000E+00
  1.00000000E+00  1.81961690E-03  1.39160796E-02  6.84053245E-02  2.33185760E-01
  4.71267439E-01  3.56618546E-01 -1.08506975E-01 -1.46451658E-01  1.12868858E+00
  1.00000000E+00  1.00000000E+00  1.81961690E-03  1.39160796E-02  6.84053245E-02
  2.33185760E-01  4.71267439E-01  3.56618546E-01 -1.08506975E-01 -1.46451658E-01
  1.12868858E+00  1.00000000E+00  1.00000000E+00
P(S=P) Contraction coefficients            R   N=         108
  0.00000000E+00  0.00000000E+00  0.00000000E+00  0.00000000E+00  0.00000000E+00
  0.00000000E+00  6.89990666E-02  3.16423961E-01  7.44308291E-01  1.00000000E+00
  1.00000000E+00  0.00000000E+00  0.00000000E+00  0.00000000E+00  0.00000000E+00
  0.00000000E+00  0.00000000E+00  6.89990666E-02  3.16423961E-01  7.44308291E-01
  1.00000000E+00  1.00000000E+00  0.00000000E+00  0.00000000E+00  0.00000000E+00
  0.00000000E+00  0.00000000E+00  0.00000000E+00  0.00000000E+00  0.00000000E+00
  0.00000000E+00  0.00000000E+00  0.00000000E+00  0.00000000E+00  0.00000000E+00
  0.00000000E+00  0.00000000E+00  0.00000000E+00  0.00000000E+00  0.00000000E+00
  6.89990666E-02  3.16423961E-01  7.44308291E-01  1.00000000E+00  1.00000000E+00
  0.00000000E+00  0.00000000E+00  0.00000000E+00  0.00000000E+00  0.00000000E+00
  0.00000000E+00  7.08742682E-02  3.39752839E-01  7.27158577E-01  1.00000000E+00
  1.00000000E+00  0.00000000E+00  0.00000000E+00  0.00000000E+00  0.00000000E+00
  0.00000000E+00  0.00000000E+00  6.89990666E-02  3.16423961E-01  7.44308291E-01
  1.00000000E+00  1.00000000E+00  0.00000000E+00  0.00000000E+00  0.00000000E+00
  0.00000000E+00  0.00000000E+00  0.00000000E+00  0.00000000E+00  0.00000000E+00
  0.00000000E+00  0.00000000E+00  0.00000000E+00  0.00000000E+00  0.00000000E+00
  0.00000000E+00  7.16287242E-02  3.45912103E-01  7.22469956E-01  1.00000000E+00
  1.00000000E+00  0.00000000E+00  0.00000000E+00  0.00000000E+00  0.00000000E+00
  0.00000000E+00  0.00000000E+00  7.16287242E-02  3.45912103E-01  7.22469956E-01
  1.00000000E+00  1.00000000E+00  0.00000000E+00  0.00000000E+00  0.00000000E+00
  0.00000000E+00  0.00000000E+00  0.00000000E+00  7.16287242E-02  3.45912103E-01
  7.22469956E-01  1.00000000E+00  1.00000000E+00
Coordinates of each shell                  R   N=         126
 -3.95390598E+00  2.14972437E+00 -7.28376336E-02 -3.95390598E+00  2.14972437E+00
 -7.28376336E-02 -3.95390598E+00  2.14972437E+00 -7.28376336E-02 -3.95390598E+00
  2.14972437E+00 -7.28376336E-02 -2.81209777E+00 -4.15803838E-01  3.38478267E-01
 -2.81209777E+00 -4.15803838E-01  3.38478267E-01 -2.81209777E+00 -4.15803838E-01
  3.38478267E-01 -2.81209777E+00 -4.15803838E-01  3.38478267E-01 -4.21598256E+00
  3.11324850E+00  1.74255612E+00 -4.21598256E+00  3.11324850E+00  1.74255612E+00
 -5.77515790E+00  1.95421535E+00 -1.01646104E+00 -5.77515790E+00  1.95421535E+00
 -1.01646104E+00 -2.70167696E+00  3.33441624E+00 -1.21762050E+00 -2.70167696E+00
  3.33441624E+00 -1.21762050E+00 -2.60109573E-01 -5.64251502E-01  1.69729340E+00
 -2.60109573E-01 -5.64251502E-01  1.69729340E+00 -2.60109573E-01 -5.64251502E-01
  1.69729340E+00 -2.60109573E-01 -5.64251502E-01  1.69729340E+00 -3.88160168E+00
 -2.38617016E+00 -2.95288635E-01 -3.88160168E+00 -2.38617016E+00 -2.95288635E-01
 -3.88160168E+00 -2.38617016E+00 -2.95288635E-01 -3.88160168E+00 -2.38617016E+00
 -2.95288635E-01  1.96830656E+00 -5.75447986E-03  2.22722827E-02  1.96830656E+00
 -5.75447986E-03  2.22722827E-02  1.96830656E+00 -5.75447986E-03  2.22722827E-02
  1.96830656E+00 -5.75447986E-03  2.22722827E-02 -2.66907719E-02 -2.48229520E+00
  2.42243234E+00 -2.66907719E-02 -2.48229520E+00  2.42243234E+00 -1.96128997E-01
  7.71660147E-01  3.27272217E+00 -1.96128997E-01  7.71660147E-01  3.27272217E+00
  2.05867312E+00 -1.54895398E+00 -2.09247488E+00  2.05867312E+00 -1.54895398E+00
 -2.09247488E+00  2.05867312E+00 -1.54895398E+00 -2.09247488E+00  2.05867312E+00
 -1.54895398E+00 -2.09247488E+00  4.23336439E+00 -3.31154183E-01  1.31505283E+00
  4.23336439E+00 -3.31154183E-01  1.31505283E+00  4.23336439E+00 -3.31154183E-01
  1.31505283E+00  4.23336439E+00 -3.31154183E-01  1.31505283E+00  1.96521707E+00
  2.48173360E+00 -8.61751051E-01  1.96521707E+00  2.48173360E+00 -8.61751051E-01
  1.96521707E+00  2.48173360E+00 -8.61751051E-01  1.96521707E+00  2.48173360E+00
 -8.61751051E-01
Constraint Structure                       R   N=          39
 -3.95390598E+00  2.14972437E+00 -7.28376336E-02 -2.81209777E+00 -4.15803838E-01
  3.38478267E-01 -4.21598256E+00  3.11324850E+00  1.74255612E+00 -5.77515790E+00
  1.95421535E+00 -1.01646104E+00 -2.70167696E+00  3.33441624E+00 -1.21762050E+00
 -2.60109573E-01 -5.64251502E-01  1.69729340E+00 -3.88160168E+00 -2.38617016E+00
 -2.95288635E-01  1.96830656E+00 -5.75447986E-03  2.22722827E-02 -2.66907719E-02
 -2.48229520E+00  2.42243234E+00 -1.96128997E-01  7.71660147E-01  3.27272217E+00
  2.05867312E+00 -1.54895398E+00 -2.09247488E+00  4.23336439E+00 -3.31154183E-01
  1.31505283E+00  1.96521707E+00  2.48173360E+00 -8.61751051E-01
Num ILSW                                   I              100
ILSW                                       I   N=         100
           0           1           0           0           2           0
           0           0           0           0        4639          -1
           0           0           0           0           2           0
           0           0           0           0           1           0
           1           0           0           0           0           0
           0           0      100000           0          -1           0
           0           0           0           0           0           0
           0           0           0           1           0           0
           0           0           1           0           0           0
           0           0         121          41           0           0
           0           0          58           0           0           0
           0           0           0          13           0           0
           0           0           0           0           0           0
           0           0           0           0           0           0
           0           0           0           0           0           0
           0           0           0           0           0           0
           0           0           0           0
Num RLSW                                   I               41
RLSW                                       R   N=          41
  1.00000000E+00  1.00000000E+00  1.00000000E+00  1.00000000E+00  1.00000000E+00
  0.00000000E+00  2.00000000E-01  2.22036000E-01  0.00000000E+00  7.77964000E-01
  0.00000000E+00  2.00000000E-01  0.00000000E+00  0.00000000E+00  1.00000000E+00
  0.00000000E+00  0.00000000E+00  1.00000000E+00  0.00000000E+00  0.00000000E+00
  0.00000000E+00  0.00000000E+00  1.00000000E+00  0.00000000E+00  0.00000000E+00
  0.00000000E+00  0.00000000E+00  1.00000000E+00  0.00000000E+00  0.00000000E+00
  0.00000000E+00  0.00000000E+00  1.00000000E+00  0.00000000E+00  0.00000000E+00
  0.00000000E+00  0.00000000E+00  0.00000000E+00  1.00000000E+00  1.00000000E+00
  0.00000000E+00
MxBond                                     I                4
NBond                                      I   N=          13
           4           3           1           1           1           4
           1           4           1           1           1           1
           1
IBond                                      I   N=          52
           2           3           4           5           1           6
           7           0           1           0           0           0
           1           0           0           0           1           0
           0           0           2           8           9          10
           2           0           0           0           6          11
          12          13           6           0           0           0
           6           0           0           0           8           0
           0           0           8           0           0           0
           8           0           0           0
RBond                                      R   N=          52
  1.00000000E+00  1.00000000E+00  1.00000000E+00  1.00000000E+00  1.00000000E+00
  1.00000000E+00  2.00000000E+00  0.00000000E+00  1.00000000E+00  0.00000000E+00
  0.00000000E+00  0.00000000E+00  1.00000000E+00  0.00000000E+00  0.00000000E+00
  0.00000000E+00  1.00000000E+00  0.00000000E+00  0.00000000E+00  0.00000000E+00
  1.00000000E+00  1.00000000E+00  1.00000000E+00  1.00000000E+00  2.00000000E+00
  0.00000000E+00  0.00000000E+00  0.00000000E+00  1.00000000E+00  1.00000000E+00
  1.00000000E+00  1.00000000E+00  1.00000000E+00  0.00000000E+00  0.00000000E+00
  0.00000000E+00  1.00000000E+00  0.00000000E+00  0.00000000E+00  0.00000000E+00
  1.00000000E+00  0.00000000E+00  0.00000000E+00  0.00000000E+00  1.00000000E+00
  0.00000000E+00  0.00000000E+00  0.00000000E+00  1.00000000E+00  0.00000000E+00
  0.00000000E+00  0.00000000E+00
Virial Ratio                               R      2.005194211018217E+00
SCF Energy                                 R     -5.299260361469223E+02
Total Energy                               R     -5.299260361469223E+02
RMS Force                                  R      3.586836705840784E-04
RMS Density                                R      2.564372118147367E-09
External E-field                           R   N=          35
  0.00000000E+00  0.00000000E+00  0.00000000E+00  0.00000000E+00  0.00000000E+00
  0.00000000E+00  0.00000000E+00  0.00000000E+00  0.00000000E+00  0.00000000E+00
  0.00000000E+00  0.00000000E+00  0.00000000E+00  0.00000000E+00  0.00000000E+00
  0.00000000E+00  0.00000000E+00  0.00000000E+00  0.00000000E+00  0.00000000E+00
  0.00000000E+00  0.00000000E+00  0.00000000E+00  0.00000000E+00  0.00000000E+00
  0.00000000E+00  0.00000000E+00  0.00000000E+00  0.00000000E+00  0.00000000E+00
  0.00000000E+00  0.00000000E+00  0.00000000E+00  0.00000000E+00  0.00000000E+00
IOpCl                                      I                0
IROHF                                      I                0
Alpha Orbital Energies                     R   N=         114
 -2.48903316E+01 -2.48890589E+01 -2.48885675E+01 -1.93050890E+01 -1.05951326E+01
 -1.04386036E+01 -1.03630325E+01 -1.03224361E+01 -1.43821792E+00 -1.35305460E+00
 -1.35264470E+00 -1.19589790E+00 -9.51788049E-01 -8.74456926E-01 -7.98407041E-01
 -7.10051303E-01 -7.01505154E-01 -6.90680095E-01 -6.41143364E-01 -5.94657743E-01
 -5.84635093E-01 -5.73495250E-01 -5.67428849E-01 -5.56619998E-01 -5.41527002E-01
 -5.35601350E-01 -5.24494505E-01 -5.13266185E-01 -5.10461613E-01 -4.96501456E-01
 -4.64189167E-01 -3.69888403E-01  8.29641409E-03  5.64458569E-02  7.84805838E-02
  9.22673711E-02  1.00695860E-01  1.07421168E-01  1.11648300E-01  1.24225239E-01
  1.25339094E-01  1.29760781E-01  1.46925892E-01  1.59355358E-01  1.63019600E-01
  1.65080218E-01  1.73185047E-01  1.82218899E-01  1.84037468E-01  1.94713186E-01
  2.20490530E-01  2.30765128E-01  2.61523912E-01  2.64107905E-01  2.75984059E-01
  2.96863948E-01  3.06047079E-01  3.30996123E-01  3.34131815E-01  3.54458547E-01
  3.68172694E-01  3.82058831E-01  3.84843475E-01  3.86893124E-01  3.99286098E-01
  4.12710408E-01  4.14164724E-01  4.32728234E-01  4.35002751E-01  4.41366364E-01
  4.48244834E-01  4.49881376E-01  4.60798984E-01  4.99999759E-01  5.21314224E-01
  5.40445320E-01  5.45739592E-01  6.79096391E-01  7.40093599E-01  7.56658564E-01
  7.67781384E-01  7.97561426E-01  8.22254346E-01  8.53558481E-01  8.75044522E-01
  8.87719288E-01  9.04567905E-01  9.78998633E-01  1.00022685E+00  1.10811935E+00
  1.16294798E+00  1.17973131E+00  1.21872771E+00  1.22616126E+00  1.29085753E+00
  1.34472788E+00  1.35419390E+00  1.41764998E+00  1.45803546E+00  1.47909670E+00
  1.55952708E+00  1.61106383E+00  1.67380775E+00  1.68851519E+00  1.72258986E+00
  1.74051466E+00  1.81070498E+00  1.83091742E+00  1.84018299E+00  1.85467373E+00
  1.99611696E+00  2.30116686E+00  2.32148557E+00  2.67990178E+00
Alpha MO coefficients                      R   N=       12996
  2.53651630E-06  4.17376012E-05  2.60220024E-05  1.05683913E-07 -9.21930619E-06
 -1.17702949E-04 -1.06068741E-04  4.13950395E-04 -3.41956601E-04  4.55971466E-03
  9.53826836E-04 -7.55719940E-04 -2.36669141E-05  1.95329057E-05  2.77368198E-04
  1.80120854E-04  1.03450913E-05 -3.04386681E-05 -4.67946607E-04 -1.78700084E-04
  1.13082080E-03  4.59236722E-04  3.52478085E-03  1.69320981E-03 -1.81659016E-03
  8.22491635E-04  7.33642755E-06  4.91743419E-05  1.01894059E-05 -3.26388451E-04
  7.82167517E-05 -9.87026589E-04  6.23613090E-05  2.93456094E-04 -2.04140230E-04
  1.99508708E-05  1.34616596E-04 -1.86058820E-03 -4.85452624E-04 -1.89580518E-03
  3.58906325E-04  2.17288362E-03  4.19906318E-03  8.69498373E-04  3.94652362E-04
 -9.18114525E-06 -1.45472802E-04 -4.32183628E-05 -1.48325673E-05  2.50089146E-05
  7.81154574E-04  3.55581321E-04  2.25913091E-04 -3.34552076E-05  4.18057100E-04
  3.67018891E-04  3.40978515E-04 -1.85645461E-05 -1.76855028E-04 -7.71896826E-04
  9.64266871E-05  7.22945082E-04 -2.88300134E-04  6.53032807E-03  4.41692341E-04
  1.24888276E-03 -7.18371589E-04 -1.39450301E-02  3.57356237E-03 -6.17930391E-04
 -2.04301567E-03 -1.59450032E-04  9.13974864E-05  2.26753667E-04  9.36034284E-04
  6.04490997E-03  5.25951711E-04 -1.00409558E-05  2.91315855E-05  2.62635032E-05
 -1.57555457E-03  5.39273660E-05 -7.92133489E-04 -5.12016845E-04 -5.50406776E-04
 -3.76739310E-04 -1.20880545E-03 -1.49354905E-04  6.73442764E-03  5.04489364E-04
 -3.34618984E-05  2.57583741E-05 -2.88261321E-05 -1.45343494E-03  6.73142482E-04
 -4.79511875E-04  5.59393394E-04 -8.23805314E-04  2.16684008E-04 -6.72139894E-04
  5.75266802E-04  9.94997922E-01  2.79218371E-02 -4.59269166E-05 -1.34043098E-03
  4.80276811E-04 -1.64591851E-02  7.13258693E-05  2.62118665E-03 -8.97733452E-04
  1.04752395E-02 -5.84183769E-04 -2.47814045E-03  9.81398078E-04 -1.21515883E-05
 -1.53324747E-04 -2.82720702E-05 -7.42479536E-06 -2.12429069E-05  5.61059831E-04
 -1.04020200E-04  4.97380481E-05  2.42707467E-04  4.91091274E-03  5.27113948E-04
 -1.22737389E-03  1.96735321E-04 -2.56041889E-06 -6.47645133E-05 -9.08002222E-05
 -2.44968081E-05  5.03524983E-05 -8.33982689E-04  4.93943582E-04  3.14616511E-04
 -5.69904175E-04 -6.63803091E-03  2.83649043E-04 -1.42488316E-03  3.92002997E-04
 -3.31832734E-06 -5.32493420E-04 -9.41979497E-06 -2.09814628E-04  4.41771541E-05
 -2.93239482E-04  7.11498728E-05  2.98778899E-04 -1.13440645E-04 -1.45004092E-05
  1.04070902E-04 -2.38801855E-03 -2.16694307E-03 -2.96744593E-04  1.55852854E-04
  1.43657821E-02  2.22381475E-03  7.99997169E-04 -2.38569212E-03 -1.61172326E-06
 -2.26472172E-05  4.41138878E-06 -6.79214033E-06 -2.25283519E-05  2.14135605E-04
 -4.89562176E-05  1.18944515E-04  1.82331514E-04  3.96177180E-04 -4.64750683E-05
  1.95394228E-04 -2.40719142E-05 -2.01692581E-04 -9.94028809E-04  6.62114542E-04
 -9.75691426E-05  2.94848016E-04  8.47064771E-03  1.72785304E-03 -2.06638998E-05
  6.38447302E-04 -1.48089906E-02  2.12039784E-03  9.85324753E-04 -3.03469297E-03
  2.46369376E-04 -3.65746877E-04  2.73295755E-04 -2.24413180E-04  1.52293561E-02
  7.22413862E-04  2.43395362E-05  1.87860863E-05  5.12832476E-05 -1.49991630E-03
 -3.89690145E-04 -4.22873901E-04 -8.66743113E-04 -1.42917975E-03 -5.55863494E-04
 -4.45878635E-04 -9.76606857E-04  9.94898996E-01  2.78975812E-02 -1.26880807E-03
  1.86175979E-04 -7.09172590E-04 -1.64231256E-02  2.55413081E-03 -4.05560800E-04
  1.50034610E-03  8.91755800E-03 -1.97095076E-03  2.81620993E-04 -1.03383495E-03
 -6.77667286E-03  1.35619563E-04  2.77493658E-05 -1.53282990E-05  2.11406591E-05
 -1.29026531E-03 -4.16058667E-04  8.13267384E-04 -4.82331941E-04 -1.60827430E-03
 -6.11968886E-04  8.71682729E-04 -5.98156493E-04 -4.83242035E-05 -4.12872831E-04
 -2.88553969E-06 -1.51155394E-05  2.26152889E-05  2.70381157E-03  8.80755552E-04
 -9.96473557E-04 -3.29089568E-07  8.70618950E-03  1.34533943E-03 -1.99637692E-03
  3.85444455E-04  3.58209817E-05  4.55423425E-04  1.87194149E-04  1.30101106E-04
 -5.98141554E-05 -5.75415253E-04  1.26820558E-04 -2.26236477E-03  4.89287570E-04
 -3.98399511E-03  1.48544065E-03 -2.33158337E-03  1.70913399E-04 -4.99191392E-05
 -1.82812799E-04 -2.10242331E-05 -2.64819556E-04 -1.12268800E-04 -2.07408833E-04
  7.19535916E-05  3.86736772E-04 -2.18799433E-04 -1.22808734E-04  9.32252424E-05
 -2.39835139E-03 -4.86605896E-04  1.76201204E-03  1.44096809E-03 -1.35873392E-04
  1.88305446E-03 -1.97647503E-04  9.44943461E-04  6.51775644E-07 -6.65604303E-06
  1.99750623E-06 -9.74839022E-07  9.29728649E-06 -3.70965237E-04 -1.12898956E-04
 -3.28413511E-05 -2.33917686E-04 -4.89690769E-04 -5.71604446E-05 -3.23376178E-04
  7.81251173E-05 -1.84149134E-04 -9.04610819E-04  1.64591154E-04 -4.34366016E-04
 -6.42020435E-04  7.07506549E-03 -4.76138064E-05 -8.83274509E-04 -1.67518390E-03
 -8.42862093E-03  2.54000136E-03  8.87931610E-04 -6.00024748E-04  2.79253191E-04
  1.24858460E-03 -2.10047417E-04  2.94381207E-04  9.94907025E-01  2.79703757E-02
 -8.42393733E-05  8.85547110E-04  1.19073571E-03 -1.66998713E-02  2.27637797E-04
 -1.80536172E-03 -2.35144626E-03  1.00890317E-02 -7.39279422E-04  1.56305039E-03
  2.19029593E-03 -1.52238608E-02 -1.31780749E-04 -3.37933655E-06 -1.66064735E-05
 -2.01431179E-05 -9.85382468E-04  5.85987845E-04  1.65057942E-04  6.91555009E-04
 -9.70941357E-04  1.23201592E-04  3.45044229E-04  9.35704041E-04 -5.89049032E-03
  1.85387885E-04 -2.75458597E-06 -3.34690191E-05 -7.72582956E-06 -1.35607347E-03
  1.46788081E-06  9.86248151E-04  8.10144915E-05 -7.89303029E-04 -1.92133789E-04
  1.11591001E-03  5.49575071E-04 -1.26034847E-05 -2.93854407E-04  4.54946976E-06
  1.37362721E-04  2.38929395E-05  2.39771684E-03  1.99818641E-03 -3.81934790E-05
  8.20222227E-04  9.44409539E-03  8.07862940E-04 -2.42658024E-03  2.09795114E-04
  2.11755157E-04  1.38935913E-04 -8.01818633E-05  8.08415739E-05 -1.86571440E-05
  7.66762050E-03 -3.31221201E-03 -8.62082498E-03 -2.08097855E-03 -2.61983419E-02
 -1.64162902E-03 -9.06554109E-05 -6.64553419E-04 -1.26483057E-04  1.11071389E-04
  1.28156363E-04  3.35462540E-04 -8.28530976E-05 -3.63624201E-04 -2.10322256E-05
 -4.00787096E-04  1.88592590E-04 -5.32510670E-05  1.09445749E-04  1.48615596E-03
  3.64811632E-04  3.59620935E-03 -2.62739616E-04 -1.19282765E-02 -7.32953732E-03
 -1.42916244E-03  3.97103378E-03  9.95246815E-01  2.99028645E-02  1.08346390E-03
  1.86415453E-03  6.11432813E-04 -2.39960750E-02 -2.99041991E-03 -4.69435846E-03
 -1.59149896E-03  1.03870284E-02  1.45539909E-03  7.37670024E-04  1.92138314E-04
  2.45342455E-05  2.18941533E-04 -8.39741722E-05  7.80634277E-05  4.74755862E-05
 -9.95594460E-04  7.09729535E-04 -2.50669100E-03 -1.37321014E-03  2.31558159E-02
 -5.02585690E-03 -1.45941225E-03  2.54108982E-03  1.53196419E-04  1.68791406E-03
 -3.88441979E-04  3.44998421E-05 -3.43987939E-06 -4.81052664E-05 -3.43096428E-05
  7.83719240E-06  6.51997212E-05  2.28063480E-04 -3.94111233E-07 -8.48045953E-05
 -3.84908318E-04 -3.65142974E-03 -9.09987309E-05 -9.66219904E-04 -9.67707724E-04
 -1.19896984E-06 -2.58711916E-05  1.86075338E-05 -4.22605745E-05 -1.98406229E-05
  8.42610186E-05 -1.31354505E-04  2.91148020E-04  1.16690525E-04 -1.81660073E-04
 -1.28332688E-04 -6.56148593E-05  1.85199605E-06 -4.89824937E-06 -1.31602623E-04
  3.04188182E-05  4.24849664E-05 -4.34574024E-05  5.05229946E-04 -9.46425704E-05
 -3.37021167E-04  3.53017456E-04  1.77017637E-03 -3.75431849E-04 -1.13938731E-03