 Entering Gaussian System, Link 0=/opt/cluster/programs/g09_d.01/g09//g09
 Input=/home/unibas/boittier/RDKit_G2/L.pdb/SCAN_1_2_3_4_S_17_20.0/8_SCAN_1_2_3_4_F/8_SCAN_L.pdb.com
 Output=/scratch/boittier/8_SCAN_L.pdb/8_SCAN_L.pdb.out
 Initial command:
 /opt/cluster/programs/g09_d.01/g09/l1.exe "/scratch/boittier/8_SCAN_L.pdb/Gau-195972.inp" -scrdir="/scratch/boittier/8_SCAN_L.pdb/"
 Entering Link 1 = /opt/cluster/programs/g09_d.01/g09/l1.exe PID=    195973.
  
 Copyright (c) 1988,1990,1992,1993,1995,1998,2003,2009,2013,
            Gaussian, Inc.  All Rights Reserved.
  
 This is part of the Gaussian(R) 09 program.  It is based on
 the Gaussian(R) 03 system (copyright 2003, Gaussian, Inc.),
 the Gaussian(R) 98 system (copyright 1998, Gaussian, Inc.),
 the Gaussian(R) 94 system (copyright 1995, Gaussian, Inc.),
 the Gaussian 92(TM) system (copyright 1992, Gaussian, Inc.),
 the Gaussian 90(TM) system (copyright 1990, Gaussian, Inc.),
 the Gaussian 88(TM) system (copyright 1988, Gaussian, Inc.),
 the Gaussian 86(TM) system (copyright 1986, Carnegie Mellon
 University), and the Gaussian 82(TM) system (copyright 1983,
 Carnegie Mellon University). Gaussian is a federally registered
 trademark of Gaussian, Inc.
  
 This software contains proprietary and confidential information,
 including trade secrets, belonging to Gaussian, Inc.
  
 This software is provided under written license and may be
 used, copied, transmitted, or stored only in accord with that
 written license.
  
 The following legend is applicable only to US Government
 contracts under FAR:
  
                    RESTRICTED RIGHTS LEGEND
  
 Use, reproduction and disclosure by the US Government is
 subject to restrictions as set forth in subparagraphs (a)
 and (c) of the Commercial Computer Software - Restricted
 Rights clause in FAR 52.227-19.
  
 Gaussian, Inc.
 340 Quinnipiac St., Bldg. 40, Wallingford CT 06492
  
  
 ---------------------------------------------------------------
 Warning -- This program may not be used in any manner that
 competes with the business of Gaussian, Inc. or will provide
 assistance to any competitor of Gaussian, Inc.  The licensee
 of this program is prohibited from giving any competitor of
 Gaussian, Inc. access to this program.  By using this program,
 the user acknowledges that Gaussian, Inc. is engaged in the
 business of creating and licensing software in the field of
 computational chemistry and represents and warrants to the
 licensee that it is not a competitor of Gaussian, Inc. and that
 it will not use this program in any manner prohibited above.
 ---------------------------------------------------------------
  

 Cite this work as:
 Gaussian 09, Revision D.01,
 M. J. Frisch, G. W. Trucks, H. B. Schlegel, G. E. Scuseria, 
 M. A. Robb, J. R. Cheeseman, G. Scalmani, V. Barone, B. Mennucci, 
 G. A. Petersson, H. Nakatsuji, M. Caricato, X. Li, H. P. Hratchian, 
 A. F. Izmaylov, J. Bloino, G. Zheng, J. L. Sonnenberg, M. Hada, 
 M. Ehara, K. Toyota, R. Fukuda, J. Hasegawa, M. Ishida, T. Nakajima, 
 Y. Honda, O. Kitao, H. Nakai, T. Vreven, J. A. Montgomery, Jr., 
 J. E. Peralta, F. Ogliaro, M. Bearpark, J. J. Heyd, E. Brothers, 
 K. N. Kudin, V. N. Staroverov, T. Keith, R. Kobayashi, J. Normand, 
 K. Raghavachari, A. Rendell, J. C. Burant, S. S. Iyengar, J. Tomasi, 
 M. Cossi, N. Rega, J. M. Millam, M. Klene, J. E. Knox, J. B. Cross, 
 V. Bakken, C. Adamo, J. Jaramillo, R. Gomperts, R. E. Stratmann, 
 O. Yazyev, A. J. Austin, R. Cammi, C. Pomelli, J. W. Ochterski, 
 R. L. Martin, K. Morokuma, V. G. Zakrzewski, G. A. Voth, 
 P. Salvador, J. J. Dannenberg, S. Dapprich, A. D. Daniels, 
 O. Farkas, J. B. Foresman, J. V. Ortiz, J. Cioslowski, 
 and D. J. Fox, Gaussian, Inc., Wallingford CT, 2013.
 
 ******************************************
 Gaussian 09:  ES64L-G09RevD.01 24-Apr-2013
                12-May-2021 
 ******************************************
 %chk=/home/unibas/boittier/RDKit_G2/L.pdb/SCAN_1_2_3_4_S_17_20.0/8_SCAN_1_2_3_4_
 F/L.pdb.chk
 %nproc=8
 Will use up to    8 processors via shared memory.
 %mem=16GB
 -----------------------------
 #p wB97XD/6-31+G Opt=ModRedun
 -----------------------------
 1/14=-1,18=120,19=15,26=3,38=1/1,3;
 2/9=110,12=2,17=6,18=5,40=1/2;
 3/5=1,6=6,7=10,11=2,16=1,25=1,30=1,71=1,74=-58/1,2,3;
 4//1;
 5/5=2,38=5/2;
 6/7=2,8=2,9=2,10=2,28=1/1;
 7//1,2,3,16;
 1/14=-1,18=20,19=15,26=3/3(2);
 2/9=110/2;
 99//99;
 2/9=110/2;
 3/5=1,6=6,7=10,11=2,16=1,25=1,30=1,71=1,74=-58/1,2,3;
 4/5=5,16=3,69=1/1;
 5/5=2,38=5/2;
 7//1,2,3,16;
 1/14=-1,18=20,19=15,26=3/3(-5);
 2/9=110/2;
 6/7=2,8=2,9=2,10=2,19=2,28=1/1;
 99/9=1/99;
 Leave Link    1 at Wed May 12 11:58:23 2021, MaxMem=  2147483648 cpu:         0.3
 (Enter /opt/cluster/programs/g09_d.01/g09/l101.exe)
 -----
 L.pdb
 -----
 Symbolic Z-matrix:
 Charge =  0 Multiplicity = 1
 C                     1.49176   0.4664   -0.03665 
 C                     0.66455  -0.58975   0.06595 
 C                    -0.8006   -0.46884  -0.07098 
 O                    -1.43916   0.5913    0.06395 
 H                    -1.34219  -1.40447  -0.28968 
 H                     2.56958   0.35871   0.03332 
 H                     1.0978    1.46703  -0.19354 
 H                     1.05383  -1.59858   0.18838 
 
 The following ModRedundant input section has been read:
 D       1       2       3       4 F                                           
 
 NAtoms=      8 NQM=        8 NQMF=       0 NMMI=      0 NMMIF=      0
                NMic=       0 NMicF=      0.
                    Isotopes and Nuclear Properties:
 (Nuclear quadrupole moments (NQMom) in fm**2, nuclear magnetic moments (NMagM)
  in nuclear magnetons)

  Atom         1           2           3           4           5           6           7           8
 IAtWgt=          12          12          12          16           1           1           1           1
 AtmWgt=  12.0000000  12.0000000  12.0000000  15.9949146   1.0078250   1.0078250   1.0078250   1.0078250
 NucSpn=           0           0           0           0           1           1           1           1
 AtZEff=   0.0000000   0.0000000   0.0000000   0.0000000   0.0000000   0.0000000   0.0000000   0.0000000
 NQMom=    0.0000000   0.0000000   0.0000000   0.0000000   0.0000000   0.0000000   0.0000000   0.0000000
 NMagM=    0.0000000   0.0000000   0.0000000   0.0000000   2.7928460   2.7928460   2.7928460   2.7928460
 AtZNuc=   6.0000000   6.0000000   6.0000000   8.0000000   1.0000000   1.0000000   1.0000000   1.0000000
 Leave Link  101 at Wed May 12 11:58:24 2021, MaxMem=  2147483648 cpu:         4.9
 (Enter /opt/cluster/programs/g09_d.01/g09/l103.exe)

 GradGradGradGradGradGradGradGradGradGradGradGradGradGradGradGradGradGrad
 Berny optimization.
 Initialization pass.
                           ----------------------------
                           !    Initial Parameters    !
                           ! (Angstroms and Degrees)  !
 --------------------------                            --------------------------
 ! Name  Definition              Value          Derivative Info.                !
 --------------------------------------------------------------------------------
 ! R1    R(1,2)                  1.3455         estimate D2E/DX2                !
 ! R2    R(1,6)                  1.0854         estimate D2E/DX2                !
 ! R3    R(1,7)                  1.0868         estimate D2E/DX2                !
 ! R4    R(2,3)                  1.4765         estimate D2E/DX2                !
 ! R5    R(2,8)                  1.0882         estimate D2E/DX2                !
 ! R6    R(3,4)                  1.2449         estimate D2E/DX2                !
 ! R7    R(3,5)                  1.103          estimate D2E/DX2                !
 ! A1    A(2,1,6)              121.8502         estimate D2E/DX2                !
 ! A2    A(2,1,7)              120.7229         estimate D2E/DX2                !
 ! A3    A(6,1,7)              117.4269         estimate D2E/DX2                !
 ! A4    A(1,2,3)              122.598          estimate D2E/DX2                !
 ! A5    A(1,2,8)              121.0872         estimate D2E/DX2                !
 ! A6    A(3,2,8)              116.1878         estimate D2E/DX2                !
 ! A7    A(2,3,4)              124.6576         estimate D2E/DX2                !
 ! A8    A(2,3,5)              115.8605         estimate D2E/DX2                !
 ! A9    A(4,3,5)              119.4712         estimate D2E/DX2                !
 ! D1    D(6,1,2,3)           -177.935          estimate D2E/DX2                !
 ! D2    D(6,1,2,8)             -2.1884         estimate D2E/DX2                !
 ! D3    D(7,1,2,3)              2.1031         estimate D2E/DX2                !
 ! D4    D(7,1,2,8)            177.8497         estimate D2E/DX2                !
 ! D5    D(1,2,3,4)            -19.9989         Frozen                          !
 ! D6    D(1,2,3,5)            161.1998         estimate D2E/DX2                !
 ! D7    D(8,2,3,4)            164.06           estimate D2E/DX2                !
 ! D8    D(8,2,3,5)            -14.7413         estimate D2E/DX2                !
 --------------------------------------------------------------------------------
 Trust Radius=3.00D-01 FncErr=1.00D-07 GrdErr=1.00D-06
 Number of steps in this run=     34 maximum allowed number of steps=    100.
 GradGradGradGradGradGradGradGradGradGradGradGradGradGradGradGradGradGrad

 Leave Link  103 at Wed May 12 11:58:24 2021, MaxMem=  2147483648 cpu:         0.1
 (Enter /opt/cluster/programs/g09_d.01/g09/l202.exe)
                          Input orientation:                          
 ---------------------------------------------------------------------
 Center     Atomic      Atomic             Coordinates (Angstroms)
 Number     Number       Type             X           Y           Z
 ---------------------------------------------------------------------
      1          6           0        1.491758    0.466402   -0.036653
      2          6           0        0.664547   -0.589748    0.065946
      3          6           0       -0.800595   -0.468840   -0.070975
      4          8           0       -1.439159    0.591304    0.063952
      5          1           0       -1.342192   -1.404470   -0.289682
      6          1           0        2.569582    0.358708    0.033321
      7          1           0        1.097798    1.467028   -0.193536
      8          1           0        1.053829   -1.598577    0.188377
 ---------------------------------------------------------------------
                    Distance matrix (angstroms):
                    1          2          3          4          5
     1  C    0.000000
     2  C    1.345458   0.000000
     3  C    2.476033   1.476485   0.000000
     4  O    2.935302   2.412564   1.244940   0.000000
     5  H    3.405210   2.194822   1.102979   2.029180   0.000000
     6  H    1.085449   2.128331   3.471859   4.015600   4.302918
     7  H    1.086770   2.117868   2.714130   2.696172   3.769389
     8  H    2.122866   1.088240   2.186883   3.320550   2.450946
                    6          7          8
     6  H    0.000000
     7  H    1.856337   0.000000
     8  H    2.480426   3.089616   0.000000
 Stoichiometry    C3H4O
 Framework group  C1[X(C3H4O)]
 Deg. of freedom    18
 Full point group                 C1      NOp   1
 Largest Abelian subgroup         C1      NOp   1
 Largest concise Abelian subgroup C1      NOp   1
                         Standard orientation:                         
 ---------------------------------------------------------------------
 Center     Atomic      Atomic             Coordinates (Angstroms)
 Number     Number       Type             X           Y           Z
 ---------------------------------------------------------------------
      1          6           0        1.491758   -0.466402    0.036653
      2          6           0        0.664547    0.589748   -0.065946
      3          6           0       -0.800595    0.468840    0.070975
      4          8           0       -1.439159   -0.591304   -0.063952
      5          1           0       -1.342192    1.404470    0.289682
      6          1           0        2.569582   -0.358708   -0.033321
      7          1           0        1.097798   -1.467028    0.193536
      8          1           0        1.053829    1.598577   -0.188377
 ---------------------------------------------------------------------
 Rotational constants (GHZ):     22.8791182      6.0242025      4.8002036
 Leave Link  202 at Wed May 12 11:58:24 2021, MaxMem=  2147483648 cpu:         0.0
 (Enter /opt/cluster/programs/g09_d.01/g09/l301.exe)
 Standard basis: 6-31+G (6D, 7F)
 Ernie: Thresh=  0.10000D-02 Tol=  0.10000D-05 Strict=F.
 There are    60 symmetry adapted cartesian basis functions of A   symmetry.
 There are    60 symmetry adapted basis functions of A   symmetry.
    60 basis functions,   120 primitive gaussians,    60 cartesian basis functions
    15 alpha electrons       15 beta electrons
       nuclear repulsion energy       103.5196834896 Hartrees.
 IExCor= 4639 DFT=T Ex+Corr=wB97XD ExCW=0 ScaHFX=  1.000000
 ScaDFX=  1.000000  1.000000  1.000000  1.000000 ScalE2=  1.000000  1.000000
 IRadAn=      0 IRanWt=     -1 IRanGd=            0 ICorTp=0 IEmpDi=121
  HFx wShort=  0.000000 wLong=  0.200000 cFull=  0.222036 cShort=  0.000000 cLong=  0.777964
  DFx wShort=  0.000000 wLong=  0.200000 cFull=  0.000000 cShort=  0.000000 cLong=  1.000000
 NAtoms=    8 NActive=    8 NUniq=    8 SFac= 1.00D+00 NAtFMM=   60 NAOKFM=F Big=F
 Integral buffers will be    131072 words long.
 Raffenetti 2 integral format.
 Two-electron integral symmetry is turned on.
 R6Disp:  Grimme-D2 Dispersion energy=       -0.0017776074 Hartrees.
 Nuclear repulsion after empirical dispersion term =      103.5179058822 Hartrees.
 Leave Link  301 at Wed May 12 11:58:24 2021, MaxMem=  2147483648 cpu:         0.3
 (Enter /opt/cluster/programs/g09_d.01/g09/l302.exe)
 NPDir=0 NMtPBC=     1 NCelOv=     1 NCel=       1 NClECP=     1 NCelD=      1
         NCelK=      1 NCelE2=     1 NClLst=     1 CellRange=     0.0.
 One-electron integrals computed using PRISM.
 NBasis=    60 RedAO= T EigKep=  1.33D-04  NBF=    60
 NBsUse=    60 1.00D-06 EigRej= -1.00D+00 NBFU=    60
 Precomputing XC quadrature grid using
 IXCGrd= 4 IRadAn=           0 IRanWt=          -1 IRanGd=           0 AccXCQ= 0.00D+00.
 Generated NRdTot=       0 NPtTot=           0 NUsed=           0 NTot=          32
 NSgBfM=    60    60    60    60    60 MxSgAt=     8 MxSgA2=     8.
 Leave Link  302 at Wed May 12 11:58:24 2021, MaxMem=  2147483648 cpu:         0.8
 (Enter /opt/cluster/programs/g09_d.01/g09/l303.exe)
 DipDrv:  MaxL=1.
 Leave Link  303 at Wed May 12 11:58:24 2021, MaxMem=  2147483648 cpu:         0.2
 (Enter /opt/cluster/programs/g09_d.01/g09/l401.exe)
 ExpMin= 4.38D-02 ExpMax= 5.48D+03 ExpMxC= 8.25D+02 IAcc=2 IRadAn=         4 AccDes= 0.00D+00
 Harris functional with IExCor= 4639 and IRadAn=       4 diagonalized for initial guess.
 HarFok:  IExCor= 4639 AccDes= 0.00D+00 IRadAn=         4 IDoV= 1 UseB2=F ITyADJ=14
 ICtDFT=  3500011 ScaDFX=  1.000000  1.000000  1.000000  1.000000
 FoFCou: FMM=F IPFlag=           0 FMFlag=      100000 FMFlg1=           0
         NFxFlg=           0 DoJE=T BraDBF=F KetDBF=T FulRan=T
         wScrn=  0.000000 ICntrl=     500 IOpCl=  0 I1Cent=   200000004 NGrid=           0
         NMat0=    1 NMatS0=      1 NMatT0=    0 NMatD0=    1 NMtDS0=    0 NMtDT0=    0
 Petite list used in FoFCou.
 Harris En= -183.746924383006    
 JPrj=0 DoOrth=F DoCkMO=F.
 Leave Link  401 at Wed May 12 11:58:24 2021, MaxMem=  2147483648 cpu:         1.0
 (Enter /opt/cluster/programs/g09_d.01/g09/l502.exe)
 Closed shell SCF:
 Using DIIS extrapolation, IDIIS=  1040.
 Integral symmetry usage will be decided dynamically.
 Keep R1 ints in memory in canonical form, NReq=4262490.
 IVT=       30290 IEndB=       30290 NGot=  2147483648 MDV=  2144102629
 LenX=  2144102629 LenY=  2144098588
 Requested convergence on RMS density matrix=1.00D-08 within 128 cycles.
 Requested convergence on MAX density matrix=1.00D-06.
 Requested convergence on             energy=1.00D-06.
 No special actions if energy rises.
 FoFCou: FMM=F IPFlag=           0 FMFlag=           0 FMFlg1=           0
         NFxFlg=           0 DoJE=F BraDBF=F KetDBF=F FulRan=T
         wScrn=  0.000000 ICntrl=     600 IOpCl=  0 I1Cent=           0 NGrid=           0
         NMat0=    1 NMatS0=   1830 NMatT0=    0 NMatD0=    1 NMtDS0=    0 NMtDT0=    0
 Symmetry not used in FoFCou.

 Cycle   1  Pass 1  IDiag  1:
 E= -191.753646755359    
 DIIS: error= 2.80D-02 at cycle   1 NSaved=   1.
 NSaved= 1 IEnMin= 1 EnMin= -191.753646755359     IErMin= 1 ErrMin= 2.80D-02
 ErrMax= 2.80D-02  0.00D+00 EMaxC= 1.00D-01 BMatC= 7.22D-02 BMatP= 7.22D-02
 IDIUse=3 WtCom= 7.20D-01 WtEn= 2.80D-01
 Coeff-Com:  0.100D+01
 Coeff-En:   0.100D+01
 Coeff:      0.100D+01
 Gap=     0.393 Goal=   None    Shift=    0.000
 GapD=    0.393 DampG=1.000 DampE=0.500 DampFc=0.5000 IDamp=-1.
 Damping current iteration by 5.00D-01
 RMSDP=2.31D-02 MaxDP=5.97D-01              OVMax= 1.01D-01

 Cycle   2  Pass 1  IDiag  1:
 E= -191.771584925509     Delta-E=       -0.017938170150 Rises=F Damp=T
 DIIS: error= 1.42D-02 at cycle   2 NSaved=   2.
 NSaved= 2 IEnMin= 2 EnMin= -191.771584925509     IErMin= 2 ErrMin= 1.42D-02
 ErrMax= 1.42D-02  0.00D+00 EMaxC= 1.00D-01 BMatC= 1.11D-02 BMatP= 7.22D-02
 IDIUse=3 WtCom= 8.58D-01 WtEn= 1.42D-01
 Coeff-Com: -0.196D+00 0.120D+01
 Coeff-En:   0.000D+00 0.100D+01
 Coeff:     -0.168D+00 0.117D+01
 Gap=     0.378 Goal=   None    Shift=    0.000
 RMSDP=1.01D-02 MaxDP=2.51D-01 DE=-1.79D-02 OVMax= 9.09D-02

 Cycle   3  Pass 1  IDiag  1:
 E= -191.786802506497     Delta-E=       -0.015217580988 Rises=F Damp=F
 DIIS: error= 1.27D-02 at cycle   3 NSaved=   3.
 NSaved= 3 IEnMin= 3 EnMin= -191.786802506497     IErMin= 3 ErrMin= 1.27D-02
 ErrMax= 1.27D-02  0.00D+00 EMaxC= 1.00D-01 BMatC= 7.09D-03 BMatP= 1.11D-02
 IDIUse=3 WtCom= 8.73D-01 WtEn= 1.27D-01
 Coeff-Com: -0.248D+00 0.616D+00 0.632D+00
 Coeff-En:   0.000D+00 0.000D+00 0.100D+01
 Coeff:     -0.217D+00 0.538D+00 0.678D+00
 Gap=     0.341 Goal=   None    Shift=    0.000
 RMSDP=3.48D-03 MaxDP=6.51D-02 DE=-1.52D-02 OVMax= 3.39D-02

 Cycle   4  Pass 1  IDiag  1:
 E= -191.791396171807     Delta-E=       -0.004593665310 Rises=F Damp=F
 DIIS: error= 5.01D-03 at cycle   4 NSaved=   4.
 NSaved= 4 IEnMin= 4 EnMin= -191.791396171807     IErMin= 4 ErrMin= 5.01D-03
 ErrMax= 5.01D-03  0.00D+00 EMaxC= 1.00D-01 BMatC= 1.19D-03 BMatP= 7.09D-03
 IDIUse=3 WtCom= 9.50D-01 WtEn= 5.01D-02
 Coeff-Com: -0.823D-01 0.158D+00 0.368D+00 0.557D+00
 Coeff-En:   0.000D+00 0.000D+00 0.136D+00 0.864D+00
 Coeff:     -0.782D-01 0.150D+00 0.356D+00 0.572D+00
 Gap=     0.336 Goal=   None    Shift=    0.000
 RMSDP=6.62D-04 MaxDP=7.07D-03 DE=-4.59D-03 OVMax= 1.13D-02

 Cycle   5  Pass 1  IDiag  1:
 E= -191.792351093988     Delta-E=       -0.000954922181 Rises=F Damp=F
 DIIS: error= 8.21D-04 at cycle   5 NSaved=   5.
 NSaved= 5 IEnMin= 5 EnMin= -191.792351093988     IErMin= 5 ErrMin= 8.21D-04
 ErrMax= 8.21D-04  0.00D+00 EMaxC= 1.00D-01 BMatC= 1.85D-05 BMatP= 1.19D-03
 IDIUse=3 WtCom= 9.92D-01 WtEn= 8.21D-03
 Coeff-Com: -0.213D-01 0.347D-01 0.118D+00 0.228D+00 0.641D+00
 Coeff-En:   0.000D+00 0.000D+00 0.000D+00 0.000D+00 0.100D+01
 Coeff:     -0.212D-01 0.344D-01 0.117D+00 0.226D+00 0.643D+00
 Gap=     0.336 Goal=   None    Shift=    0.000
 RMSDP=3.24D-04 MaxDP=6.02D-03 DE=-9.55D-04 OVMax= 2.21D-03

 Cycle   6  Pass 1  IDiag  1:
 E= -191.792372324938     Delta-E=       -0.000021230950 Rises=F Damp=F
 DIIS: error= 3.07D-04 at cycle   6 NSaved=   6.
 NSaved= 6 IEnMin= 6 EnMin= -191.792372324938     IErMin= 6 ErrMin= 3.07D-04
 ErrMax= 3.07D-04  0.00D+00 EMaxC= 1.00D-01 BMatC= 1.63D-06 BMatP= 1.85D-05
 IDIUse=3 WtCom= 9.97D-01 WtEn= 3.07D-03
 Coeff-Com:  0.109D-01-0.219D-01-0.394D-01-0.539D-01 0.156D+00 0.948D+00
 Coeff-En:   0.000D+00 0.000D+00 0.000D+00 0.000D+00 0.000D+00 0.100D+01
 Coeff:      0.108D-01-0.218D-01-0.393D-01-0.537D-01 0.156D+00 0.948D+00
 Gap=     0.336 Goal=   None    Shift=    0.000
 RMSDP=2.56D-04 MaxDP=4.58D-03 DE=-2.12D-05 OVMax= 1.31D-03

 Cycle   7  Pass 1  IDiag  1:
 E= -191.792375592151     Delta-E=       -0.000003267213 Rises=F Damp=F
 DIIS: error= 4.14D-05 at cycle   7 NSaved=   7.
 NSaved= 7 IEnMin= 7 EnMin= -191.792375592151     IErMin= 7 ErrMin= 4.14D-05
 ErrMax= 4.14D-05  0.00D+00 EMaxC= 1.00D-01 BMatC= 1.17D-07 BMatP= 1.63D-06
 IDIUse=1 WtCom= 1.00D+00 WtEn= 0.00D+00
 Coeff-Com:  0.413D-02-0.753D-02-0.197D-01-0.312D-01-0.819D-02 0.237D+00
 Coeff-Com:  0.826D+00
 Coeff:      0.413D-02-0.753D-02-0.197D-01-0.312D-01-0.819D-02 0.237D+00
 Coeff:      0.826D+00
 Gap=     0.336 Goal=   None    Shift=    0.000
 RMSDP=4.76D-05 MaxDP=8.51D-04 DE=-3.27D-06 OVMax= 2.44D-04

 Cycle   8  Pass 1  IDiag  1:
 E= -191.792375838266     Delta-E=       -0.000000246115 Rises=F Damp=F
 DIIS: error= 1.24D-05 at cycle   8 NSaved=   8.
 NSaved= 8 IEnMin= 8 EnMin= -191.792375838266     IErMin= 8 ErrMin= 1.24D-05
 ErrMax= 1.24D-05  0.00D+00 EMaxC= 1.00D-01 BMatC= 1.12D-08 BMatP= 1.17D-07
 IDIUse=1 WtCom= 1.00D+00 WtEn= 0.00D+00
 Coeff-Com: -0.134D-02 0.270D-02 0.363D-02 0.517D-02-0.139D-01-0.953D-01
 Coeff-Com:  0.783D-01 0.102D+01
 Coeff:     -0.134D-02 0.270D-02 0.363D-02 0.517D-02-0.139D-01-0.953D-01
 Coeff:      0.783D-01 0.102D+01
 Gap=     0.336 Goal=   None    Shift=    0.000
 RMSDP=9.65D-06 MaxDP=1.36D-04 DE=-2.46D-07 OVMax= 1.18D-04

 Cycle   9  Pass 1  IDiag  1:
 E= -191.792375871207     Delta-E=       -0.000000032941 Rises=F Damp=F
 DIIS: error= 6.46D-06 at cycle   9 NSaved=   9.
 NSaved= 9 IEnMin= 9 EnMin= -191.792375871207     IErMin= 9 ErrMin= 6.46D-06
 ErrMax= 6.46D-06  0.00D+00 EMaxC= 1.00D-01 BMatC= 6.65D-10 BMatP= 1.12D-08
 IDIUse=1 WtCom= 1.00D+00 WtEn= 0.00D+00
 Coeff-Com: -0.229D-03 0.409D-03 0.108D-02 0.166D-02 0.313D-02-0.131D-01
 Coeff-Com: -0.719D-01-0.965D-01 0.118D+01
 Coeff:     -0.229D-03 0.409D-03 0.108D-02 0.166D-02 0.313D-02-0.131D-01
 Coeff:     -0.719D-01-0.965D-01 0.118D+01
 Gap=     0.336 Goal=   None    Shift=    0.000
 RMSDP=2.56D-06 MaxDP=2.48D-05 DE=-3.29D-08 OVMax= 6.48D-05

 Cycle  10  Pass 1  IDiag  1:
 E= -191.792375875539     Delta-E=       -0.000000004331 Rises=F Damp=F
 DIIS: error= 2.97D-06 at cycle  10 NSaved=  10.
 NSaved=10 IEnMin=10 EnMin= -191.792375875539     IErMin=10 ErrMin= 2.97D-06
 ErrMax= 2.97D-06  0.00D+00 EMaxC= 1.00D-01 BMatC= 7.35D-11 BMatP= 6.65D-10
 IDIUse=1 WtCom= 1.00D+00 WtEn= 0.00D+00
 Coeff-Com:  0.191D-03-0.363D-03-0.767D-03-0.108D-02-0.119D-03 0.119D-01
 Coeff-Com:  0.245D-01-0.322D-01-0.521D+00 0.152D+01
 Coeff:      0.191D-03-0.363D-03-0.767D-03-0.108D-02-0.119D-03 0.119D-01
 Coeff:      0.245D-01-0.322D-01-0.521D+00 0.152D+01
 Gap=     0.336 Goal=   None    Shift=    0.000
 RMSDP=1.24D-06 MaxDP=1.18D-05 DE=-4.33D-09 OVMax= 3.76D-05

 Cycle  11  Pass 1  IDiag  1:
 E= -191.792375876305     Delta-E=       -0.000000000766 Rises=F Damp=F
 DIIS: error= 9.13D-07 at cycle  11 NSaved=  11.
 NSaved=11 IEnMin=11 EnMin= -191.792375876305     IErMin=11 ErrMin= 9.13D-07
 ErrMax= 9.13D-07  0.00D+00 EMaxC= 1.00D-01 BMatC= 7.63D-12 BMatP= 7.35D-11
 IDIUse=1 WtCom= 1.00D+00 WtEn= 0.00D+00
 Coeff-Com: -0.469D-04 0.909D-04 0.198D-03 0.256D-03-0.165D-03-0.314D-02
 Coeff-Com: -0.112D-02 0.219D-01 0.955D-01-0.683D+00 0.157D+01
 Coeff:     -0.469D-04 0.909D-04 0.198D-03 0.256D-03-0.165D-03-0.314D-02
 Coeff:     -0.112D-02 0.219D-01 0.955D-01-0.683D+00 0.157D+01
 Gap=     0.336 Goal=   None    Shift=    0.000
 RMSDP=4.50D-07 MaxDP=3.98D-06 DE=-7.66D-10 OVMax= 1.47D-05

 Cycle  12  Pass 1  IDiag  1:
 E= -191.792375876392     Delta-E=       -0.000000000087 Rises=F Damp=F
 DIIS: error= 1.43D-07 at cycle  12 NSaved=  12.
 NSaved=12 IEnMin=12 EnMin= -191.792375876392     IErMin=12 ErrMin= 1.43D-07
 ErrMax= 1.43D-07  0.00D+00 EMaxC= 1.00D-01 BMatC= 6.19D-13 BMatP= 7.63D-12
 IDIUse=1 WtCom= 1.00D+00 WtEn= 0.00D+00
 Coeff-Com:  0.114D-05-0.276D-05 0.342D-05 0.139D-05-0.582D-04 0.153D-03
 Coeff-Com: -0.159D-02-0.334D-02 0.959D-02 0.705D-01-0.372D+00 0.130D+01
 Coeff:      0.114D-05-0.276D-05 0.342D-05 0.139D-05-0.582D-04 0.153D-03
 Coeff:     -0.159D-02-0.334D-02 0.959D-02 0.705D-01-0.372D+00 0.130D+01
 Gap=     0.336 Goal=   None    Shift=    0.000
 RMSDP=9.67D-08 MaxDP=1.01D-06 DE=-8.66D-11 OVMax= 2.05D-06

 Cycle  13  Pass 1  IDiag  1:
 E= -191.792375876393     Delta-E=       -0.000000000001 Rises=F Damp=F
 DIIS: error= 2.08D-08 at cycle  13 NSaved=  13.
 NSaved=13 IEnMin=13 EnMin= -191.792375876393     IErMin=13 ErrMin= 2.08D-08
 ErrMax= 2.08D-08  0.00D+00 EMaxC= 1.00D-01 BMatC= 9.64D-15 BMatP= 6.19D-13
 IDIUse=1 WtCom= 1.00D+00 WtEn= 0.00D+00
 Coeff-Com:  0.148D-05-0.278D-05-0.700D-05-0.850D-05 0.387D-05 0.111D-03
 Coeff-Com:  0.273D-03-0.236D-03-0.472D-02 0.119D-01 0.430D-02-0.209D+00
 Coeff-Com:  0.120D+01
 Coeff:      0.148D-05-0.278D-05-0.700D-05-0.850D-05 0.387D-05 0.111D-03
 Coeff:      0.273D-03-0.236D-03-0.472D-02 0.119D-01 0.430D-02-0.209D+00
 Coeff:      0.120D+01
 Gap=     0.336 Goal=   None    Shift=    0.000
 RMSDP=1.27D-08 MaxDP=1.13D-07 DE=-1.25D-12 OVMax= 1.68D-07

 Cycle  14  Pass 1  IDiag  1:
 E= -191.792375876393     Delta-E=        0.000000000000 Rises=F Damp=F
 DIIS: error= 2.08D-09 at cycle  14 NSaved=  14.
 NSaved=14 IEnMin=13 EnMin= -191.792375876393     IErMin=14 ErrMin= 2.08D-09
 ErrMax= 2.08D-09  0.00D+00 EMaxC= 1.00D-01 BMatC= 1.88D-16 BMatP= 9.64D-15
 IDIUse=1 WtCom= 1.00D+00 WtEn= 0.00D+00
 Coeff-Com: -0.113D-06 0.218D-06 0.475D-06 0.346D-06 0.512D-06-0.757D-05
 Coeff-Com:  0.362D-06 0.901D-04 0.289D-03-0.272D-02 0.726D-02 0.492D-03
 Coeff-Com: -0.186D+00 0.118D+01
 Coeff:     -0.113D-06 0.218D-06 0.475D-06 0.346D-06 0.512D-06-0.757D-05
 Coeff:      0.362D-06 0.901D-04 0.289D-03-0.272D-02 0.726D-02 0.492D-03
 Coeff:     -0.186D+00 0.118D+01
 Gap=     0.336 Goal=   None    Shift=    0.000
 RMSDP=2.93D-09 MaxDP=4.51D-08 DE= 3.41D-13 OVMax= 1.77D-08

 SCF Done:  E(RwB97XD) =  -191.792375876     A.U. after   14 cycles
            NFock= 14  Conv=0.29D-08     -V/T= 2.0061
 KE= 1.906366879290D+02 PE=-6.545138439246D+02 EE= 1.685668742369D+02
 Leave Link  502 at Wed May 12 11:58:25 2021, MaxMem=  2147483648 cpu:         9.3
 (Enter /opt/cluster/programs/g09_d.01/g09/l601.exe)
 Copying SCF densities to generalized density rwf, IOpCl= 0 IROHF=0.

 **********************************************************************

            Population analysis using the SCF density.

 **********************************************************************

 Orbital symmetries:
       Occupied  (A) (A) (A) (A) (A) (A) (A) (A) (A) (A) (A) (A)
                 (A) (A) (A)
       Virtual   (A) (A) (A) (A) (A) (A) (A) (A) (A) (A) (A) (A)
                 (A) (A) (A) (A) (A) (A) (A) (A) (A) (A) (A) (A)
                 (A) (A) (A) (A) (A) (A) (A) (A) (A) (A) (A) (A)
                 (A) (A) (A) (A) (A) (A) (A) (A) (A)
 The electronic state is 1-A.
 Alpha  occ. eigenvalues --  -19.28720 -10.40545 -10.33379 -10.33024  -1.16532
 Alpha  occ. eigenvalues --   -0.90947  -0.77093  -0.65161  -0.61408  -0.54476
 Alpha  occ. eigenvalues --   -0.52593  -0.48989  -0.47722  -0.37630  -0.35255
 Alpha virt. eigenvalues --   -0.01609   0.06948   0.08145   0.09548   0.10300
 Alpha virt. eigenvalues --    0.11685   0.12600   0.13176   0.15018   0.16054
 Alpha virt. eigenvalues --    0.17593   0.17965   0.20230   0.22189   0.25969
 Alpha virt. eigenvalues --    0.28102   0.31413   0.32396   0.32568   0.34542
 Alpha virt. eigenvalues --    0.36522   0.39088   0.41577   0.46137   0.53601
 Alpha virt. eigenvalues --    0.71300   0.72968   0.76998   0.78641   0.80593
 Alpha virt. eigenvalues --    0.82700   0.88524   0.98892   1.02397   1.05246
 Alpha virt. eigenvalues --    1.10617   1.13859   1.22490   1.23540   1.28947
 Alpha virt. eigenvalues --    1.31322   1.39478   1.41473   1.42654   1.91800
          Condensed to atoms (all electrons):
               1          2          3          4          5          6
     1  C    5.208015   0.311591   0.070689   0.055042   0.041171   0.358496
     2  C    0.311591   5.939557  -0.054318  -0.223405  -0.169293  -0.024669
     3  C    0.070689  -0.054318   5.165437   0.331041   0.392627   0.011842
     4  O    0.055042  -0.223405   0.331041   8.334889  -0.067089   0.000728
     5  H    0.041171  -0.169293   0.392627  -0.067089   0.622612  -0.000061
     6  H    0.358496  -0.024669   0.011842   0.000728  -0.000061   0.473175
     7  H    0.391537  -0.051637   0.004593   0.000465   0.000109  -0.022491
     8  H    0.004456   0.300694   0.003934   0.004927   0.001135  -0.002923
               7          8
     1  C    0.391537   0.004456
     2  C   -0.051637   0.300694
     3  C    0.004593   0.003934
     4  O    0.000465   0.004927
     5  H    0.000109   0.001135
     6  H   -0.022491  -0.002923
     7  H    0.441074   0.002443
     8  H    0.002443   0.471970
 Mulliken charges:
               1
     1  C   -0.440997
     2  C   -0.028520
     3  C    0.074155
     4  O   -0.436599
     5  H    0.178788
     6  H    0.205903
     7  H    0.233907
     8  H    0.213362
 Sum of Mulliken charges =   0.00000
 Mulliken charges with hydrogens summed into heavy atoms:
               1
     1  C   -0.001187
     2  C    0.184843
     3  C    0.252943
     4  O   -0.436599
 Electronic spatial extent (au):  <R**2>=            274.4368
 Charge=              0.0000 electrons
 Dipole moment (field-independent basis, Debye):
    X=              2.6049    Y=              1.9993    Z=              0.3266  Tot=              3.2998
 Quadrupole moment (field-independent basis, Debye-Ang):
   XX=            -24.9353   YY=            -22.4617   ZZ=            -25.3301
   XY=             -3.7453   XZ=             -0.5114   YZ=             -0.4849
 Traceless Quadrupole moment (field-independent basis, Debye-Ang):
   XX=             -0.6929   YY=              1.7806   ZZ=             -1.0877
   XY=             -3.7453   XZ=             -0.5114   YZ=             -0.4849
 Octapole moment (field-independent basis, Debye-Ang**2):
  XXX=              9.7809  YYY=              0.2914  ZZZ=             -0.1011  XYY=              1.0263
  XXY=              3.4050  XXZ=             -0.0131  XZZ=             -3.6812  YZZ=             -0.7981
  YYZ=              0.3508  XYZ=             -0.5288
 Hexadecapole moment (field-independent basis, Debye-Ang**3):
 XXXX=           -236.4296 YYYY=            -82.8187 ZZZZ=            -28.5322 XXXY=             -7.6013
 XXXZ=             -1.3948 YYYX=             -0.1093 YYYZ=             -1.1867 ZZZX=              0.1722
 ZZZY=             -0.1566 XXYY=            -54.1839 XXZZ=            -47.6690 YYZZ=            -20.1973
 XXYZ=             -0.3176 YYXZ=             -0.6406 ZZXY=              0.4294
 N-N= 1.035179058822D+02 E-N=-6.545138439200D+02  KE= 1.906366879290D+02
 No NMR shielding tensors so no spin-rotation constants.
 Leave Link  601 at Wed May 12 11:58:25 2021, MaxMem=  2147483648 cpu:         0.6
 (Enter /opt/cluster/programs/g09_d.01/g09/l701.exe)
 Compute integral first derivatives.
 ... and contract with generalized density number  0.
 R6Disp: Adding Grimme-D2 dispersion energy 1st derivatives to the gradient.
 Leave Link  701 at Wed May 12 11:58:25 2021, MaxMem=  2147483648 cpu:         0.6
 (Enter /opt/cluster/programs/g09_d.01/g09/l702.exe)
 L702 exits ... SP integral derivatives will be done elsewhere.
 Leave Link  702 at Wed May 12 11:58:25 2021, MaxMem=  2147483648 cpu:         0.2
 (Enter /opt/cluster/programs/g09_d.01/g09/l703.exe)
 Compute integral first derivatives, UseDBF=F ICtDFT=           0.
 Integral derivatives from FoFJK, PRISM(SPDF).
 Calling FoFJK, ICntrl=      2127 FMM=F ISym2X=0 I1Cent= 0 IOpClX= 0 NMat=1 NMatS=1 NMatT=0.
 FoFJK:  IHMeth= 1 ICntrl=    2127 DoSepK=T KAlg= 0 I1Cent=   0 FoldK=F
 IRaf=         1 NMat=   1 IRICut=       1 DoRegI=T DoRafI=F ISym2E= 0.
 FoFCou: FMM=F IPFlag=           0 FMFlag=      100000 FMFlg1=         800
         NFxFlg=           0 DoJE=F BraDBF=F KetDBF=F FulRan=T
         wScrn=  0.000000 ICntrl=    2527 IOpCl=  0 I1Cent=           0 NGrid=           0
         NMat0=    1 NMatS0=      1 NMatT0=    0 NMatD0=    1 NMtDS0=    0 NMtDT0=    0
 Symmetry not used in FoFCou.
 Leave Link  703 at Wed May 12 11:58:26 2021, MaxMem=  2147483648 cpu:         2.5
 (Enter /opt/cluster/programs/g09_d.01/g09/l716.exe)
 Dipole        = 1.02482986D+00 7.86565851D-01 1.28482193D-01
 ***** Axes restored to original set *****
 -------------------------------------------------------------------
 Center     Atomic                   Forces (Hartrees/Bohr)
 Number     Number              X              Y              Z
 -------------------------------------------------------------------
      1        6          -0.003883725   -0.003225089    0.002412969
      2        6           0.003606022    0.003365757   -0.004870973
      3        6          -0.005321940    0.005893590    0.005148566
      4        8           0.006061717   -0.007621624   -0.003285125
      5        1           0.000551260    0.001609597    0.000257546
      6        1          -0.000665668   -0.000455745    0.000082812
      7        1          -0.000300243   -0.000345320    0.000070441
      8        1          -0.000047424    0.000778835    0.000183763
 -------------------------------------------------------------------
 Cartesian Forces:  Max     0.007621624 RMS     0.003409738
 Leave Link  716 at Wed May 12 11:58:26 2021, MaxMem=  2147483648 cpu:         0.2
 (Enter /opt/cluster/programs/g09_d.01/g09/l103.exe)

 GradGradGradGradGradGradGradGradGradGradGradGradGradGradGradGradGradGrad
 Berny optimization.
 FormGI is forming the generalized inverse of G from B-inverse, IUseBI=4.
 Internal  Forces:  Max     0.009953285 RMS     0.002645235
 Search for a local minimum.
 Step number   1 out of a maximum of   34
 All quantities printed in internal units (Hartrees-Bohrs-Radians)
 RMS Force = .25873D-02 SwitMx=.10000D-02 MixMth= 1
 Mixed Optimization -- RFO/linear search
 Second derivative matrix not updated -- first step.
 ITU=  0
     Eigenvalues ---    0.01078   0.01818   0.02810   0.02810   0.15974
     Eigenvalues ---    0.16000   0.16000   0.16000   0.22001   0.22006
     Eigenvalues ---    0.33355   0.34975   0.35017   0.35189   0.35344
     Eigenvalues ---    0.55999   0.851351000.000001000.000001000.00000
     Eigenvalues --- 1000.000001000.000001000.000001000.00000
 RFO step:  Lambda=-2.50046754D-04 EMin= 1.07790892D-02
 Linear search not attempted -- first point.
 Iteration  1 RMS(Cart)=  0.01096683 RMS(Int)=  0.00003614
 Iteration  2 RMS(Cart)=  0.00004165 RMS(Int)=  0.00000269
 Iteration  3 RMS(Cart)=  0.00000000 RMS(Int)=  0.00000269
 Iteration  1 RMS(Cart)=  0.00000030 RMS(Int)=  0.00000028
 ITry= 1 IFail=0 DXMaxC= 3.33D-02 DCOld= 1.00D+10 DXMaxT= 3.00D-01 DXLimC= 3.00D+00 Rises=F
 Variable       Old X    -DE/DX   Delta X   Delta X   Delta X     New X
                                 (Linear)    (Quad)   (Total)
    R1        2.54255  -0.00634   0.00000  -0.01131  -0.01131   2.53123
    R2        2.05120  -0.00061   0.00000  -0.00172  -0.00172   2.04948
    R3        2.05370  -0.00022   0.00000  -0.00062  -0.00062   2.05307
    R4        2.79015  -0.00149   0.00000  -0.00425  -0.00425   2.78590
    R5        2.05648  -0.00072   0.00000  -0.00205  -0.00205   2.05443
    R6        2.35259  -0.00995   0.00000  -0.01169  -0.01169   2.34091
    R7        2.08433  -0.00169   0.00000  -0.00506  -0.00506   2.07927
    A1        2.12669  -0.00045   0.00000  -0.00281  -0.00281   2.12388
    A2        2.10701  -0.00019   0.00000  -0.00120  -0.00120   2.10581
    A3        2.04949   0.00064   0.00000   0.00400   0.00400   2.05349
    A4        2.13974  -0.00164   0.00000  -0.00745  -0.00746   2.13228
    A5        2.11337   0.00066   0.00000   0.00241   0.00241   2.11578
    A6        2.02786   0.00106   0.00000   0.00547   0.00547   2.03333
    A7        2.17568  -0.00151   0.00000  -0.00691  -0.00691   2.16877
    A8        2.02215   0.00113   0.00000   0.00565   0.00565   2.02780
    A9        2.08517   0.00043   0.00000   0.00130   0.00130   2.08647
    D1       -3.10555  -0.00070   0.00000  -0.00499  -0.00499  -3.11054
    D2       -0.03819   0.00063   0.00000   0.00248   0.00248  -0.03571
    D3        0.03671  -0.00062   0.00000  -0.00227  -0.00226   0.03444
    D4        3.10406   0.00070   0.00000   0.00521   0.00520   3.10927
    D5       -0.34905   0.00294   0.00000   0.00000   0.00000  -0.34905
    D6        2.81347   0.00056   0.00000  -0.00258  -0.00258   2.81089
    D7        2.86339   0.00169   0.00000  -0.00704  -0.00704   2.85634
    D8       -0.25728  -0.00069   0.00000  -0.00962  -0.00962  -0.26691
         Item               Value     Threshold  Converged?
 Maximum Force            0.009953     0.000450     NO 
 RMS     Force            0.002587     0.000300     NO 
 Maximum Displacement     0.033341     0.001800     NO 
 RMS     Displacement     0.010962     0.001200     NO 
 Predicted change in Energy=-1.251036D-04
 Lowest energy point so far.  Saving SCF results.
 GradGradGradGradGradGradGradGradGradGradGradGradGradGradGradGradGradGrad

 Leave Link  103 at Wed May 12 11:58:26 2021, MaxMem=  2147483648 cpu:         0.0
 (Enter /opt/cluster/programs/g09_d.01/g09/l202.exe)
                          Input orientation:                          
 ---------------------------------------------------------------------
 Center     Atomic      Atomic             Coordinates (Angstroms)
 Number     Number       Type             X           Y           Z
 ---------------------------------------------------------------------
      1          6           0        1.484810    0.463596   -0.037946
      2          6           0        0.666821   -0.592137    0.064551
      3          6           0       -0.795881   -0.467918   -0.071251
      4          8           0       -1.421516    0.592319    0.066556
      5          1           0       -1.343460   -1.396137   -0.293126
      6          1           0        2.561825    0.359043    0.035021
      7          1           0        1.084511    1.461278   -0.195250
      8          1           0        1.058457   -1.598237    0.192195
 ---------------------------------------------------------------------
                    Distance matrix (angstroms):
                    1          2          3          4          5
     1  C    0.000000
     2  C    1.339471   0.000000
     3  C    2.463814   1.474236   0.000000
     4  O    2.911051   2.400853   1.238755   0.000000
     5  H    3.394530   2.194443   1.100301   2.022233   0.000000
     6  H    1.084536   2.120532   3.459675   3.990291   4.294134
     7  H    1.086440   2.111510   2.696859   2.665296   3.750926
     8  H    2.117994   1.087156   2.187600   3.311282   2.458777
                    6          7          8
     6  H    0.000000
     7  H    1.857526   0.000000
     8  H    2.473008   3.084059   0.000000
 Stoichiometry    C3H4O
 Framework group  C1[X(C3H4O)]
 Deg. of freedom    18
 Full point group                 C1      NOp   1
 RotChk:  IX=0 Diff= 2.56D-03
 Largest Abelian subgroup         C1      NOp   1
 Largest concise Abelian subgroup C1      NOp   1
                         Standard orientation:                         
 ---------------------------------------------------------------------
 Center     Atomic      Atomic             Coordinates (Angstroms)
 Number     Number       Type             X           Y           Z
 ---------------------------------------------------------------------
      1          6           0        1.479955   -0.466426    0.037706
      2          6           0        0.663619    0.590550   -0.065156
      3          6           0       -0.799219    0.468779    0.071403
      4          8           0       -1.426621   -0.590547   -0.065373
      5          1           0       -1.345202    1.398033    0.292878
      6          1           0        2.557104   -0.363656   -0.035828
      7          1           0        1.078125   -1.463351    0.195895
      8          1           0        1.056813    1.595929   -0.193686
 ---------------------------------------------------------------------
 Rotational constants (GHZ):     22.9083805      6.1055948      4.8538077
 Leave Link  202 at Wed May 12 11:58:26 2021, MaxMem=  2147483648 cpu:         0.0
 (Enter /opt/cluster/programs/g09_d.01/g09/l301.exe)
 Standard basis: 6-31+G (6D, 7F)
 Ernie: Thresh=  0.10000D-02 Tol=  0.10000D-05 Strict=F.
 There are    60 symmetry adapted cartesian basis functions of A   symmetry.
 There are    60 symmetry adapted basis functions of A   symmetry.
    60 basis functions,   120 primitive gaussians,    60 cartesian basis functions
    15 alpha electrons       15 beta electrons
       nuclear repulsion energy       103.9428852504 Hartrees.
 IExCor= 4639 DFT=T Ex+Corr=wB97XD ExCW=0 ScaHFX=  1.000000
 ScaDFX=  1.000000  1.000000  1.000000  1.000000 ScalE2=  1.000000  1.000000
 IRadAn=      0 IRanWt=     -1 IRanGd=            0 ICorTp=0 IEmpDi=121
  HFx wShort=  0.000000 wLong=  0.200000 cFull=  0.222036 cShort=  0.000000 cLong=  0.777964
  DFx wShort=  0.000000 wLong=  0.200000 cFull=  0.000000 cShort=  0.000000 cLong=  1.000000
 NAtoms=    8 NActive=    8 NUniq=    8 SFac= 1.00D+00 NAtFMM=   60 NAOKFM=F Big=F
 Integral buffers will be    131072 words long.
 Raffenetti 2 integral format.
 Two-electron integral symmetry is turned on.
 R6Disp:  Grimme-D2 Dispersion energy=       -0.0017702295 Hartrees.
 Nuclear repulsion after empirical dispersion term =      103.9411150209 Hartrees.
 Leave Link  301 at Wed May 12 11:58:26 2021, MaxMem=  2147483648 cpu:         0.3
 (Enter /opt/cluster/programs/g09_d.01/g09/l302.exe)
 NPDir=0 NMtPBC=     1 NCelOv=     1 NCel=       1 NClECP=     1 NCelD=      1
         NCelK=      1 NCelE2=     1 NClLst=     1 CellRange=     0.0.
 One-electron integrals computed using PRISM.
 NBasis=    60 RedAO= T EigKep=  1.30D-04  NBF=    60
 NBsUse=    60 1.00D-06 EigRej= -1.00D+00 NBFU=    60
 Precomputing XC quadrature grid using
 IXCGrd= 4 IRadAn=           0 IRanWt=          -1 IRanGd=           0 AccXCQ= 0.00D+00.
 Generated NRdTot=       0 NPtTot=           0 NUsed=           0 NTot=          32
 NSgBfM=    60    60    60    60    60 MxSgAt=     8 MxSgA2=     8.
 Leave Link  302 at Wed May 12 11:58:26 2021, MaxMem=  2147483648 cpu:         0.8
 (Enter /opt/cluster/programs/g09_d.01/g09/l303.exe)
 DipDrv:  MaxL=1.
 Leave Link  303 at Wed May 12 11:58:26 2021, MaxMem=  2147483648 cpu:         0.2
 (Enter /opt/cluster/programs/g09_d.01/g09/l401.exe)
 Initial guess from the checkpoint file:  "/home/unibas/boittier/RDKit_G2/L.pdb/SCAN_1_2_3_4_S_17_20.0/8_SCAN_1_2_3_4_F/L.pdb.chk"
 B after Tr=     0.000000    0.000000    0.000000
         Rot=    1.000000   -0.000084    0.000276    0.000134 Ang=  -0.04 deg.
 Guess basis will be translated and rotated to current coordinates.
 JPrj=2 DoOrth=T DoCkMO=T.
 Generating alternative initial guess.
 ExpMin= 4.38D-02 ExpMax= 5.48D+03 ExpMxC= 8.25D+02 IAcc=2 IRadAn=         4 AccDes= 0.00D+00
 Harris functional with IExCor= 4639 and IRadAn=       4 diagonalized for initial guess.
 HarFok:  IExCor= 4639 AccDes= 0.00D+00 IRadAn=         4 IDoV= 1 UseB2=F ITyADJ=14
 ICtDFT=  3500011 ScaDFX=  1.000000  1.000000  1.000000  1.000000
 FoFCou: FMM=F IPFlag=           0 FMFlag=      100000 FMFlg1=           0
         NFxFlg=           0 DoJE=T BraDBF=F KetDBF=T FulRan=T
         wScrn=  0.000000 ICntrl=     500 IOpCl=  0 I1Cent=   200000004 NGrid=           0
         NMat0=    1 NMatS0=      1 NMatT0=    0 NMatD0=    1 NMtDS0=    0 NMtDT0=    0
 Petite list used in FoFCou.
 Harris En= -183.744392266906    
 Leave Link  401 at Wed May 12 11:58:26 2021, MaxMem=  2147483648 cpu:         1.4
 (Enter /opt/cluster/programs/g09_d.01/g09/l502.exe)
 Closed shell SCF:
 Using DIIS extrapolation, IDIIS=  1040.
 Integral symmetry usage will be decided dynamically.
 Keep R1 ints in memory in canonical form, NReq=4262490.
 IVT=       30290 IEndB=       30290 NGot=  2147483648 MDV=  2144102629
 LenX=  2144102629 LenY=  2144098588
 Requested convergence on RMS density matrix=1.00D-08 within 128 cycles.
 Requested convergence on MAX density matrix=1.00D-06.
 Requested convergence on             energy=1.00D-06.
 No special actions if energy rises.
 FoFCou: FMM=F IPFlag=           0 FMFlag=           0 FMFlg1=           0
         NFxFlg=           0 DoJE=F BraDBF=F KetDBF=F FulRan=T
         wScrn=  0.000000 ICntrl=     600 IOpCl=  0 I1Cent=           0 NGrid=           0
         NMat0=    1 NMatS0=   1830 NMatT0=    0 NMatD0=    1 NMtDS0=    0 NMtDT0=    0
 Symmetry not used in FoFCou.

 Cycle   1  Pass 1  IDiag  1:
 E= -191.792408501012    
 DIIS: error= 1.04D-03 at cycle   1 NSaved=   1.
 NSaved= 1 IEnMin= 1 EnMin= -191.792408501012     IErMin= 1 ErrMin= 1.04D-03
 ErrMax= 1.04D-03  0.00D+00 EMaxC= 1.00D-01 BMatC= 5.67D-05 BMatP= 5.67D-05
 IDIUse=3 WtCom= 9.90D-01 WtEn= 1.04D-02
 Coeff-Com:  0.100D+01
 Coeff-En:   0.100D+01
 Coeff:      0.100D+01
 Gap=     0.615 Goal=   None    Shift=    0.000
 GapD=    0.615 DampG=2.000 DampE=1.000 DampFc=2.0000 IDamp=-1.
 RMSDP=3.05D-04 MaxDP=3.58D-03              OVMax= 2.49D-03

 Cycle   2  Pass 1  IDiag  1:
 E= -191.792491732270     Delta-E=       -0.000083231258 Rises=F Damp=F
 DIIS: error= 1.97D-04 at cycle   2 NSaved=   2.
 NSaved= 2 IEnMin= 2 EnMin= -191.792491732270     IErMin= 2 ErrMin= 1.97D-04
 ErrMax= 1.97D-04  0.00D+00 EMaxC= 1.00D-01 BMatC= 3.72D-06 BMatP= 5.67D-05
 IDIUse=3 WtCom= 9.98D-01 WtEn= 1.97D-03
 Coeff-Com:  0.624D-02 0.994D+00
 Coeff-En:   0.000D+00 0.100D+01
 Coeff:      0.623D-02 0.994D+00
 Gap=     0.338 Goal=   None    Shift=    0.000
 RMSDP=8.48D-05 MaxDP=1.07D-03 DE=-8.32D-05 OVMax= 8.10D-04

 Cycle   3  Pass 1  IDiag  1:
 E= -191.792496772045     Delta-E=       -0.000005039774 Rises=F Damp=F
 DIIS: error= 1.05D-04 at cycle   3 NSaved=   3.
 NSaved= 3 IEnMin= 3 EnMin= -191.792496772045     IErMin= 3 ErrMin= 1.05D-04
 ErrMax= 1.05D-04  0.00D+00 EMaxC= 1.00D-01 BMatC= 1.03D-06 BMatP= 3.72D-06
 IDIUse=3 WtCom= 9.99D-01 WtEn= 1.05D-03
 Coeff-Com: -0.667D-01 0.318D+00 0.749D+00
 Coeff-En:   0.000D+00 0.000D+00 0.100D+01
 Coeff:     -0.666D-01 0.317D+00 0.749D+00
 Gap=     0.338 Goal=   None    Shift=    0.000
 RMSDP=2.59D-05 MaxDP=2.57D-04 DE=-5.04D-06 OVMax= 4.00D-04

 Cycle   4  Pass 1  IDiag  1:
 E= -191.792497973257     Delta-E=       -0.000001201213 Rises=F Damp=F
 DIIS: error= 4.78D-05 at cycle   4 NSaved=   4.
 NSaved= 4 IEnMin= 4 EnMin= -191.792497973257     IErMin= 4 ErrMin= 4.78D-05
 ErrMax= 4.78D-05  0.00D+00 EMaxC= 1.00D-01 BMatC= 1.18D-07 BMatP= 1.03D-06
 IDIUse=1 WtCom= 1.00D+00 WtEn= 0.00D+00
 Coeff-Com: -0.292D-01 0.101D+00 0.322D+00 0.606D+00
 Coeff:     -0.292D-01 0.101D+00 0.322D+00 0.606D+00
 Gap=     0.338 Goal=   None    Shift=    0.000
 RMSDP=8.26D-06 MaxDP=8.64D-05 DE=-1.20D-06 OVMax= 1.27D-04

 Cycle   5  Pass 1  IDiag  1:
 E= -191.792498085847     Delta-E=       -0.000000112590 Rises=F Damp=F
 DIIS: error= 2.46D-05 at cycle   5 NSaved=   5.
 NSaved= 5 IEnMin= 5 EnMin= -191.792498085847     IErMin= 5 ErrMin= 2.46D-05
 ErrMax= 2.46D-05  0.00D+00 EMaxC= 1.00D-01 BMatC= 2.38D-08 BMatP= 1.18D-07
 IDIUse=1 WtCom= 1.00D+00 WtEn= 0.00D+00
 Coeff-Com:  0.429D-02-0.393D-01-0.458D-01 0.288D+00 0.793D+00
 Coeff:      0.429D-02-0.393D-01-0.458D-01 0.288D+00 0.793D+00
 Gap=     0.338 Goal=   None    Shift=    0.000
 RMSDP=5.44D-06 MaxDP=4.37D-05 DE=-1.13D-07 OVMax= 8.42D-05

 Cycle   6  Pass 1  IDiag  1:
 E= -191.792498116119     Delta-E=       -0.000000030272 Rises=F Damp=F
 DIIS: error= 8.13D-06 at cycle   6 NSaved=   6.
 NSaved= 6 IEnMin= 6 EnMin= -191.792498116119     IErMin= 6 ErrMin= 8.13D-06
 ErrMax= 8.13D-06  0.00D+00 EMaxC= 1.00D-01 BMatC= 3.73D-09 BMatP= 2.38D-08
 IDIUse=1 WtCom= 1.00D+00 WtEn= 0.00D+00
 Coeff-Com:  0.456D-02-0.279D-01-0.517D-01 0.932D-01 0.411D+00 0.571D+00
 Coeff:      0.456D-02-0.279D-01-0.517D-01 0.932D-01 0.411D+00 0.571D+00
 Gap=     0.338 Goal=   None    Shift=    0.000
 RMSDP=1.67D-06 MaxDP=1.52D-05 DE=-3.03D-08 OVMax= 3.09D-05

 Cycle   7  Pass 1  IDiag  1:
 E= -191.792498121190     Delta-E=       -0.000000005071 Rises=F Damp=F
 DIIS: error= 3.47D-06 at cycle   7 NSaved=   7.
 NSaved= 7 IEnMin= 7 EnMin= -191.792498121190     IErMin= 7 ErrMin= 3.47D-06
 ErrMax= 3.47D-06  0.00D+00 EMaxC= 1.00D-01 BMatC= 2.31D-10 BMatP= 3.73D-09
 IDIUse=1 WtCom= 1.00D+00 WtEn= 0.00D+00
 Coeff-Com: -0.543D-03 0.679D-02 0.515D-02-0.636D-01-0.154D+00 0.143D-01
 Coeff-Com:  0.119D+01
 Coeff:     -0.543D-03 0.679D-02 0.515D-02-0.636D-01-0.154D+00 0.143D-01
 Coeff:      0.119D+01
 Gap=     0.338 Goal=   None    Shift=    0.000
 RMSDP=1.44D-06 MaxDP=1.28D-05 DE=-5.07D-09 OVMax= 4.00D-05

 Cycle   8  Pass 1  IDiag  1:
 E= -191.792498122785     Delta-E=       -0.000000001596 Rises=F Damp=F
 DIIS: error= 1.67D-06 at cycle   8 NSaved=   8.
 NSaved= 8 IEnMin= 8 EnMin= -191.792498122785     IErMin= 8 ErrMin= 1.67D-06
 ErrMax= 1.67D-06  0.00D+00 EMaxC= 1.00D-01 BMatC= 3.23D-11 BMatP= 2.31D-10
 IDIUse=1 WtCom= 1.00D+00 WtEn= 0.00D+00
 Coeff-Com: -0.509D-03 0.339D-02 0.552D-02-0.141D-01-0.586D-01-0.490D-01
 Coeff-Com:  0.113D+00 0.100D+01
 Coeff:     -0.509D-03 0.339D-02 0.552D-02-0.141D-01-0.586D-01-0.490D-01
 Coeff:      0.113D+00 0.100D+01
 Gap=     0.338 Goal=   None    Shift=    0.000
 RMSDP=4.94D-07 MaxDP=4.68D-06 DE=-1.60D-09 OVMax= 1.60D-05

 Cycle   9  Pass 1  IDiag  1:
 E= -191.792498123006     Delta-E=       -0.000000000221 Rises=F Damp=F
 DIIS: error= 8.10D-07 at cycle   9 NSaved=   9.
 NSaved= 9 IEnMin= 9 EnMin= -191.792498123006     IErMin= 9 ErrMin= 8.10D-07
 ErrMax= 8.10D-07  0.00D+00 EMaxC= 1.00D-01 BMatC= 8.32D-12 BMatP= 3.23D-11
 IDIUse=1 WtCom= 1.00D+00 WtEn= 0.00D+00
 Coeff-Com:  0.758D-04-0.131D-02-0.472D-03 0.152D-01 0.320D-01-0.645D-02
 Coeff-Com: -0.306D+00 0.199D+00 0.107D+01
 Coeff:      0.758D-04-0.131D-02-0.472D-03 0.152D-01 0.320D-01-0.645D-02
 Coeff:     -0.306D+00 0.199D+00 0.107D+01
 Gap=     0.338 Goal=   None    Shift=    0.000
 RMSDP=2.76D-07 MaxDP=2.40D-06 DE=-2.21D-10 OVMax= 1.02D-05

 Cycle  10  Pass 1  IDiag  1:
 E= -191.792498123066     Delta-E=       -0.000000000060 Rises=F Damp=F
 DIIS: error= 2.68D-07 at cycle  10 NSaved=  10.
 NSaved=10 IEnMin=10 EnMin= -191.792498123066     IErMin=10 ErrMin= 2.68D-07
 ErrMax= 2.68D-07  0.00D+00 EMaxC= 1.00D-01 BMatC= 6.81D-13 BMatP= 8.32D-12
 IDIUse=1 WtCom= 1.00D+00 WtEn= 0.00D+00
 Coeff-Com:  0.493D-04-0.202D-03-0.618D-03-0.142D-02 0.296D-02 0.700D-02
 Coeff-Com:  0.376D-01-0.171D+00-0.205D+00 0.133D+01
 Coeff:      0.493D-04-0.202D-03-0.618D-03-0.142D-02 0.296D-02 0.700D-02
 Coeff:      0.376D-01-0.171D+00-0.205D+00 0.133D+01
 Gap=     0.338 Goal=   None    Shift=    0.000
 RMSDP=1.07D-07 MaxDP=9.03D-07 DE=-6.03D-11 OVMax= 4.02D-06

 Cycle  11  Pass 1  IDiag  1:
 E= -191.792498123073     Delta-E=       -0.000000000007 Rises=F Damp=F
 DIIS: error= 4.10D-08 at cycle  11 NSaved=  11.
 NSaved=11 IEnMin=11 EnMin= -191.792498123073     IErMin=11 ErrMin= 4.10D-08
 ErrMax= 4.10D-08  0.00D+00 EMaxC= 1.00D-01 BMatC= 2.55D-14 BMatP= 6.81D-13
 IDIUse=1 WtCom= 1.00D+00 WtEn= 0.00D+00
 Coeff-Com: -0.949D-05 0.100D-03 0.901D-04-0.802D-03-0.247D-02 0.292D-03
 Coeff-Com:  0.156D-01 0.642D-02-0.575D-01-0.136D+00 0.117D+01
 Coeff:     -0.949D-05 0.100D-03 0.901D-04-0.802D-03-0.247D-02 0.292D-03
 Coeff:      0.156D-01 0.642D-02-0.575D-01-0.136D+00 0.117D+01
 Gap=     0.338 Goal=   None    Shift=    0.000
 RMSDP=2.10D-08 MaxDP=1.61D-07 DE=-6.88D-12 OVMax= 6.20D-07

 Cycle  12  Pass 1  IDiag  1:
 E= -191.792498123073     Delta-E=        0.000000000000 Rises=F Damp=F
 DIIS: error= 5.92D-09 at cycle  12 NSaved=  12.
 NSaved=12 IEnMin=11 EnMin= -191.792498123073     IErMin=12 ErrMin= 5.92D-09
 ErrMax= 5.92D-09  0.00D+00 EMaxC= 1.00D-01 BMatC= 7.48D-16 BMatP= 2.55D-14
 IDIUse=1 WtCom= 1.00D+00 WtEn= 0.00D+00
 Coeff-Com:  0.859D-06-0.172D-04-0.238D-05 0.213D-03 0.503D-03-0.126D-03
 Coeff-Com: -0.519D-02 0.437D-02 0.201D-01-0.126D-01-0.279D+00 0.127D+01
 Coeff:      0.859D-06-0.172D-04-0.238D-05 0.213D-03 0.503D-03-0.126D-03
 Coeff:     -0.519D-02 0.437D-02 0.201D-01-0.126D-01-0.279D+00 0.127D+01
 Gap=     0.338 Goal=   None    Shift=    0.000
 RMSDP=4.11D-09 MaxDP=3.91D-08 DE= 2.27D-13 OVMax= 6.05D-08

 SCF Done:  E(RwB97XD) =  -191.792498123     A.U. after   12 cycles
            NFock= 12  Conv=0.41D-08     -V/T= 2.0058
 KE= 1.906901912680D+02 PE=-6.554028465022D+02 EE= 1.689790420902D+02
 Leave Link  502 at Wed May 12 11:58:27 2021, MaxMem=  2147483648 cpu:         8.1
 (Enter /opt/cluster/programs/g09_d.01/g09/l701.exe)
 Compute integral first derivatives.
 ... and contract with generalized density number  0.
 R6Disp: Adding Grimme-D2 dispersion energy 1st derivatives to the gradient.
 Leave Link  701 at Wed May 12 11:58:27 2021, MaxMem=  2147483648 cpu:         0.6
 (Enter /opt/cluster/programs/g09_d.01/g09/l702.exe)
 L702 exits ... SP integral derivatives will be done elsewhere.
 Leave Link  702 at Wed May 12 11:58:27 2021, MaxMem=  2147483648 cpu:         0.2
 (Enter /opt/cluster/programs/g09_d.01/g09/l703.exe)
 Compute integral first derivatives, UseDBF=F ICtDFT=           0.
 Integral derivatives from FoFJK, PRISM(SPDF).
 Calling FoFJK, ICntrl=      2127 FMM=F ISym2X=0 I1Cent= 0 IOpClX= 0 NMat=1 NMatS=1 NMatT=0.
 FoFJK:  IHMeth= 1 ICntrl=    2127 DoSepK=T KAlg= 0 I1Cent=   0 FoldK=F
 IRaf=         1 NMat=   1 IRICut=       1 DoRegI=T DoRafI=F ISym2E= 0.
 FoFCou: FMM=F IPFlag=           0 FMFlag=      100000 FMFlg1=         800
         NFxFlg=           0 DoJE=F BraDBF=F KetDBF=F FulRan=T
         wScrn=  0.000000 ICntrl=    2527 IOpCl=  0 I1Cent=           0 NGrid=           0
         NMat0=    1 NMatS0=      1 NMatT0=    0 NMatD0=    1 NMtDS0=    0 NMtDT0=    0
 Symmetry not used in FoFCou.
 Leave Link  703 at Wed May 12 11:58:28 2021, MaxMem=  2147483648 cpu:         2.5
 (Enter /opt/cluster/programs/g09_d.01/g09/l716.exe)
 Dipole        = 1.00390987D+00 7.85137603D-01 1.27156980D-01
 ***** Axes restored to original set *****
 -------------------------------------------------------------------
 Center     Atomic                   Forces (Hartrees/Bohr)
 Number     Number              X              Y              Z
 -------------------------------------------------------------------
      1        6           0.000384030    0.001152936    0.002105144
      2        6           0.000913138   -0.001449096   -0.004000084
      3        6          -0.001940498    0.000601603    0.004358824
      4        8           0.000616787   -0.000205150   -0.002386169
      5        1          -0.000059762   -0.000173768   -0.000031588
      6        1           0.000065292    0.000065588   -0.000018880
      7        1          -0.000017658   -0.000020486   -0.000043628
      8        1           0.000038671    0.000028374    0.000016382
 -------------------------------------------------------------------
 Cartesian Forces:  Max     0.004358824 RMS     0.001501870
 Leave Link  716 at Wed May 12 11:58:28 2021, MaxMem=  2147483648 cpu:         0.2
 (Enter /opt/cluster/programs/g09_d.01/g09/l103.exe)

 GradGradGradGradGradGradGradGradGradGradGradGradGradGradGradGradGradGrad
 Berny optimization.
 Using GEDIIS/GDIIS optimizer.
 FormGI is forming the generalized inverse of G from B-inverse, IUseBI=4.
 Internal  Forces:  Max     0.002806089 RMS     0.000816675
 Search for a local minimum.
 Step number   2 out of a maximum of   34
 All quantities printed in internal units (Hartrees-Bohrs-Radians)
 RMS Force = .37847D-03 SwitMx=.10000D-02 MixMth= 2
 Mixed Optimization -- En-DIIS/RFO-DIIS
 Update second derivatives using D2CorX and points    1    2
 DE= -1.22D-04 DEPred=-1.25D-04 R= 9.77D-01
 TightC=F SS=  1.41D+00  RLast= 2.69D-02 DXNew= 5.0454D-01 8.0831D-02
 Trust test= 9.77D-01 RLast= 2.69D-02 DXMaxT set to 3.00D-01
 ITU=  1  0
 Use linear search instead of GDIIS.
     Eigenvalues ---    0.01079   0.01812   0.02810   0.02814   0.15929
     Eigenvalues ---    0.15990   0.16000   0.16066   0.21305   0.22083
     Eigenvalues ---    0.33302   0.34933   0.35182   0.35301   0.36451
     Eigenvalues ---    0.61699   0.789591000.000001000.000001000.00000
     Eigenvalues --- 1000.000001000.000001000.000001000.00000
 RFO step:  Lambda=-7.04439639D-06 EMin= 1.07858145D-02
 Quartic linear search produced a step of -0.02807.
 Iteration  1 RMS(Cart)=  0.00123463 RMS(Int)=  0.00000093
 Iteration  2 RMS(Cart)=  0.00000107 RMS(Int)=  0.00000018
 Iteration  3 RMS(Cart)=  0.00000000 RMS(Int)=  0.00000018
 Iteration  1 RMS(Cart)=  0.00000011 RMS(Int)=  0.00000010
 ITry= 1 IFail=0 DXMaxC= 3.03D-03 DCOld= 1.00D+10 DXMaxT= 3.00D-01 DXLimC= 3.00D+00 Rises=F
 Variable       Old X    -DE/DX   Delta X   Delta X   Delta X     New X
                                 (Linear)    (Quad)   (Total)
    R1        2.53123   0.00105   0.00032   0.00118   0.00150   2.53273
    R2        2.04948   0.00006   0.00005   0.00006   0.00011   2.04959
    R3        2.05307  -0.00001   0.00002  -0.00006  -0.00004   2.05304
    R4        2.78590   0.00121   0.00012   0.00313   0.00325   2.78915
    R5        2.05443  -0.00001   0.00006  -0.00014  -0.00009   2.05434
    R6        2.34091  -0.00075   0.00033  -0.00152  -0.00119   2.33972
    R7        2.07927   0.00018   0.00014   0.00024   0.00038   2.07965
    A1        2.12388   0.00011   0.00008   0.00053   0.00061   2.12449
    A2        2.10581  -0.00008   0.00003  -0.00055  -0.00052   2.10529
    A3        2.05349  -0.00003  -0.00011   0.00003  -0.00008   2.05340
    A4        2.13228  -0.00023   0.00021  -0.00149  -0.00128   2.13099
    A5        2.11578   0.00014  -0.00007   0.00041   0.00034   2.11611
    A6        2.03333   0.00015  -0.00015   0.00114   0.00099   2.03431
    A7        2.16877   0.00005   0.00019  -0.00023  -0.00003   2.16874
    A8        2.02780  -0.00004  -0.00016   0.00004  -0.00012   2.02768
    A9        2.08647   0.00002  -0.00004   0.00018   0.00014   2.08661
    D1       -3.11054  -0.00055   0.00014   0.00022   0.00036  -3.11017
    D2       -0.03571   0.00059  -0.00007   0.00121   0.00114  -0.03457
    D3        0.03444  -0.00060   0.00006  -0.00161  -0.00155   0.03289
    D4        3.10927   0.00053  -0.00015  -0.00062  -0.00077   3.10850
    D5       -0.34905   0.00281   0.00000   0.00000   0.00000  -0.34905
    D6        2.81089   0.00055   0.00007   0.00082   0.00090   2.81179
    D7        2.85634   0.00172   0.00020  -0.00092  -0.00073   2.85562
    D8       -0.26691  -0.00054   0.00027  -0.00010   0.00017  -0.26674
         Item               Value     Threshold  Converged?
 Maximum Force            0.001213     0.000450     NO 
 RMS     Force            0.000378     0.000300     NO 
 Maximum Displacement     0.003031     0.001800     NO 
 RMS     Displacement     0.001235     0.001200     NO 
 Predicted change in Energy=-3.621678D-06
 Lowest energy point so far.  Saving SCF results.
 GradGradGradGradGradGradGradGradGradGradGradGradGradGradGradGradGradGrad

 Leave Link  103 at Wed May 12 11:58:28 2021, MaxMem=  2147483648 cpu:         0.0
 (Enter /opt/cluster/programs/g09_d.01/g09/l202.exe)
                          Input orientation:                          
 ---------------------------------------------------------------------
 Center     Atomic      Atomic             Coordinates (Angstroms)
 Number     Number       Type             X           Y           Z
 ---------------------------------------------------------------------
      1          6           0        1.485361    0.463756   -0.037447
      2          6           0        0.667493   -0.593123    0.064575
      3          6           0       -0.796804   -0.467658   -0.071577
      4          8           0       -1.421374    0.592410    0.066711
      5          1           0       -1.345064   -1.395749   -0.293301
      6          1           0        2.562582    0.360380    0.035034
      7          1           0        1.084048    1.460864   -0.195656
      8          1           0        1.059326   -1.599072    0.192411
 ---------------------------------------------------------------------
                    Distance matrix (angstroms):
                    1          2          3          4          5
     1  C    0.000000
     2  C    1.340265   0.000000
     3  C    2.465152   1.475955   0.000000
     4  O    2.911445   2.401845   1.238126   0.000000
     5  H    3.396251   2.196057   1.100501   2.021931   0.000000
     6  H    1.084594   2.121651   3.461572   3.990832   4.296683
     7  H    1.086420   2.111895   2.696701   2.664618   3.751047
     8  H    2.118867   1.087110   2.189750   3.312441   2.461371
                    6          7          8
     6  H    0.000000
     7  H    1.857511   0.000000
     8  H    2.474670   3.084544   0.000000
 Stoichiometry    C3H4O
 Framework group  C1[X(C3H4O)]
 Deg. of freedom    18
 Full point group                 C1      NOp   1
 RotChk:  IX=0 Diff= 2.42D-04
 Largest Abelian subgroup         C1      NOp   1
 Largest concise Abelian subgroup C1      NOp   1
                         Standard orientation:                         
 ---------------------------------------------------------------------
 Center     Atomic      Atomic             Coordinates (Angstroms)
 Number     Number       Type             X           Y           Z
 ---------------------------------------------------------------------
      1          6           0        1.480414   -0.466670    0.037515
      2          6           0        0.664223    0.591448   -0.065098
      3          6           0       -0.800229    0.468464    0.071645
      4          8           0       -1.426561   -0.590704   -0.065567
      5          1           0       -1.346912    1.397622    0.292793
      6          1           0        2.557776   -0.365097   -0.035410
      7          1           0        1.077540   -1.462998    0.196675
      8          1           0        1.057641    1.596656   -0.193889
 ---------------------------------------------------------------------
 Rotational constants (GHZ):     22.8909033      6.1017467      4.8506698
 Leave Link  202 at Wed May 12 11:58:28 2021, MaxMem=  2147483648 cpu:         0.0
 (Enter /opt/cluster/programs/g09_d.01/g09/l301.exe)
 Standard basis: 6-31+G (6D, 7F)
 Ernie: Thresh=  0.10000D-02 Tol=  0.10000D-05 Strict=F.
 There are    60 symmetry adapted cartesian basis functions of A   symmetry.
 There are    60 symmetry adapted basis functions of A   symmetry.
    60 basis functions,   120 primitive gaussians,    60 cartesian basis functions
    15 alpha electrons       15 beta electrons
       nuclear repulsion energy       103.9141484248 Hartrees.
 IExCor= 4639 DFT=T Ex+Corr=wB97XD ExCW=0 ScaHFX=  1.000000
 ScaDFX=  1.000000  1.000000  1.000000  1.000000 ScalE2=  1.000000  1.000000
 IRadAn=      0 IRanWt=     -1 IRanGd=            0 ICorTp=0 IEmpDi=121
  HFx wShort=  0.000000 wLong=  0.200000 cFull=  0.222036 cShort=  0.000000 cLong=  0.777964
  DFx wShort=  0.000000 wLong=  0.200000 cFull=  0.000000 cShort=  0.000000 cLong=  1.000000
 NAtoms=    8 NActive=    8 NUniq=    8 SFac= 1.00D+00 NAtFMM=   60 NAOKFM=F Big=F
 Integral buffers will be    131072 words long.
 Raffenetti 2 integral format.
 Two-electron integral symmetry is turned on.
 R6Disp:  Grimme-D2 Dispersion energy=       -0.0017702701 Hartrees.
 Nuclear repulsion after empirical dispersion term =      103.9123781547 Hartrees.
 Leave Link  301 at Wed May 12 11:58:28 2021, MaxMem=  2147483648 cpu:         0.3
 (Enter /opt/cluster/programs/g09_d.01/g09/l302.exe)
 NPDir=0 NMtPBC=     1 NCelOv=     1 NCel=       1 NClECP=     1 NCelD=      1
         NCelK=      1 NCelE2=     1 NClLst=     1 CellRange=     0.0.
 One-electron integrals computed using PRISM.
 NBasis=    60 RedAO= T EigKep=  1.31D-04  NBF=    60
 NBsUse=    60 1.00D-06 EigRej= -1.00D+00 NBFU=    60
 Precomputing XC quadrature grid using
 IXCGrd= 4 IRadAn=           0 IRanWt=          -1 IRanGd=           0 AccXCQ= 0.00D+00.
 Generated NRdTot=       0 NPtTot=           0 NUsed=           0 NTot=          32
 NSgBfM=    60    60    60    60    60 MxSgAt=     8 MxSgA2=     8.
 Leave Link  302 at Wed May 12 11:58:28 2021, MaxMem=  2147483648 cpu:         0.8
 (Enter /opt/cluster/programs/g09_d.01/g09/l303.exe)
 DipDrv:  MaxL=1.
 Leave Link  303 at Wed May 12 11:58:28 2021, MaxMem=  2147483648 cpu:         0.2
 (Enter /opt/cluster/programs/g09_d.01/g09/l401.exe)
 Initial guess from the checkpoint file:  "/home/unibas/boittier/RDKit_G2/L.pdb/SCAN_1_2_3_4_S_17_20.0/8_SCAN_1_2_3_4_F/L.pdb.chk"
 B after Tr=     0.000000    0.000000    0.000000
         Rot=    1.000000   -0.000041    0.000030   -0.000045 Ang=  -0.01 deg.
 Guess basis will be translated and rotated to current coordinates.
 JPrj=2 DoOrth=T DoCkMO=T.
 Leave Link  401 at Wed May 12 11:58:28 2021, MaxMem=  2147483648 cpu:         0.6
 (Enter /opt/cluster/programs/g09_d.01/g09/l502.exe)
 Closed shell SCF:
 Using DIIS extrapolation, IDIIS=  1040.
 Integral symmetry usage will be decided dynamically.
 Keep R1 ints in memory in canonical form, NReq=4262490.
 IVT=       30290 IEndB=       30290 NGot=  2147483648 MDV=  2144102629
 LenX=  2144102629 LenY=  2144098588
 Requested convergence on RMS density matrix=1.00D-08 within 128 cycles.
 Requested convergence on MAX density matrix=1.00D-06.
 Requested convergence on             energy=1.00D-06.
 No special actions if energy rises.
 FoFCou: FMM=F IPFlag=           0 FMFlag=           0 FMFlg1=           0
         NFxFlg=           0 DoJE=F BraDBF=F KetDBF=F FulRan=T
         wScrn=  0.000000 ICntrl=     600 IOpCl=  0 I1Cent=           0 NGrid=           0
         NMat0=    1 NMatS0=   1830 NMatT0=    0 NMatD0=    1 NMtDS0=    0 NMtDT0=    0
 Symmetry not used in FoFCou.

 Cycle   1  Pass 1  IDiag  1:
 E= -191.792500077445    
 DIIS: error= 9.93D-05 at cycle   1 NSaved=   1.
 NSaved= 1 IEnMin= 1 EnMin= -191.792500077445     IErMin= 1 ErrMin= 9.93D-05
 ErrMax= 9.93D-05  0.00D+00 EMaxC= 1.00D-01 BMatC= 1.41D-06 BMatP= 1.41D-06
 IDIUse=1 WtCom= 1.00D+00 WtEn= 0.00D+00
 Coeff-Com:  0.100D+01
 Coeff:      0.100D+01
 Gap=     0.616 Goal=   None    Shift=    0.000
 RMSDP=7.40D-05 MaxDP=1.23D-03              OVMax= 4.21D-04

 Cycle   2  Pass 1  IDiag  1:
 E= -191.792501726313     Delta-E=       -0.000001648869 Rises=F Damp=F
 DIIS: error= 1.15D-04 at cycle   2 NSaved=   2.
 NSaved= 2 IEnMin= 2 EnMin= -191.792501726313     IErMin= 1 ErrMin= 9.93D-05
 ErrMax= 1.15D-04  0.00D+00 EMaxC= 1.00D-01 BMatC= 5.21D-07 BMatP= 1.41D-06
 IDIUse=3 WtCom= 9.99D-01 WtEn= 1.15D-03
 Coeff-Com:  0.307D+00 0.693D+00
 Coeff-En:   0.000D+00 0.100D+01
 Coeff:      0.307D+00 0.693D+00
 Gap=     0.338 Goal=   None    Shift=    0.000
 RMSDP=1.94D-05 MaxDP=2.56D-04 DE=-1.65D-06 OVMax= 3.10D-04

 Cycle   3  Pass 1  IDiag  1:
 E= -191.792501957142     Delta-E=       -0.000000230828 Rises=F Damp=F
 DIIS: error= 6.78D-05 at cycle   3 NSaved=   3.
 NSaved= 3 IEnMin= 3 EnMin= -191.792501957142     IErMin= 3 ErrMin= 6.78D-05
 ErrMax= 6.78D-05  0.00D+00 EMaxC= 1.00D-01 BMatC= 3.04D-07 BMatP= 5.21D-07
 IDIUse=1 WtCom= 1.00D+00 WtEn= 0.00D+00
 Coeff-Com: -0.752D-01 0.437D+00 0.638D+00
 Coeff:     -0.752D-01 0.437D+00 0.638D+00
 Gap=     0.338 Goal=   None    Shift=    0.000
 RMSDP=1.35D-05 MaxDP=2.07D-04 DE=-2.31D-07 OVMax= 1.83D-04

 Cycle   4  Pass 1  IDiag  1:
 E= -191.792502199476     Delta-E=       -0.000000242334 Rises=F Damp=F
 DIIS: error= 7.82D-06 at cycle   4 NSaved=   4.
 NSaved= 4 IEnMin= 4 EnMin= -191.792502199476     IErMin= 4 ErrMin= 7.82D-06
 ErrMax= 7.82D-06  0.00D+00 EMaxC= 1.00D-01 BMatC= 6.53D-09 BMatP= 3.04D-07
 IDIUse=1 WtCom= 1.00D+00 WtEn= 0.00D+00
 Coeff-Com: -0.426D-01 0.135D+00 0.247D+00 0.660D+00
 Coeff:     -0.426D-01 0.135D+00 0.247D+00 0.660D+00
 Gap=     0.338 Goal=   None    Shift=    0.000
 RMSDP=1.96D-06 MaxDP=1.97D-05 DE=-2.42D-07 OVMax= 3.11D-05

 Cycle   5  Pass 1  IDiag  1:
 E= -191.792502206375     Delta-E=       -0.000000006899 Rises=F Damp=F
 DIIS: error= 3.37D-06 at cycle   5 NSaved=   5.
 NSaved= 5 IEnMin= 5 EnMin= -191.792502206375     IErMin= 5 ErrMin= 3.37D-06
 ErrMax= 3.37D-06  0.00D+00 EMaxC= 1.00D-01 BMatC= 3.60D-10 BMatP= 6.53D-09
 IDIUse=1 WtCom= 1.00D+00 WtEn= 0.00D+00
 Coeff-Com:  0.132D-02-0.269D-01-0.229D-01 0.110D+00 0.938D+00
 Coeff:      0.132D-02-0.269D-01-0.229D-01 0.110D+00 0.938D+00
 Gap=     0.338 Goal=   None    Shift=    0.000
 RMSDP=8.92D-07 MaxDP=1.10D-05 DE=-6.90D-09 OVMax= 1.51D-05

 Cycle   6  Pass 1  IDiag  1:
 E= -191.792502207042     Delta-E=       -0.000000000667 Rises=F Damp=F
 DIIS: error= 1.24D-06 at cycle   6 NSaved=   6.
 NSaved= 6 IEnMin= 6 EnMin= -191.792502207042     IErMin= 6 ErrMin= 1.24D-06
 ErrMax= 1.24D-06  0.00D+00 EMaxC= 1.00D-01 BMatC= 7.63D-11 BMatP= 3.60D-10
 IDIUse=1 WtCom= 1.00D+00 WtEn= 0.00D+00
 Coeff-Com:  0.459D-02-0.235D-01-0.321D-01-0.148D-01 0.387D+00 0.679D+00
 Coeff:      0.459D-02-0.235D-01-0.321D-01-0.148D-01 0.387D+00 0.679D+00
 Gap=     0.338 Goal=   None    Shift=    0.000
 RMSDP=2.88D-07 MaxDP=3.28D-06 DE=-6.67D-10 OVMax= 7.22D-06

 Cycle   7  Pass 1  IDiag  1:
 E= -191.792502207177     Delta-E=       -0.000000000135 Rises=F Damp=F
 DIIS: error= 4.02D-07 at cycle   7 NSaved=   7.
 NSaved= 7 IEnMin= 7 EnMin= -191.792502207177     IErMin= 7 ErrMin= 4.02D-07
 ErrMax= 4.02D-07  0.00D+00 EMaxC= 1.00D-01 BMatC= 6.54D-12 BMatP= 7.63D-11
 IDIUse=1 WtCom= 1.00D+00 WtEn= 0.00D+00
 Coeff-Com: -0.167D-03 0.361D-02 0.205D-02-0.150D-01-0.142D+00 0.625D-01
 Coeff-Com:  0.109D+01
 Coeff:     -0.167D-03 0.361D-02 0.205D-02-0.150D-01-0.142D+00 0.625D-01
 Coeff:      0.109D+01
 Gap=     0.338 Goal=   None    Shift=    0.000
 RMSDP=2.04D-07 MaxDP=2.54D-06 DE=-1.35D-10 OVMax= 3.90D-06

 Cycle   8  Pass 1  IDiag  1:
 E= -191.792502207201     Delta-E=       -0.000000000024 Rises=F Damp=F
 DIIS: error= 1.95D-07 at cycle   8 NSaved=   8.
 NSaved= 8 IEnMin= 8 EnMin= -191.792502207201     IErMin= 8 ErrMin= 1.95D-07
 ErrMax= 1.95D-07  0.00D+00 EMaxC= 1.00D-01 BMatC= 5.93D-13 BMatP= 6.54D-12
 IDIUse=1 WtCom= 1.00D+00 WtEn= 0.00D+00
 Coeff-Com: -0.418D-03 0.298D-02 0.319D-02-0.207D-02-0.691D-01-0.295D-01
 Coeff-Com:  0.252D+00 0.842D+00
 Coeff:     -0.418D-03 0.298D-02 0.319D-02-0.207D-02-0.691D-01-0.295D-01
 Coeff:      0.252D+00 0.842D+00
 Gap=     0.338 Goal=   None    Shift=    0.000
 RMSDP=4.67D-08 MaxDP=4.28D-07 DE=-2.42D-11 OVMax= 1.46D-06

 Cycle   9  Pass 1  IDiag  1:
 E= -191.792502207203     Delta-E=       -0.000000000003 Rises=F Damp=F
 DIIS: error= 1.10D-07 at cycle   9 NSaved=   9.
 NSaved= 9 IEnMin= 9 EnMin= -191.792502207203     IErMin= 9 ErrMin= 1.10D-07
 ErrMax= 1.10D-07  0.00D+00 EMaxC= 1.00D-01 BMatC= 1.01D-13 BMatP= 5.93D-13
 IDIUse=1 WtCom= 1.00D+00 WtEn= 0.00D+00
 Coeff-Com:  0.101D-03-0.123D-02-0.932D-03 0.340D-02 0.393D-01-0.393D-02
 Coeff-Com: -0.271D+00-0.174D+00 0.141D+01
 Coeff:      0.101D-03-0.123D-02-0.932D-03 0.340D-02 0.393D-01-0.393D-02
 Coeff:     -0.271D+00-0.174D+00 0.141D+01
 Gap=     0.338 Goal=   None    Shift=    0.000
 RMSDP=3.88D-08 MaxDP=3.16D-07 DE=-2.67D-12 OVMax= 1.43D-06

 Cycle  10  Pass 1  IDiag  1:
 E= -191.792502207205     Delta-E=       -0.000000000001 Rises=F Damp=F
 DIIS: error= 3.14D-08 at cycle  10 NSaved=  10.
 NSaved=10 IEnMin=10 EnMin= -191.792502207205     IErMin=10 ErrMin= 3.14D-08
 ErrMax= 3.14D-08  0.00D+00 EMaxC= 1.00D-01 BMatC= 9.58D-15 BMatP= 1.01D-13
 IDIUse=1 WtCom= 1.00D+00 WtEn= 0.00D+00
 Coeff-Com: -0.385D-05 0.236D-03 0.594D-04-0.126D-02-0.954D-02 0.197D-02
 Coeff-Com:  0.991D-01-0.284D-01-0.604D+00 0.154D+01
 Coeff:     -0.385D-05 0.236D-03 0.594D-04-0.126D-02-0.954D-02 0.197D-02
 Coeff:      0.991D-01-0.284D-01-0.604D+00 0.154D+01
 Gap=     0.338 Goal=   None    Shift=    0.000
 RMSDP=1.62D-08 MaxDP=1.81D-07 DE=-1.36D-12 OVMax= 5.04D-07

 Cycle  11  Pass 1  IDiag  1:
 E= -191.792502207206     Delta-E=       -0.000000000001 Rises=F Damp=F
 DIIS: error= 3.87D-09 at cycle  11 NSaved=  11.
 NSaved=11 IEnMin=11 EnMin= -191.792502207206     IErMin=11 ErrMin= 3.87D-09
 ErrMax= 3.87D-09  0.00D+00 EMaxC= 1.00D-01 BMatC= 4.82D-16 BMatP= 9.58D-15
 IDIUse=1 WtCom= 1.00D+00 WtEn= 0.00D+00
 Coeff-Com: -0.642D-05 0.477D-04 0.701D-04-0.103D-03-0.138D-02-0.469D-03
 Coeff-Com:  0.777D-02 0.125D-01-0.238D-01-0.178D+00 0.118D+01
 Coeff:     -0.642D-05 0.477D-04 0.701D-04-0.103D-03-0.138D-02-0.469D-03
 Coeff:      0.777D-02 0.125D-01-0.238D-01-0.178D+00 0.118D+01
 Gap=     0.338 Goal=   None    Shift=    0.000
 RMSDP=3.97D-09 MaxDP=5.36D-08 DE=-9.66D-13 OVMax= 7.12D-08

 SCF Done:  E(RwB97XD) =  -191.792502207     A.U. after   11 cycles
            NFock= 11  Conv=0.40D-08     -V/T= 2.0058
 KE= 1.906864320348D+02 PE=-6.553418356015D+02 EE= 1.689505232048D+02
 Leave Link  502 at Wed May 12 11:58:29 2021, MaxMem=  2147483648 cpu:         7.5
 (Enter /opt/cluster/programs/g09_d.01/g09/l701.exe)
 Compute integral first derivatives.
 ... and contract with generalized density number  0.
 R6Disp: Adding Grimme-D2 dispersion energy 1st derivatives to the gradient.
 Leave Link  701 at Wed May 12 11:58:29 2021, MaxMem=  2147483648 cpu:         0.6
 (Enter /opt/cluster/programs/g09_d.01/g09/l702.exe)
 L702 exits ... SP integral derivatives will be done elsewhere.
 Leave Link  702 at Wed May 12 11:58:29 2021, MaxMem=  2147483648 cpu:         0.2
 (Enter /opt/cluster/programs/g09_d.01/g09/l703.exe)
 Compute integral first derivatives, UseDBF=F ICtDFT=           0.
 Integral derivatives from FoFJK, PRISM(SPDF).
 Calling FoFJK, ICntrl=      2127 FMM=F ISym2X=0 I1Cent= 0 IOpClX= 0 NMat=1 NMatS=1 NMatT=0.
 FoFJK:  IHMeth= 1 ICntrl=    2127 DoSepK=T KAlg= 0 I1Cent=   0 FoldK=F
 IRaf=         1 NMat=   1 IRICut=       1 DoRegI=T DoRafI=F ISym2E= 0.
 FoFCou: FMM=F IPFlag=           0 FMFlag=      100000 FMFlg1=         800
         NFxFlg=           0 DoJE=F BraDBF=F KetDBF=F FulRan=T
         wScrn=  0.000000 ICntrl=    2527 IOpCl=  0 I1Cent=           0 NGrid=           0
         NMat0=    1 NMatS0=      1 NMatT0=    0 NMatD0=    1 NMtDS0=    0 NMtDT0=    0
 Symmetry not used in FoFCou.
 Leave Link  703 at Wed May 12 11:58:29 2021, MaxMem=  2147483648 cpu:         2.5
 (Enter /opt/cluster/programs/g09_d.01/g09/l716.exe)
 Dipole        = 1.00119463D+00 7.84881362D-01 1.27680511D-01
 ***** Axes restored to original set *****
 -------------------------------------------------------------------
 Center     Atomic                   Forces (Hartrees/Bohr)
 Number     Number              X              Y              Z
 -------------------------------------------------------------------
      1        6          -0.000180663    0.000382752    0.002007014
      2        6           0.000608487   -0.000454986   -0.004114358
      3        6          -0.000753567   -0.000292857    0.004433806
      4        8           0.000309407    0.000444421   -0.002335514
      5        1           0.000049923   -0.000109188   -0.000048861
      6        1           0.000010006    0.000014191    0.000031268
      7        1          -0.000022087    0.000008963    0.000020097
      8        1          -0.000021506    0.000006704    0.000006548
 -------------------------------------------------------------------
 Cartesian Forces:  Max     0.004433806 RMS     0.001411149
 Leave Link  716 at Wed May 12 11:58:29 2021, MaxMem=  2147483648 cpu:         0.2
 (Enter /opt/cluster/programs/g09_d.01/g09/l103.exe)

 GradGradGradGradGradGradGradGradGradGradGradGradGradGradGradGradGradGrad
 Berny optimization.
 Using GEDIIS/GDIIS optimizer.
 FormGI is forming the generalized inverse of G from B-inverse, IUseBI=4.
 Internal  Forces:  Max     0.002839167 RMS     0.000739247
 Search for a local minimum.
 Step number   3 out of a maximum of   34
 All quantities printed in internal units (Hartrees-Bohrs-Radians)
 RMS Force = .66702D-04 SwitMx=.10000D-02 MixMth= 2
 Mixed Optimization -- En-DIIS/RFO-DIIS
 Swapping is turned off.
 Update second derivatives using D2CorX and points    1    2    3
 DE= -4.08D-06 DEPred=-3.62D-06 R= 1.13D+00
 TightC=F SS=  1.41D+00  RLast= 4.86D-03 DXNew= 5.0454D-01 1.4574D-02
 Trust test= 1.13D+00 RLast= 4.86D-03 DXMaxT set to 3.00D-01
 ITU=  1  1  0
     Eigenvalues ---    0.01085   0.01834   0.02810   0.02894   0.15226
     Eigenvalues ---    0.15987   0.16016   0.16199   0.19376   0.22053
     Eigenvalues ---    0.33041   0.33564   0.35104   0.35201   0.35370
     Eigenvalues ---    0.62091   0.802731000.000001000.000001000.00000
     Eigenvalues --- 1000.000001000.000001000.000001000.00000
 En-DIIS/RFO-DIIS IScMMF=        0 using points:     3    2
 RFO step:  Lambda=-6.70140751D-07.
 NNeg= 0 NP= 2 Switch=  2.50D-03 Rises=F DC=  4.08D-06 SmlDif=  1.00D-05
 RMS Error=  0.1862032113D-03 NUsed= 2 EDIIS=F
 DidBck=F Rises=F RFO-DIIS coefs:    1.15275   -0.15275
 Iteration  1 RMS(Cart)=  0.00103971 RMS(Int)=  0.00000152
 Iteration  2 RMS(Cart)=  0.00000146 RMS(Int)=  0.00000071
 Iteration  3 RMS(Cart)=  0.00000000 RMS(Int)=  0.00000071
 Iteration  1 RMS(Cart)=  0.00000019 RMS(Int)=  0.00000017
 ITry= 1 IFail=0 DXMaxC= 2.83D-03 DCOld= 1.00D+10 DXMaxT= 3.00D-01 DXLimC= 3.00D+00 Rises=F
 Variable       Old X    -DE/DX   Delta X   Delta X   Delta X     New X
                                 (Linear)    (Quad)   (Total)
    R1        2.53273   0.00004   0.00023  -0.00007   0.00016   2.53289
    R2        2.04959   0.00001   0.00002   0.00002   0.00004   2.04962
    R3        2.05304   0.00001  -0.00001   0.00004   0.00003   2.05307
    R4        2.78915   0.00021   0.00050   0.00047   0.00096   2.79011
    R5        2.05434  -0.00001  -0.00001  -0.00005  -0.00006   2.05428
    R6        2.33972  -0.00003  -0.00018  -0.00006  -0.00024   2.33948
    R7        2.07965   0.00007   0.00006   0.00020   0.00026   2.07990
    A1        2.12449   0.00002   0.00009   0.00011   0.00020   2.12469
    A2        2.10529  -0.00003  -0.00008  -0.00018  -0.00026   2.10503
    A3        2.05340   0.00000  -0.00001   0.00007   0.00005   2.05346
    A4        2.13099  -0.00011  -0.00020  -0.00068  -0.00088   2.13012
    A5        2.11611   0.00015   0.00005   0.00046   0.00051   2.11662
    A6        2.03431   0.00003   0.00015   0.00016   0.00031   2.03463
    A7        2.16874   0.00000  -0.00001  -0.00008  -0.00008   2.16865
    A8        2.02768  -0.00008  -0.00002  -0.00061  -0.00063   2.02705
    A9        2.08661   0.00011   0.00002   0.00074   0.00076   2.08737
    D1       -3.11017  -0.00058   0.00006  -0.00016  -0.00010  -3.11027
    D2       -0.03457   0.00054   0.00017  -0.00133  -0.00116  -0.03573
    D3        0.03289  -0.00054  -0.00024   0.00164   0.00141   0.03430
    D4        3.10850   0.00059  -0.00012   0.00047   0.00035   3.10885
    D5       -0.34905   0.00284   0.00000   0.00000   0.00000  -0.34905
    D6        2.81179   0.00051   0.00014  -0.00352  -0.00338   2.80840
    D7        2.85562   0.00176  -0.00011   0.00111   0.00100   2.85661
    D8       -0.26674  -0.00057   0.00003  -0.00241  -0.00238  -0.26912
         Item               Value     Threshold  Converged?
 Maximum Force            0.000207     0.000450     YES
 RMS     Force            0.000067     0.000300     YES
 Maximum Displacement     0.002831     0.001800     NO 
 RMS     Displacement     0.001040     0.001200     YES
 Predicted change in Energy=-4.102885D-07
 Lowest energy point so far.  Saving SCF results.
 GradGradGradGradGradGradGradGradGradGradGradGradGradGradGradGradGradGrad

 Leave Link  103 at Wed May 12 11:58:29 2021, MaxMem=  2147483648 cpu:         0.0
 (Enter /opt/cluster/programs/g09_d.01/g09/l202.exe)
                          Input orientation:                          
 ---------------------------------------------------------------------
 Center     Atomic      Atomic             Coordinates (Angstroms)
 Number     Number       Type             X           Y           Z
 ---------------------------------------------------------------------
[...]
 Coeff:     -0.144D-02 0.238D-02 0.191D-01 0.440D-01-0.256D+00 0.101D+00
 Coeff:      0.109D+01
 Gap=     0.338 Goal=   None    Shift=    0.000
 RMSDP=1.57D-07 MaxDP=1.30D-06 DE=-1.07D-10 OVMax= 5.09D-06

 Cycle   8  Pass 1  IDiag  1:
 E= -191.792502486386     Delta-E=       -0.000000000013 Rises=F Damp=F
 DIIS: error= 5.69D-08 at cycle   8 NSaved=   8.
 NSaved= 8 IEnMin= 8 EnMin= -191.792502486386     IErMin= 8 ErrMin= 5.69D-08
 ErrMax= 5.69D-08  0.00D+00 EMaxC= 1.00D-01 BMatC= 6.73D-14 BMatP= 2.36D-12
 IDIUse=1 WtCom= 1.00D+00 WtEn= 0.00D+00
 Coeff-Com:  0.142D-03-0.166D-02 0.190D-02 0.918D-02-0.144D-01-0.346D-01
 Coeff-Com: -0.692D-02 0.105D+01
 Coeff:      0.142D-03-0.166D-02 0.190D-02 0.918D-02-0.144D-01-0.346D-01
 Coeff:     -0.692D-02 0.105D+01
 Gap=     0.338 Goal=   None    Shift=    0.000
 RMSDP=1.72D-08 MaxDP=1.20D-07 DE=-1.27D-11 OVMax= 3.17D-07

 Cycle   9  Pass 1  IDiag  1:
 E= -191.792502486387     Delta-E=       -0.000000000001 Rises=F Damp=F
 DIIS: error= 3.17D-08 at cycle   9 NSaved=   9.
 NSaved= 9 IEnMin= 9 EnMin= -191.792502486387     IErMin= 9 ErrMin= 3.17D-08
 ErrMax= 3.17D-08  0.00D+00 EMaxC= 1.00D-01 BMatC= 3.06D-14 BMatP= 6.73D-14
 IDIUse=1 WtCom= 1.00D+00 WtEn= 0.00D+00
 Coeff-Com:  0.207D-03-0.951D-03-0.118D-02-0.678D-03 0.207D-01-0.261D-01
 Coeff-Com: -0.119D+00 0.493D+00 0.634D+00
 Coeff:      0.207D-03-0.951D-03-0.118D-02-0.678D-03 0.207D-01-0.261D-01
 Coeff:     -0.119D+00 0.493D+00 0.634D+00
 Gap=     0.338 Goal=   None    Shift=    0.000
 RMSDP=4.98D-09 MaxDP=5.78D-08 DE=-7.39D-13 OVMax= 1.15D-07

 SCF Done:  E(RwB97XD) =  -191.792502486     A.U. after    9 cycles
            NFock=  9  Conv=0.50D-08     -V/T= 2.0058
 KE= 1.906854506610D+02 PE=-6.553359498803D+02 EE= 1.689481615881D+02
 Leave Link  502 at Wed May 12 11:58:34 2021, MaxMem=  2147483648 cpu:         6.3
 (Enter /opt/cluster/programs/g09_d.01/g09/l701.exe)
 Compute integral first derivatives.
 ... and contract with generalized density number  0.
 R6Disp: Adding Grimme-D2 dispersion energy 1st derivatives to the gradient.
 Leave Link  701 at Wed May 12 11:58:34 2021, MaxMem=  2147483648 cpu:         0.6
 (Enter /opt/cluster/programs/g09_d.01/g09/l702.exe)
 L702 exits ... SP integral derivatives will be done elsewhere.
 Leave Link  702 at Wed May 12 11:58:34 2021, MaxMem=  2147483648 cpu:         0.2
 (Enter /opt/cluster/programs/g09_d.01/g09/l703.exe)
 Compute integral first derivatives, UseDBF=F ICtDFT=           0.
 Integral derivatives from FoFJK, PRISM(SPDF).
 Calling FoFJK, ICntrl=      2127 FMM=F ISym2X=0 I1Cent= 0 IOpClX= 0 NMat=1 NMatS=1 NMatT=0.
 FoFJK:  IHMeth= 1 ICntrl=    2127 DoSepK=T KAlg= 0 I1Cent=   0 FoldK=F
 IRaf=         1 NMat=   1 IRICut=       1 DoRegI=T DoRafI=F ISym2E= 0.
 FoFCou: FMM=F IPFlag=           0 FMFlag=      100000 FMFlg1=         800
         NFxFlg=           0 DoJE=F BraDBF=F KetDBF=F FulRan=T
         wScrn=  0.000000 ICntrl=    2527 IOpCl=  0 I1Cent=           0 NGrid=           0
         NMat0=    1 NMatS0=      1 NMatT0=    0 NMatD0=    1 NMtDS0=    0 NMtDT0=    0
 Symmetry not used in FoFCou.
 Leave Link  703 at Wed May 12 11:58:35 2021, MaxMem=  2147483648 cpu:         2.5
 (Enter /opt/cluster/programs/g09_d.01/g09/l716.exe)
 Dipole        = 1.00010667D+00 7.84779724D-01 1.27359735D-01
 ***** Axes restored to original set *****
 -------------------------------------------------------------------
 Center     Atomic                   Forces (Hartrees/Bohr)
 Number     Number              X              Y              Z
 -------------------------------------------------------------------
      1        6          -0.000179584    0.000292280    0.002130017
      2        6           0.000332358   -0.000199418   -0.004202038
      3        6          -0.000345250   -0.000609118    0.004451799
      4        8           0.000213337    0.000488857   -0.002335647
      5        1          -0.000000077    0.000026322   -0.000029354
      6        1          -0.000003507    0.000004517    0.000002321
      7        1          -0.000003620   -0.000003308   -0.000022267
      8        1          -0.000013657   -0.000000131    0.000005168
 -------------------------------------------------------------------
 Cartesian Forces:  Max     0.004451799 RMS     0.001421748
 Leave Link  716 at Wed May 12 11:58:35 2021, MaxMem=  2147483648 cpu:         0.2
 (Enter /opt/cluster/programs/g09_d.01/g09/l103.exe)

 GradGradGradGradGradGradGradGradGradGradGradGradGradGradGradGradGradGrad
 Berny optimization.
 Using GEDIIS/GDIIS optimizer.
 FormGI is forming the generalized inverse of G from B-inverse, IUseBI=4.
 Internal  Forces:  Max     0.002841109 RMS     0.000737305
 Search for a local minimum.
 Step number   5 out of a maximum of   34
 All quantities printed in internal units (Hartrees-Bohrs-Radians)
 RMS Force = .25660D-04 SwitMx=.10000D-02 MixMth= 2
 Mixed Optimization -- En-DIIS/RFO-DIIS
 Swapping is turned off.
 Update second derivatives using D2CorX and points    1    2    3    4    5
 DE= -2.24D-07 DEPred=-3.93D-07 R= 5.70D-01
 Trust test= 5.70D-01 RLast= 4.34D-03 DXMaxT set to 3.00D-01
 ITU=  0  0  1  1  0
     Eigenvalues ---    0.01631   0.02769   0.03041   0.04865   0.13754
     Eigenvalues ---    0.15945   0.16053   0.16530   0.18861   0.22044
     Eigenvalues ---    0.32336   0.33423   0.35161   0.35189   0.35377
     Eigenvalues ---    0.61632   0.782421000.000001000.000001000.00000
     Eigenvalues --- 1000.000001000.000001000.000001000.00000
 En-DIIS/RFO-DIIS IScMMF=        0 using points:     5    4    3    2
 RFO step:  Lambda=-4.46388963D-07.
 NNeg= 0 NP= 4 Switch=  2.50D-03 Rises=F DC=  4.08D-06 SmlDif=  1.00D-05
 RMS Error=  0.6792753543D-04 NUsed= 4 EDIIS=F
 DidBck=T Rises=F RFO-DIIS coefs:    0.61992    0.20363    0.16949    0.00695
 Iteration  1 RMS(Cart)=  0.00026185 RMS(Int)=  0.00000037
 Iteration  2 RMS(Cart)=  0.00000009 RMS(Int)=  0.00000036
 Iteration  1 RMS(Cart)=  0.00000021 RMS(Int)=  0.00000020
 ITry= 1 IFail=0 DXMaxC= 7.37D-04 DCOld= 1.00D+10 DXMaxT= 3.00D-01 DXLimC= 3.00D+00 Rises=F
 Variable       Old X    -DE/DX   Delta X   Delta X   Delta X     New X
                                 (Linear)    (Quad)   (Total)
    R1        2.53287  -0.00005  -0.00003  -0.00004  -0.00007   2.53280
    R2        2.04963   0.00000  -0.00001   0.00000  -0.00001   2.04962
    R3        2.05308   0.00000  -0.00001   0.00001   0.00000   2.05308
    R4        2.79026  -0.00007  -0.00025   0.00001  -0.00024   2.79002
    R5        2.05426   0.00000   0.00002  -0.00002   0.00000   2.05426
    R6        2.33945   0.00005   0.00006   0.00003   0.00009   2.33954
    R7        2.07995  -0.00002  -0.00007   0.00001  -0.00005   2.07990
    A1        2.12474   0.00000  -0.00006   0.00006   0.00000   2.12474
    A2        2.10496  -0.00001   0.00008  -0.00007   0.00001   2.10496
    A3        2.05348   0.00000  -0.00002   0.00002   0.00000   2.05348
    A4        2.12991   0.00004   0.00024  -0.00008   0.00016   2.13007
    A5        2.11681   0.00006  -0.00016   0.00014  -0.00003   2.11678
    A6        2.03469  -0.00005  -0.00009  -0.00006  -0.00015   2.03454
    A7        2.16862   0.00002   0.00003   0.00002   0.00005   2.16867
    A8        2.02689   0.00003   0.00017  -0.00006   0.00011   2.02700
    A9        2.08752  -0.00001  -0.00019   0.00004  -0.00015   2.08737
    D1       -3.11042  -0.00056   0.00007   0.00034   0.00041  -3.11001
    D2       -0.03518   0.00057  -0.00001   0.00020   0.00019  -0.03500
    D3        0.03401  -0.00058  -0.00013  -0.00019  -0.00031   0.03370
    D4        3.10925   0.00055  -0.00021  -0.00033  -0.00054   3.10871
    D5       -0.34905   0.00284   0.00000   0.00000   0.00000  -0.34905
    D6        2.81169   0.00051  -0.00066  -0.00005  -0.00071   2.81098
    D7        2.85595   0.00176   0.00008   0.00013   0.00021   2.85616
    D8       -0.26650  -0.00057  -0.00058   0.00008  -0.00050  -0.26700
         Item               Value     Threshold  Converged?
 Maximum Force            0.000069     0.000450     YES
 RMS     Force            0.000026     0.000300     YES
 Maximum Displacement     0.000737     0.001800     YES
 RMS     Displacement     0.000262     0.001200     YES
 Predicted change in Energy=-4.914306D-08
 Optimization completed.
    -- Stationary point found.
                           ----------------------------
                           !   Optimized Parameters   !
                           ! (Angstroms and Degrees)  !
 --------------------------                            --------------------------
 ! Name  Definition              Value          Derivative Info.                !
 --------------------------------------------------------------------------------
 ! R1    R(1,2)                  1.3403         -DE/DX =    0.0                 !
 ! R2    R(1,6)                  1.0846         -DE/DX =    0.0                 !
 ! R3    R(1,7)                  1.0864         -DE/DX =    0.0                 !
 ! R4    R(2,3)                  1.4765         -DE/DX =   -0.0001              !
 ! R5    R(2,8)                  1.0871         -DE/DX =    0.0                 !
 ! R6    R(3,4)                  1.238          -DE/DX =    0.0001              !
 ! R7    R(3,5)                  1.1007         -DE/DX =    0.0                 !
 ! A1    A(2,1,6)              121.7389         -DE/DX =    0.0                 !
 ! A2    A(2,1,7)              120.6051         -DE/DX =    0.0                 !
 ! A3    A(6,1,7)              117.6558         -DE/DX =    0.0                 !
 ! A4    A(1,2,3)              122.0347         -DE/DX =    0.0                 !
 ! A5    A(1,2,8)              121.284          -DE/DX =    0.0001              !
 ! A6    A(3,2,8)              116.5791         -DE/DX =    0.0                 !
 ! A7    A(2,3,4)              124.2527         -DE/DX =    0.0                 !
 ! A8    A(2,3,5)              116.1322         -DE/DX =    0.0                 !
 ! A9    A(4,3,5)              119.6061         -DE/DX =    0.0                 !
 ! D1    D(6,1,2,3)           -178.2141         -DE/DX =   -0.0006              !
 ! D2    D(6,1,2,8)             -2.0159         -DE/DX =    0.0006              !
 ! D3    D(7,1,2,3)              1.9486         -DE/DX =   -0.0006              !
 ! D4    D(7,1,2,8)            178.1468         -DE/DX =    0.0005              !
 ! D5    D(1,2,3,4)            -19.9989         -DE/DX =    0.0028              !
 ! D6    D(1,2,3,5)            161.0979         -DE/DX =    0.0005              !
 ! D7    D(8,2,3,4)            163.6339         -DE/DX =    0.0018              !
 ! D8    D(8,2,3,5)            -15.2694         -DE/DX =   -0.0006              !
 --------------------------------------------------------------------------------
 Lowest energy point so far.  Saving SCF results.
 GradGradGradGradGradGradGradGradGradGradGradGradGradGradGradGradGradGrad

 Largest change from initial coordinates is atom    7       0.007 Angstoms.
 Leave Link  103 at Wed May 12 11:58:35 2021, MaxMem=  2147483648 cpu:         0.0
 (Enter /opt/cluster/programs/g09_d.01/g09/l202.exe)
                          Input orientation:                          
 ---------------------------------------------------------------------
 Center     Atomic      Atomic             Coordinates (Angstroms)
 Number     Number       Type             X           Y           Z
 ---------------------------------------------------------------------
      1          6           0        1.485270    0.463583   -0.037728
      2          6           0        0.667856   -0.593695    0.064733
      3          6           0       -0.796938   -0.467319   -0.071601
      4          8           0       -1.420671    0.593110    0.066396
      5          1           0       -1.345071   -1.395692   -0.293257
      6          1           0        2.562583    0.361029    0.034868
      7          1           0        1.083081    1.460480   -0.195196
      8          1           0        1.059458   -1.599689    0.192535
 ---------------------------------------------------------------------
                    Distance matrix (angstroms):
                    1          2          3          4          5
     1  C    0.000000
     2  C    1.340337   0.000000
     3  C    2.464995   1.476542   0.000000
     4  O    2.910690   2.402177   1.237981   0.000000
     5  H    3.396032   2.196186   1.100663   2.022474   0.000000
     6  H    1.084616   2.121882   3.461774   3.990135   4.296917
     7  H    1.086442   2.111779   2.695581   2.662618   3.750101
     8  H    2.119300   1.087065   2.190487   3.312903   2.461579
                    6          7          8
     6  H    0.000000
     7  H    1.857593   0.000000
     8  H    2.475613   3.084725   0.000000
 Stoichiometry    C3H4O
 Framework group  C1[X(C3H4O)]
 Deg. of freedom    18
 Full point group                 C1      NOp   1
 RotChk:  IX=0 Diff= 9.00D-16
 Largest Abelian subgroup         C1      NOp   1
 Largest concise Abelian subgroup C1      NOp   1
                         Standard orientation:                         
 ---------------------------------------------------------------------
 Center     Atomic      Atomic             Coordinates (Angstroms)
 Number     Number       Type             X           Y           Z
 ---------------------------------------------------------------------
      1          6           0        1.479955   -0.466976    0.037707
      2          6           0        0.664631    0.591871   -0.065213
      3          6           0       -0.800375    0.468517    0.071603
      4          8           0       -1.426269   -0.590750   -0.065538
      5          1           0       -1.346587    1.398128    0.292810
      6          1           0        2.557451   -0.366626   -0.035250
      7          1           0        1.075813   -1.462964    0.195928
      8          1           0        1.058212    1.596996   -0.193771
 ---------------------------------------------------------------------
 Rotational constants (GHZ):     22.8761336      6.1036079      4.8511723
 Leave Link  202 at Wed May 12 11:58:35 2021, MaxMem=  2147483648 cpu:         0.0
 (Enter /opt/cluster/programs/g09_d.01/g09/l601.exe)
 Copying SCF densities to generalized density rwf, IOpCl= 0 IROHF=0.

 **********************************************************************

            Population analysis using the SCF density.

 **********************************************************************

 Orbital symmetries:
       Occupied  (A) (A) (A) (A) (A) (A) (A) (A) (A) (A) (A) (A)
                 (A) (A) (A)
       Virtual   (A) (A) (A) (A) (A) (A) (A) (A) (A) (A) (A) (A)
                 (A) (A) (A) (A) (A) (A) (A) (A) (A) (A) (A) (A)
                 (A) (A) (A) (A) (A) (A) (A) (A) (A) (A) (A) (A)
                 (A) (A) (A) (A) (A) (A) (A) (A) (A)
 The electronic state is 1-A.
 Alpha  occ. eigenvalues --  -19.28687 -10.40451 -10.33196 -10.32851  -1.16954
 Alpha  occ. eigenvalues --   -0.91001  -0.76975  -0.65141  -0.61529  -0.54494
 Alpha  occ. eigenvalues --   -0.52661  -0.49150  -0.47722  -0.37677  -0.35237
 Alpha virt. eigenvalues --   -0.01422   0.06978   0.08170   0.09563   0.10337
 Alpha virt. eigenvalues --    0.11701   0.12622   0.13199   0.15026   0.16043
 Alpha virt. eigenvalues --    0.17597   0.18015   0.20262   0.22219   0.26113
 Alpha virt. eigenvalues --    0.28149   0.31437   0.32436   0.32717   0.34560
 Alpha virt. eigenvalues --    0.36735   0.39161   0.41691   0.46255   0.53873
 Alpha virt. eigenvalues --    0.71421   0.72995   0.77038   0.79007   0.80648
 Alpha virt. eigenvalues --    0.82955   0.88888   0.98760   1.02511   1.05258
 Alpha virt. eigenvalues --    1.10752   1.14052   1.22778   1.23491   1.28916
 Alpha virt. eigenvalues --    1.31367   1.39461   1.41583   1.42775   1.91763
          Condensed to atoms (all electrons):
               1          2          3          4          5          6
     1  C    5.202335   0.314933   0.074402   0.054765   0.040623   0.359609
     2  C    0.314933   5.942367  -0.055587  -0.225117  -0.171771  -0.025822
     3  C    0.074402  -0.055587   5.162463   0.327810   0.395987   0.011904
     4  O    0.054765  -0.225117   0.327810   8.340469  -0.068604   0.000796
     5  H    0.040623  -0.171771   0.395987  -0.068604   0.624325  -0.000061
     6  H    0.359609  -0.025822   0.011904   0.000796  -0.000061   0.473268
     7  H    0.392305  -0.052636   0.004744   0.000418   0.000125  -0.022220
     8  H    0.005150   0.300223   0.003978   0.004965   0.001177  -0.002950
               7          8
     1  C    0.392305   0.005150
     2  C   -0.052636   0.300223
     3  C    0.004744   0.003978
     4  O    0.000418   0.004965
     5  H    0.000125   0.001177
     6  H   -0.022220  -0.002950
     7  H    0.440671   0.002469
     8  H    0.002469   0.470877
 Mulliken charges:
               1
     1  C   -0.444122
     2  C   -0.026589
     3  C    0.074300
     4  O   -0.435501
     5  H    0.178199
     6  H    0.205477
     7  H    0.234124
     8  H    0.214112
 Sum of Mulliken charges =   0.00000
 Mulliken charges with hydrogens summed into heavy atoms:
               1
     1  C   -0.004521
     2  C    0.187523
     3  C    0.252499
     4  O   -0.435501
 Electronic spatial extent (au):  <R**2>=            272.2171
 Charge=              0.0000 electrons
 Dipole moment (field-independent basis, Debye):
    X=              2.5420    Y=              1.9947    Z=              0.3237  Tot=              3.2474
 Quadrupole moment (field-independent basis, Debye-Ang):
   XX=            -24.8926   YY=            -22.4787   ZZ=            -25.2860
   XY=             -3.6984   XZ=             -0.5335   YZ=             -0.4994
 Traceless Quadrupole moment (field-independent basis, Debye-Ang):
   XX=             -0.6735   YY=              1.7404   ZZ=             -1.0669
   XY=             -3.6984   XZ=             -0.5335   YZ=             -0.4994
 Octapole moment (field-independent basis, Debye-Ang**2):
  XXX=              9.3701  YYY=              0.2708  ZZZ=             -0.1193  XYY=              1.0009
  XXY=              3.4239  XXZ=             -0.0425  XZZ=             -3.6786  YZZ=             -0.7908
  YYZ=              0.3278  XYZ=             -0.5251
 Hexadecapole moment (field-independent basis, Debye-Ang**3):
 XXXX=           -233.6273 YYYY=            -82.8505 ZZZZ=            -28.4593 XXXY=             -7.4618
 XXXZ=             -1.4814 YYYX=              0.0357 YYYZ=             -1.2235 ZZZX=              0.1525
 ZZZY=             -0.1607 XXYY=            -53.7621 XXZZ=            -47.1290 YYZZ=            -20.1572
 XXYZ=             -0.3210 YYXZ=             -0.6688 ZZXY=              0.4292
 N-N= 1.039098351447D+02 E-N=-6.553359496066D+02  KE= 1.906854506610D+02
 No NMR shielding tensors so no spin-rotation constants.
 Leave Link  601 at Wed May 12 11:58:35 2021, MaxMem=  2147483648 cpu:         0.6
 (Enter /opt/cluster/programs/g09_d.01/g09/l9999.exe)
 1\1\GINC-NODE18\FOpt\RwB97XD\6-31+G\C3H4O1\BOITTIER\12-May-2021\0\\#p 
 wB97XD/6-31+G Opt=ModRedun\\L.pdb\\0,1\C,1.4852701849,0.4635832966,-0.
 0377282412\C,0.66785571,-0.593694885,0.0647334863\C,-0.7969375069,-0.4
 673191816,-0.0716006071\O,-1.420671394,0.5931103586,0.066395669\H,-1.3
 450711648,-1.3956918492,-0.2932572216\H,2.5625834789,0.3610285256,0.03
 48679799\H,1.0830807059,1.4604801353,-0.1951955841\H,1.059457986,-1.59
 96894003,0.1925345188\\Version=ES64L-G09RevD.01\State=1-A\HF=-191.7925
 025\RMSD=4.977e-09\RMSF=1.422e-03\Dipole=0.998498,-0.7866986,-0.128140
 9\Quadrupole=-0.4894828,1.2833848,-0.7939019,2.7528695,0.3975923,-0.37
 14831\PG=C01 [X(C3H4O1)]\\@


 Just remember, when you're over the hill, you begin to pick up speed.
 -- Charles Schulz
 Job cpu time:       0 days  0 hours  1 minutes 13.5 seconds.
 File lengths (MBytes):  RWF=      5 Int=      0 D2E=      0 Chk=      2 Scr=      1
 Normal termination of Gaussian 09 at Wed May 12 11:58:35 2021.
