 Entering Gaussian System, Link 0=/opt/cluster/programs/g09_d.01/g09//g09
 Input=/home/unibas/boittier/RDKit_G2/B.pdb/SCAN_1_2_3_4_S_17_20.0/14_SCAN_1_2_3_4_F/14_SCAN_B.pdb.com
 Output=/scratch/boittier/14_SCAN_B.pdb/14_SCAN_B.pdb.out
 Initial command:
 /opt/cluster/programs/g09_d.01/g09/l1.exe "/scratch/boittier/14_SCAN_B.pdb/Gau-191157.inp" -scrdir="/scratch/boittier/14_SCAN_B.pdb/"
 Entering Link 1 = /opt/cluster/programs/g09_d.01/g09/l1.exe PID=    191160.
  
 Copyright (c) 1988,1990,1992,1993,1995,1998,2003,2009,2013,
            Gaussian, Inc.  All Rights Reserved.
  
 This is part of the Gaussian(R) 09 program.  It is based on
 the Gaussian(R) 03 system (copyright 2003, Gaussian, Inc.),
 the Gaussian(R) 98 system (copyright 1998, Gaussian, Inc.),
 the Gaussian(R) 94 system (copyright 1995, Gaussian, Inc.),
 the Gaussian 92(TM) system (copyright 1992, Gaussian, Inc.),
 the Gaussian 90(TM) system (copyright 1990, Gaussian, Inc.),
 the Gaussian 88(TM) system (copyright 1988, Gaussian, Inc.),
 the Gaussian 86(TM) system (copyright 1986, Carnegie Mellon
 University), and the Gaussian 82(TM) system (copyright 1983,
 Carnegie Mellon University). Gaussian is a federally registered
 trademark of Gaussian, Inc.
  
 This software contains proprietary and confidential information,
 including trade secrets, belonging to Gaussian, Inc.
  
 This software is provided under written license and may be
 used, copied, transmitted, or stored only in accord with that
 written license.
  
 The following legend is applicable only to US Government
 contracts under FAR:
  
                    RESTRICTED RIGHTS LEGEND
  
 Use, reproduction and disclosure by the US Government is
 subject to restrictions as set forth in subparagraphs (a)
 and (c) of the Commercial Computer Software - Restricted
 Rights clause in FAR 52.227-19.
  
 Gaussian, Inc.
 340 Quinnipiac St., Bldg. 40, Wallingford CT 06492
  
  
 ---------------------------------------------------------------
 Warning -- This program may not be used in any manner that
 competes with the business of Gaussian, Inc. or will provide
 assistance to any competitor of Gaussian, Inc.  The licensee
 of this program is prohibited from giving any competitor of
 Gaussian, Inc. access to this program.  By using this program,
 the user acknowledges that Gaussian, Inc. is engaged in the
 business of creating and licensing software in the field of
 computational chemistry and represents and warrants to the
 licensee that it is not a competitor of Gaussian, Inc. and that
 it will not use this program in any manner prohibited above.
 ---------------------------------------------------------------
  

 Cite this work as:
 Gaussian 09, Revision D.01,
 M. J. Frisch, G. W. Trucks, H. B. Schlegel, G. E. Scuseria, 
 M. A. Robb, J. R. Cheeseman, G. Scalmani, V. Barone, B. Mennucci, 
 G. A. Petersson, H. Nakatsuji, M. Caricato, X. Li, H. P. Hratchian, 
 A. F. Izmaylov, J. Bloino, G. Zheng, J. L. Sonnenberg, M. Hada, 
 M. Ehara, K. Toyota, R. Fukuda, J. Hasegawa, M. Ishida, T. Nakajima, 
 Y. Honda, O. Kitao, H. Nakai, T. Vreven, J. A. Montgomery, Jr., 
 J. E. Peralta, F. Ogliaro, M. Bearpark, J. J. Heyd, E. Brothers, 
 K. N. Kudin, V. N. Staroverov, T. Keith, R. Kobayashi, J. Normand, 
 K. Raghavachari, A. Rendell, J. C. Burant, S. S. Iyengar, J. Tomasi, 
 M. Cossi, N. Rega, J. M. Millam, M. Klene, J. E. Knox, J. B. Cross, 
 V. Bakken, C. Adamo, J. Jaramillo, R. Gomperts, R. E. Stratmann, 
 O. Yazyev, A. J. Austin, R. Cammi, C. Pomelli, J. W. Ochterski, 
 R. L. Martin, K. Morokuma, V. G. Zakrzewski, G. A. Voth, 
 P. Salvador, J. J. Dannenberg, S. Dapprich, A. D. Daniels, 
 O. Farkas, J. B. Foresman, J. V. Ortiz, J. Cioslowski, 
 and D. J. Fox, Gaussian, Inc., Wallingford CT, 2013.
 
 ******************************************
 Gaussian 09:  ES64L-G09RevD.01 24-Apr-2013
                12-May-2021 
 ******************************************
 %chk=/home/unibas/boittier/RDKit_G2/B.pdb/SCAN_1_2_3_4_S_17_20.0/14_SCAN_1_2_3_4
 _F/B.pdb.chk
 %nproc=8
 Will use up to    8 processors via shared memory.
 %mem=16GB
 -----------------------------
 #p wB97XD/6-31+G Opt=ModRedun
 -----------------------------
 1/14=-1,18=120,19=15,26=3,38=1/1,3;
 2/9=110,12=2,17=6,18=5,40=1/2;
 3/5=1,6=6,7=10,11=2,16=1,25=1,30=1,71=1,74=-58/1,2,3;
 4//1;
 5/5=2,38=5/2;
 6/7=2,8=2,9=2,10=2,28=1/1;
 7//1,2,3,16;
 1/14=-1,18=20,19=15,26=3/3(2);
 2/9=110/2;
 99//99;
 2/9=110/2;
 3/5=1,6=6,7=10,11=2,16=1,25=1,30=1,71=1,74=-58/1,2,3;
 4/5=5,16=3,69=1/1;
 5/5=2,38=5/2;
 7//1,2,3,16;
 1/14=-1,18=20,19=15,26=3/3(-5);
 2/9=110/2;
 6/7=2,8=2,9=2,10=2,19=2,28=1/1;
 99/9=1/99;
 Leave Link    1 at Wed May 12 11:56:05 2021, MaxMem=  2147483648 cpu:         0.2
 (Enter /opt/cluster/programs/g09_d.01/g09/l101.exe)
 -----
 B.pdb
 -----
 Symbolic Z-matrix:
 Charge =  0 Multiplicity = 1
 C                    -1.39554  -1.03285  -0.1416 
 C                    -0.4927   -0.08337   0.08881 
 C                     0.92351  -0.18543   0.49998 
 C                     1.95227  -0.07589  -0.35296 
 H                    -2.41542  -0.78798  -0.41361 
 H                    -1.11898  -2.07765  -0.06486 
 F                    -0.91984   1.279    -0.0252 
 H                     1.10798  -0.32171   1.56507 
 H                     1.79975   0.07442  -1.4182 
 H                     2.98005  -0.13276  -0.00702 
 
 The following ModRedundant input section has been read:
 D       1       2       3       4 F                                           
 
 NAtoms=     10 NQM=       10 NQMF=       0 NMMI=      0 NMMIF=      0
                NMic=       0 NMicF=      0.
                    Isotopes and Nuclear Properties:
 (Nuclear quadrupole moments (NQMom) in fm**2, nuclear magnetic moments (NMagM)
  in nuclear magnetons)

  Atom         1           2           3           4           5           6           7           8           9          10
 IAtWgt=          12          12          12          12           1           1          19           1           1           1
 AtmWgt=  12.0000000  12.0000000  12.0000000  12.0000000   1.0078250   1.0078250  18.9984033   1.0078250   1.0078250   1.0078250
 NucSpn=           0           0           0           0           1           1           1           1           1           1
 AtZEff=   0.0000000   0.0000000   0.0000000   0.0000000   0.0000000   0.0000000   0.0000000   0.0000000   0.0000000   0.0000000
 NQMom=    0.0000000   0.0000000   0.0000000   0.0000000   0.0000000   0.0000000   0.0000000   0.0000000   0.0000000   0.0000000
 NMagM=    0.0000000   0.0000000   0.0000000   0.0000000   2.7928460   2.7928460   2.6288670   2.7928460   2.7928460   2.7928460
 AtZNuc=   6.0000000   6.0000000   6.0000000   6.0000000   1.0000000   1.0000000   9.0000000   1.0000000   1.0000000   1.0000000
 Leave Link  101 at Wed May 12 11:56:05 2021, MaxMem=  2147483648 cpu:         4.2
 (Enter /opt/cluster/programs/g09_d.01/g09/l103.exe)

 GradGradGradGradGradGradGradGradGradGradGradGradGradGradGradGradGradGrad
 Berny optimization.
 Initialization pass.
                           ----------------------------
                           !    Initial Parameters    !
                           ! (Angstroms and Degrees)  !
 --------------------------                            --------------------------
 ! Name  Definition              Value          Derivative Info.                !
 --------------------------------------------------------------------------------
 ! R1    R(1,2)                  1.3303         estimate D2E/DX2                !
 ! R2    R(1,5)                  1.0836         estimate D2E/DX2                !
 ! R3    R(1,6)                  1.0835         estimate D2E/DX2                !
 ! R4    R(2,3)                  1.4782         estimate D2E/DX2                !
 ! R5    R(2,7)                  1.4323         estimate D2E/DX2                !
 ! R6    R(3,4)                  1.3408         estimate D2E/DX2                !
 ! R7    R(3,8)                  1.0895         estimate D2E/DX2                !
 ! R8    R(4,9)                  1.0866         estimate D2E/DX2                !
 ! R9    R(4,10)                 1.0859         estimate D2E/DX2                !
 ! A1    A(2,1,5)              121.3973         estimate D2E/DX2                !
 ! A2    A(2,1,6)              120.1816         estimate D2E/DX2                !
 ! A3    A(5,1,6)              118.4203         estimate D2E/DX2                !
 ! A4    A(1,2,3)              130.4737         estimate D2E/DX2                !
 ! A5    A(1,2,7)              117.5617         estimate D2E/DX2                !
 ! A6    A(3,2,7)              111.9328         estimate D2E/DX2                !
 ! A7    A(2,3,4)              123.5379         estimate D2E/DX2                !
 ! A8    A(2,3,8)              116.2812         estimate D2E/DX2                !
 ! A9    A(4,3,8)              120.1437         estimate D2E/DX2                !
 ! A10   A(3,4,9)              121.8198         estimate D2E/DX2                !
 ! A11   A(3,4,10)             121.2816         estimate D2E/DX2                !
 ! A12   A(9,4,10)             116.8985         estimate D2E/DX2                !
 ! D1    D(5,1,2,3)            178.2478         estimate D2E/DX2                !
 ! D2    D(5,1,2,7)              0.4859         estimate D2E/DX2                !
 ! D3    D(6,1,2,3)             -2.0921         estimate D2E/DX2                !
 ! D4    D(6,1,2,7)           -179.854          estimate D2E/DX2                !
 ! D5    D(1,2,3,4)            100.011          Frozen                          !
 ! D6    D(1,2,3,8)            -82.2099         estimate D2E/DX2                !
 ! D7    D(7,2,3,4)            -82.1279         estimate D2E/DX2                !
 ! D8    D(7,2,3,8)             95.6512         estimate D2E/DX2                !
 ! D9    D(2,3,4,9)             -1.4413         estimate D2E/DX2                !
 ! D10   D(2,3,4,10)           178.4895         estimate D2E/DX2                !
 ! D11   D(8,3,4,9)           -179.1386         estimate D2E/DX2                !
 ! D12   D(8,3,4,10)             0.7923         estimate D2E/DX2                !
 --------------------------------------------------------------------------------
 Trust Radius=3.00D-01 FncErr=1.00D-07 GrdErr=1.00D-06
 Number of steps in this run=     43 maximum allowed number of steps=    100.
 GradGradGradGradGradGradGradGradGradGradGradGradGradGradGradGradGradGrad

 Leave Link  103 at Wed May 12 11:56:06 2021, MaxMem=  2147483648 cpu:         0.1
 (Enter /opt/cluster/programs/g09_d.01/g09/l202.exe)
                          Input orientation:                          
 ---------------------------------------------------------------------
 Center     Atomic      Atomic             Coordinates (Angstroms)
 Number     Number       Type             X           Y           Z
 ---------------------------------------------------------------------
      1          6           0       -1.395536   -1.032849   -0.141595
      2          6           0       -0.492704   -0.083374    0.088811
      3          6           0        0.923505   -0.185432    0.499980
      4          6           0        1.952268   -0.075891   -0.352959
      5          1           0       -2.415417   -0.787980   -0.413611
      6          1           0       -1.118975   -2.077651   -0.064862
      7          9           0       -0.919843    1.278996   -0.025199
      8          1           0        1.107984   -0.321713    1.565065
      9          1           0        1.799750    0.074415   -1.418203
     10          1           0        2.980050   -0.132759   -0.007022
 ---------------------------------------------------------------------
                    Distance matrix (angstroms):
                    1          2          3          4          5
     1  C    0.000000
     2  C    1.330299   0.000000
     3  C    2.551017   1.478216   0.000000
     4  C    3.488300   2.484573   1.340842   0.000000
     5  H    1.083564   2.108488   3.513704   4.425768   0.000000
     6  H    1.083506   2.095942   2.840997   3.677306   1.861623
     7  F    2.363146   1.432305   2.412114   3.192517   2.580697
     8  H    3.112236   2.190510   1.089500   2.109991   4.067790
     9  H    3.614639   2.747969   2.124795   1.086553   4.418208
    10  H    4.469231   3.474427   2.118774   1.085929   5.450293
                    6          7          8          9         10
     6  H    0.000000
     7  F    3.362782   0.000000
     8  H    3.270983   3.033693   0.000000
     9  H    3.870643   3.284458   3.087935   0.000000
    10  H    4.537395   4.147595   2.451896   1.851340   0.000000
 Stoichiometry    C4H5F
 Framework group  C1[X(C4H5F)]
 Deg. of freedom    24
 Full point group                 C1      NOp   1
 Largest Abelian subgroup         C1      NOp   1
 Largest concise Abelian subgroup C1      NOp   1
                         Standard orientation:                         
 ---------------------------------------------------------------------
 Center     Atomic      Atomic             Coordinates (Angstroms)
 Number     Number       Type             X           Y           Z
 ---------------------------------------------------------------------
      1          6           0       -1.395536   -1.032849   -0.141595
      2          6           0       -0.492704   -0.083374    0.088811
      3          6           0        0.923505   -0.185432    0.499980
      4          6           0        1.952268   -0.075891   -0.352959
      5          1           0       -2.415417   -0.787980   -0.413611
      6          1           0       -1.118975   -2.077651   -0.064862
      7          9           0       -0.919843    1.278996   -0.025199
      8          1           0        1.107984   -0.321713    1.565065
      9          1           0        1.799750    0.074415   -1.418203
     10          1           0        2.980050   -0.132759   -0.007022
 ---------------------------------------------------------------------
 Rotational constants (GHZ):      8.6414124      3.9303039      3.0074273
 Leave Link  202 at Wed May 12 11:56:06 2021, MaxMem=  2147483648 cpu:         0.0
 (Enter /opt/cluster/programs/g09_d.01/g09/l301.exe)
 Standard basis: 6-31+G (6D, 7F)
 Ernie: Thresh=  0.10000D-02 Tol=  0.10000D-05 Strict=F.
 There are    75 symmetry adapted cartesian basis functions of A   symmetry.
 There are    75 symmetry adapted basis functions of A   symmetry.
    75 basis functions,   150 primitive gaussians,    75 cartesian basis functions
    19 alpha electrons       19 beta electrons
       nuclear repulsion energy       155.8705737547 Hartrees.
 IExCor= 4639 DFT=T Ex+Corr=wB97XD ExCW=0 ScaHFX=  1.000000
 ScaDFX=  1.000000  1.000000  1.000000  1.000000 ScalE2=  1.000000  1.000000
 IRadAn=      0 IRanWt=     -1 IRanGd=            0 ICorTp=0 IEmpDi=121
  HFx wShort=  0.000000 wLong=  0.200000 cFull=  0.222036 cShort=  0.000000 cLong=  0.777964
  DFx wShort=  0.000000 wLong=  0.200000 cFull=  0.000000 cShort=  0.000000 cLong=  1.000000
 NAtoms=   10 NActive=   10 NUniq=   10 SFac= 1.00D+00 NAtFMM=   60 NAOKFM=F Big=F
 Integral buffers will be    131072 words long.
 Raffenetti 2 integral format.
 Two-electron integral symmetry is turned on.
 R6Disp:  Grimme-D2 Dispersion energy=       -0.0029707863 Hartrees.
 Nuclear repulsion after empirical dispersion term =      155.8676029684 Hartrees.
 Leave Link  301 at Wed May 12 11:56:06 2021, MaxMem=  2147483648 cpu:         0.3
 (Enter /opt/cluster/programs/g09_d.01/g09/l302.exe)
 NPDir=0 NMtPBC=     1 NCelOv=     1 NCel=       1 NClECP=     1 NCelD=      1
         NCelK=      1 NCelE2=     1 NClLst=     1 CellRange=     0.0.
 One-electron integrals computed using PRISM.
 NBasis=    75 RedAO= T EigKep=  6.91D-05  NBF=    75
 NBsUse=    75 1.00D-06 EigRej= -1.00D+00 NBFU=    75
 Precomputing XC quadrature grid using
 IXCGrd= 4 IRadAn=           0 IRanWt=          -1 IRanGd=           0 AccXCQ= 0.00D+00.
 Generated NRdTot=       0 NPtTot=           0 NUsed=           0 NTot=          32
 NSgBfM=    75    75    75    75    75 MxSgAt=    10 MxSgA2=    10.
 Leave Link  302 at Wed May 12 11:56:06 2021, MaxMem=  2147483648 cpu:         0.9
 (Enter /opt/cluster/programs/g09_d.01/g09/l303.exe)
 DipDrv:  MaxL=1.
 Leave Link  303 at Wed May 12 11:56:06 2021, MaxMem=  2147483648 cpu:         0.2
 (Enter /opt/cluster/programs/g09_d.01/g09/l401.exe)
 ExpMin= 4.38D-02 ExpMax= 7.00D+03 ExpMxC= 1.05D+03 IAcc=2 IRadAn=         4 AccDes= 0.00D+00
 Harris functional with IExCor= 4639 and IRadAn=       4 diagonalized for initial guess.
 HarFok:  IExCor= 4639 AccDes= 0.00D+00 IRadAn=         4 IDoV= 1 UseB2=F ITyADJ=14
 ICtDFT=  3500011 ScaDFX=  1.000000  1.000000  1.000000  1.000000
 FoFCou: FMM=F IPFlag=           0 FMFlag=      100000 FMFlg1=           0
         NFxFlg=           0 DoJE=T BraDBF=F KetDBF=T FulRan=T
         wScrn=  0.000000 ICntrl=     500 IOpCl=  0 I1Cent=   200000004 NGrid=           0
         NMat0=    1 NMatS0=      1 NMatT0=    0 NMatD0=    1 NMtDS0=    0 NMtDT0=    0
 Petite list used in FoFCou.
 Harris En= -244.783618165359    
 JPrj=0 DoOrth=F DoCkMO=F.
 Leave Link  401 at Wed May 12 11:56:06 2021, MaxMem=  2147483648 cpu:         1.3
 (Enter /opt/cluster/programs/g09_d.01/g09/l502.exe)
 Closed shell SCF:
 Using DIIS extrapolation, IDIIS=  1040.
 Integral symmetry usage will be decided dynamically.
 Keep R1 ints in memory in canonical form, NReq=9056162.
 IVT=       36600 IEndB=       36600 NGot=  2147483648 MDV=  2139321699
 LenX=  2139321699 LenY=  2139315633
 Requested convergence on RMS density matrix=1.00D-08 within 128 cycles.
 Requested convergence on MAX density matrix=1.00D-06.
 Requested convergence on             energy=1.00D-06.
 No special actions if energy rises.
 FoFCou: FMM=F IPFlag=           0 FMFlag=           0 FMFlg1=           0
         NFxFlg=           0 DoJE=F BraDBF=F KetDBF=F FulRan=T
         wScrn=  0.000000 ICntrl=     600 IOpCl=  0 I1Cent=           0 NGrid=           0
         NMat0=    1 NMatS0=   2850 NMatT0=    0 NMatD0=    1 NMtDS0=    0 NMtDT0=    0
 Symmetry not used in FoFCou.

 Cycle   1  Pass 1  IDiag  1:
 E= -254.914959605436    
 DIIS: error= 6.30D-02 at cycle   1 NSaved=   1.
 NSaved= 1 IEnMin= 1 EnMin= -254.914959605436     IErMin= 1 ErrMin= 6.30D-02
 ErrMax= 6.30D-02  0.00D+00 EMaxC= 1.00D-01 BMatC= 2.72D-01 BMatP= 2.72D-01
 IDIUse=3 WtCom= 3.70D-01 WtEn= 6.30D-01
 Coeff-Com:  0.100D+01
 Coeff-En:   0.100D+01
 Coeff:      0.100D+01
 Gap=     0.475 Goal=   None    Shift=    0.000
 GapD=    0.475 DampG=2.000 DampE=0.500 DampFc=1.0000 IDamp=-1.
 RMSDP=1.98D-02 MaxDP=4.66D-01              OVMax= 2.20D-01

 Cycle   2  Pass 1  IDiag  1:
 E= -254.854306182775     Delta-E=        0.060653422660 Rises=F Damp=F
 DIIS: error= 5.62D-02 at cycle   2 NSaved=   2.
 NSaved= 2 IEnMin= 1 EnMin= -254.914959605436     IErMin= 2 ErrMin= 5.62D-02
 ErrMax= 5.62D-02  0.00D+00 EMaxC= 1.00D-01 BMatC= 3.39D-01 BMatP= 2.72D-01
 IDIUse=2 WtCom= 0.00D+00 WtEn= 1.00D+00
 Coeff-En:   0.569D+00 0.431D+00
 Coeff:      0.569D+00 0.431D+00
 Gap=     0.432 Goal=   None    Shift=    0.000
 RMSDP=6.28D-03 MaxDP=9.78D-02 DE= 6.07D-02 OVMax= 1.29D-01

 Cycle   3  Pass 1  IDiag  1:
 E= -255.090829255508     Delta-E=       -0.236523072733 Rises=F Damp=F
 DIIS: error= 4.10D-03 at cycle   3 NSaved=   3.
 NSaved= 3 IEnMin= 3 EnMin= -255.090829255508     IErMin= 3 ErrMin= 4.10D-03
 ErrMax= 4.10D-03  0.00D+00 EMaxC= 1.00D-01 BMatC= 1.63D-03 BMatP= 2.72D-01
 IDIUse=3 WtCom= 9.59D-01 WtEn= 4.10D-02
 Coeff-Com: -0.445D-02-0.729D-01 0.108D+01
 Coeff-En:   0.000D+00 0.000D+00 0.100D+01
 Coeff:     -0.426D-02-0.699D-01 0.107D+01
 Gap=     0.386 Goal=   None    Shift=    0.000
 RMSDP=2.33D-03 MaxDP=5.02D-02 DE=-2.37D-01 OVMax= 1.02D-02

 Cycle   4  Pass 1  IDiag  1:
 E= -255.092006112750     Delta-E=       -0.001176857242 Rises=F Damp=F
 DIIS: error= 1.83D-03 at cycle   4 NSaved=   4.
 NSaved= 4 IEnMin= 4 EnMin= -255.092006112750     IErMin= 4 ErrMin= 1.83D-03
 ErrMax= 1.83D-03  0.00D+00 EMaxC= 1.00D-01 BMatC= 1.89D-04 BMatP= 1.63D-03
 IDIUse=3 WtCom= 9.82D-01 WtEn= 1.83D-02
 Coeff-Com: -0.782D-02-0.408D-01 0.515D+00 0.534D+00
 Coeff-En:   0.000D+00 0.000D+00 0.000D+00 0.100D+01
 Coeff:     -0.768D-02-0.400D-01 0.505D+00 0.542D+00
 Gap=     0.388 Goal=   None    Shift=    0.000
 RMSDP=4.12D-04 MaxDP=8.78D-03 DE=-1.18D-03 OVMax= 3.98D-03

 Cycle   5  Pass 1  IDiag  1:
 E= -255.092191690309     Delta-E=       -0.000185577559 Rises=F Damp=F
 DIIS: error= 4.35D-04 at cycle   5 NSaved=   5.
 NSaved= 5 IEnMin= 5 EnMin= -255.092191690309     IErMin= 5 ErrMin= 4.35D-04
 ErrMax= 4.35D-04  0.00D+00 EMaxC= 1.00D-01 BMatC= 1.05D-05 BMatP= 1.89D-04
 IDIUse=3 WtCom= 9.96D-01 WtEn= 4.35D-03
 Coeff-Com: -0.182D-02-0.289D-02-0.260D-01 0.920D-01 0.939D+00
 Coeff-En:   0.000D+00 0.000D+00 0.000D+00 0.000D+00 0.100D+01
 Coeff:     -0.181D-02-0.287D-02-0.259D-01 0.916D-01 0.939D+00
 Gap=     0.389 Goal=   None    Shift=    0.000
 RMSDP=2.81D-04 MaxDP=5.53D-03 DE=-1.86D-04 OVMax= 2.35D-03

 Cycle   6  Pass 1  IDiag  1:
 E= -255.092207983556     Delta-E=       -0.000016293247 Rises=F Damp=F
 DIIS: error= 1.70D-04 at cycle   6 NSaved=   6.
 NSaved= 6 IEnMin= 6 EnMin= -255.092207983556     IErMin= 6 ErrMin= 1.70D-04
 ErrMax= 1.70D-04  0.00D+00 EMaxC= 1.00D-01 BMatC= 2.48D-06 BMatP= 1.05D-05
 IDIUse=3 WtCom= 9.98D-01 WtEn= 1.70D-03
 Coeff-Com:  0.413D-03 0.441D-02-0.866D-01-0.583D-01 0.405D+00 0.735D+00
 Coeff-En:   0.000D+00 0.000D+00 0.000D+00 0.000D+00 0.000D+00 0.100D+01
 Coeff:      0.413D-03 0.440D-02-0.865D-01-0.582D-01 0.404D+00 0.736D+00
 Gap=     0.389 Goal=   None    Shift=    0.000
 RMSDP=9.00D-05 MaxDP=1.73D-03 DE=-1.63D-05 OVMax= 5.82D-04

 Cycle   7  Pass 1  IDiag  1:
 E= -255.092211385681     Delta-E=       -0.000003402125 Rises=F Damp=F
 DIIS: error= 2.14D-05 at cycle   7 NSaved=   7.
 NSaved= 7 IEnMin= 7 EnMin= -255.092211385681     IErMin= 7 ErrMin= 2.14D-05
 ErrMax= 2.14D-05  0.00D+00 EMaxC= 1.00D-01 BMatC= 3.25D-08 BMatP= 2.48D-06
 IDIUse=1 WtCom= 1.00D+00 WtEn= 0.00D+00
 Coeff-Com:  0.788D-04-0.404D-03 0.833D-02-0.409D-02-0.606D-01-0.709D-01
 Coeff-Com:  0.113D+01
 Coeff:      0.788D-04-0.404D-03 0.833D-02-0.409D-02-0.606D-01-0.709D-01
 Coeff:      0.113D+01
 Gap=     0.389 Goal=   None    Shift=    0.000
 RMSDP=1.89D-05 MaxDP=3.16D-04 DE=-3.40D-06 OVMax= 1.87D-04

 Cycle   8  Pass 1  IDiag  1:
 E= -255.092211474275     Delta-E=       -0.000000088595 Rises=F Damp=F
 DIIS: error= 4.29D-06 at cycle   8 NSaved=   8.
 NSaved= 8 IEnMin= 8 EnMin= -255.092211474275     IErMin= 8 ErrMin= 4.29D-06
 ErrMax= 4.29D-06  0.00D+00 EMaxC= 1.00D-01 BMatC= 2.14D-09 BMatP= 3.25D-08
 IDIUse=1 WtCom= 1.00D+00 WtEn= 0.00D+00
 Coeff-Com: -0.142D-05-0.196D-03 0.384D-02 0.824D-03-0.187D-01-0.366D-01
 Coeff-Com:  0.160D+00 0.891D+00
 Coeff:     -0.142D-05-0.196D-03 0.384D-02 0.824D-03-0.187D-01-0.366D-01
 Coeff:      0.160D+00 0.891D+00
 Gap=     0.389 Goal=   None    Shift=    0.000
 RMSDP=5.15D-06 MaxDP=1.09D-04 DE=-8.86D-08 OVMax= 5.01D-05

 Cycle   9  Pass 1  IDiag  1:
 E= -255.092211478649     Delta-E=       -0.000000004374 Rises=F Damp=F
 DIIS: error= 2.23D-06 at cycle   9 NSaved=   9.
 NSaved= 9 IEnMin= 9 EnMin= -255.092211478649     IErMin= 9 ErrMin= 2.23D-06
 ErrMax= 2.23D-06  0.00D+00 EMaxC= 1.00D-01 BMatC= 6.09D-10 BMatP= 2.14D-09
 IDIUse=1 WtCom= 1.00D+00 WtEn= 0.00D+00
 Coeff-Com: -0.368D-05 0.170D-04-0.113D-03 0.505D-03 0.273D-02-0.371D-02
 Coeff-Com: -0.113D+00 0.307D+00 0.806D+00
 Coeff:     -0.368D-05 0.170D-04-0.113D-03 0.505D-03 0.273D-02-0.371D-02
 Coeff:     -0.113D+00 0.307D+00 0.806D+00
 Gap=     0.389 Goal=   None    Shift=    0.000
 RMSDP=1.67D-06 MaxDP=3.03D-05 DE=-4.37D-09 OVMax= 1.42D-05

 Cycle  10  Pass 1  IDiag  1:
 E= -255.092211479511     Delta-E=       -0.000000000862 Rises=F Damp=F
 DIIS: error= 6.79D-07 at cycle  10 NSaved=  10.
 NSaved=10 IEnMin=10 EnMin= -255.092211479511     IErMin=10 ErrMin= 6.79D-07
 ErrMax= 6.79D-07  0.00D+00 EMaxC= 1.00D-01 BMatC= 4.22D-11 BMatP= 6.09D-10
 IDIUse=1 WtCom= 1.00D+00 WtEn= 0.00D+00
 Coeff-Com: -0.622D-06 0.173D-04-0.264D-03 0.106D-03 0.225D-02 0.614D-03
 Coeff-Com: -0.468D-01 0.713D-01 0.294D+00 0.679D+00
 Coeff:     -0.622D-06 0.173D-04-0.264D-03 0.106D-03 0.225D-02 0.614D-03
 Coeff:     -0.468D-01 0.713D-01 0.294D+00 0.679D+00
 Gap=     0.389 Goal=   None    Shift=    0.000
 RMSDP=2.00D-07 MaxDP=1.93D-06 DE=-8.62D-10 OVMax= 4.15D-06

 Cycle  11  Pass 1  IDiag  1:
 E= -255.092211479572     Delta-E=       -0.000000000061 Rises=F Damp=F
 DIIS: error= 1.56D-07 at cycle  11 NSaved=  11.
 NSaved=11 IEnMin=11 EnMin= -255.092211479572     IErMin=11 ErrMin= 1.56D-07
 ErrMax= 1.56D-07  0.00D+00 EMaxC= 1.00D-01 BMatC= 3.18D-12 BMatP= 4.22D-11
 IDIUse=1 WtCom= 1.00D+00 WtEn= 0.00D+00
 Coeff-Com:  0.474D-06-0.639D-06-0.300D-04-0.507D-04-0.982D-04 0.727D-03
 Coeff-Com:  0.114D-01-0.417D-01-0.115D+00 0.331D-01 0.111D+01
 Coeff:      0.474D-06-0.639D-06-0.300D-04-0.507D-04-0.982D-04 0.727D-03
 Coeff:      0.114D-01-0.417D-01-0.115D+00 0.331D-01 0.111D+01
 Gap=     0.389 Goal=   None    Shift=    0.000
 RMSDP=1.36D-07 MaxDP=1.42D-06 DE=-6.06D-11 OVMax= 2.87D-06

 Cycle  12  Pass 1  IDiag  1:
 E= -255.092211479585     Delta-E=       -0.000000000013 Rises=F Damp=F
 DIIS: error= 3.82D-08 at cycle  12 NSaved=  12.
 NSaved=12 IEnMin=12 EnMin= -255.092211479585     IErMin=12 ErrMin= 3.82D-08
 ErrMax= 3.82D-08  0.00D+00 EMaxC= 1.00D-01 BMatC= 7.95D-14 BMatP= 3.18D-12
 IDIUse=1 WtCom= 1.00D+00 WtEn= 0.00D+00
 Coeff-Com: -0.457D-07-0.382D-06 0.149D-04 0.134D-04-0.732D-04-0.152D-03
 Coeff-Com: -0.629D-03 0.675D-02 0.133D-01-0.365D-01-0.252D+00 0.127D+01
 Coeff:     -0.457D-07-0.382D-06 0.149D-04 0.134D-04-0.732D-04-0.152D-03
 Coeff:     -0.629D-03 0.675D-02 0.133D-01-0.365D-01-0.252D+00 0.127D+01
 Gap=     0.389 Goal=   None    Shift=    0.000
 RMSDP=3.99D-08 MaxDP=7.29D-07 DE=-1.34D-11 OVMax= 7.14D-07

 Cycle  13  Pass 1  IDiag  1:
 E= -255.092211479584     Delta-E=        0.000000000002 Rises=F Damp=F
 DIIS: error= 7.20D-09 at cycle  13 NSaved=  13.
 NSaved=13 IEnMin=12 EnMin= -255.092211479585     IErMin=13 ErrMin= 7.20D-09
 ErrMax= 7.20D-09  0.00D+00 EMaxC= 1.00D-01 BMatC= 2.91D-15 BMatP= 7.95D-14
 IDIUse=1 WtCom= 1.00D+00 WtEn= 0.00D+00
 Coeff-Com: -0.208D-07 0.491D-07 0.527D-06 0.848D-07 0.562D-05-0.165D-04
 Coeff-Com: -0.373D-03 0.901D-03 0.357D-02 0.138D-02-0.174D-01-0.135D+00
 Coeff-Com:  0.115D+01
 Coeff:     -0.208D-07 0.491D-07 0.527D-06 0.848D-07 0.562D-05-0.165D-04
 Coeff:     -0.373D-03 0.901D-03 0.357D-02 0.138D-02-0.174D-01-0.135D+00
 Coeff:      0.115D+01
 Gap=     0.389 Goal=   None    Shift=    0.000
 RMSDP=5.61D-09 MaxDP=6.36D-08 DE= 1.59D-12 OVMax= 1.29D-07

 SCF Done:  E(RwB97XD) =  -255.092211480     A.U. after   13 cycles
            NFock= 13  Conv=0.56D-08     -V/T= 2.0059
 KE= 2.536019316042D+02 PE=-9.094164794349D+02 EE= 2.448547333827D+02
 Leave Link  502 at Wed May 12 11:56:08 2021, MaxMem=  2147483648 cpu:        12.9
 (Enter /opt/cluster/programs/g09_d.01/g09/l601.exe)
 Copying SCF densities to generalized density rwf, IOpCl= 0 IROHF=0.

 **********************************************************************

            Population analysis using the SCF density.

 **********************************************************************

 Orbital symmetries:
       Occupied  (A) (A) (A) (A) (A) (A) (A) (A) (A) (A) (A) (A)
                 (A) (A) (A) (A) (A) (A) (A)
       Virtual   (A) (A) (A) (A) (A) (A) (A) (A) (A) (A) (A) (A)
                 (A) (A) (A) (A) (A) (A) (A) (A) (A) (A) (A) (A)
                 (A) (A) (A) (A) (A) (A) (A) (A) (A) (A) (A) (A)
                 (A) (A) (A) (A) (A) (A) (A) (A) (A) (A) (A) (A)
                 (A) (A) (A) (A) (A) (A) (A) (A)
 The electronic state is 1-A.
 Alpha  occ. eigenvalues --  -24.82461 -10.40199 -10.33176 -10.32239 -10.30974
 Alpha  occ. eigenvalues --   -1.29842  -0.92649  -0.86203  -0.73523  -0.65535
 Alpha  occ. eigenvalues --   -0.60240  -0.57659  -0.56056  -0.52116  -0.50562
 Alpha  occ. eigenvalues --   -0.48345  -0.45054  -0.37707  -0.35275
 Alpha virt. eigenvalues --    0.03612   0.05779   0.07789   0.08413   0.09653
 Alpha virt. eigenvalues --    0.11346   0.11619   0.13300   0.13837   0.14267
 Alpha virt. eigenvalues --    0.15916   0.17673   0.18060   0.18386   0.19738
 Alpha virt. eigenvalues --    0.20148   0.23190   0.24686   0.26423   0.28313
 Alpha virt. eigenvalues --    0.28917   0.30951   0.32554   0.38779   0.40806
 Alpha virt. eigenvalues --    0.43221   0.44284   0.46650   0.49072   0.50024
 Alpha virt. eigenvalues --    0.51912   0.68779   0.73596   0.76933   0.78609
 Alpha virt. eigenvalues --    0.80526   0.82257   0.84949   0.90669   0.91192
 Alpha virt. eigenvalues --    0.93407   1.02160   1.05032   1.06880   1.12098
 Alpha virt. eigenvalues --    1.12952   1.16629   1.21507   1.24034   1.32454
 Alpha virt. eigenvalues --    1.39820   1.46539   1.68111   1.83597   1.85534
 Alpha virt. eigenvalues --    2.35929
          Condensed to atoms (all electrons):
               1          2          3          4          5          6
     1  C    5.954834   0.249702  -0.279410  -0.042961   0.383938   0.321196
     2  C    0.249702   5.297460   0.269353  -0.091492  -0.046757  -0.003103
     3  C   -0.279410   0.269353   5.333720   0.574488   0.010162   0.016904
     4  C   -0.042961  -0.091492   0.574488   5.166511   0.003343   0.005144
     5  H    0.383938  -0.046757   0.010162   0.003343   0.454454  -0.019934
     6  H    0.321196  -0.003103   0.016904   0.005144  -0.019934   0.464688
     7  F   -0.184657   0.309126  -0.117855  -0.024995  -0.003071   0.003995
     8  H    0.006232  -0.029129   0.349774  -0.017336  -0.000045   0.000138
     9  H    0.002301   0.006613  -0.046609   0.382118  -0.000011   0.000010
    10  H    0.002694   0.010465  -0.030553   0.367657   0.000001  -0.000006
               7          8          9         10
     1  C   -0.184657   0.006232   0.002301   0.002694
     2  C    0.309126  -0.029129   0.006613   0.010465
     3  C   -0.117855   0.349774  -0.046609  -0.030553
     4  C   -0.024995  -0.017336   0.382118   0.367657
     5  H   -0.003071  -0.000045  -0.000011   0.000001
     6  H    0.003995   0.000138   0.000010  -0.000006
     7  F    9.291787   0.002536   0.000049  -0.000211
     8  H    0.002536   0.461027   0.002573  -0.003523
     9  H    0.000049   0.002573   0.466634  -0.023460
    10  H   -0.000211  -0.003523  -0.023460   0.478094
 Mulliken charges:
               1
     1  C   -0.413869
     2  C    0.027762
     3  C   -0.079976
     4  C   -0.322477
     5  H    0.217921
     6  H    0.210968
     7  F   -0.276704
     8  H    0.227753
     9  H    0.209781
    10  H    0.198841
 Sum of Mulliken charges =   0.00000
 Mulliken charges with hydrogens summed into heavy atoms:
               1
     1  C    0.015020
     2  C    0.027762
     3  C    0.147777
     4  C    0.086145
     7  F   -0.276704
 Electronic spatial extent (au):  <R**2>=            431.8597
 Charge=              0.0000 electrons
 Dipole moment (field-independent basis, Debye):
    X=              1.2558    Y=             -2.0523    Z=              0.1282  Tot=              2.4095
 Quadrupole moment (field-independent basis, Debye-Ang):
   XX=            -25.9896   YY=            -32.6202   ZZ=            -28.9557
   XY=              2.4440   XZ=              0.4718   YZ=             -0.3353
 Traceless Quadrupole moment (field-independent basis, Debye-Ang):
   XX=              3.1989   YY=             -3.4317   ZZ=              0.2328
   XY=              2.4440   XZ=              0.4718   YZ=             -0.3353
 Octapole moment (field-independent basis, Debye-Ang**2):
  XXX=             -1.6444  YYY=              2.6468  ZZZ=              0.9090  XYY=             -3.8837
  XXY=             -0.0513  XXZ=             -2.5031  XZZ=              1.9413  YZZ=              4.1286
  YYZ=             -0.0392  XYZ=             -1.3655
 Hexadecapole moment (field-independent basis, Debye-Ang**3):
 XXXX=           -313.0791 YYYY=           -135.1161 ZZZZ=            -58.4252 XXXY=             -4.0333
 XXXZ=              6.0539 YYYX=             -0.5081 YYYZ=             -0.4513 ZZZX=             -0.0598
 ZZZY=             -2.2617 XXYY=            -89.4076 XXZZ=            -69.1791 YYZZ=            -36.2254
 XXYZ=              0.2716 YYXZ=              0.6896 ZZXY=             -4.3910
 N-N= 1.558676029684D+02 E-N=-9.094164795497D+02  KE= 2.536019316042D+02
 No NMR shielding tensors so no spin-rotation constants.
 Leave Link  601 at Wed May 12 11:56:08 2021, MaxMem=  2147483648 cpu:         0.6
 (Enter /opt/cluster/programs/g09_d.01/g09/l701.exe)
 Compute integral first derivatives.
 ... and contract with generalized density number  0.
 R6Disp: Adding Grimme-D2 dispersion energy 1st derivatives to the gradient.
 Leave Link  701 at Wed May 12 11:56:08 2021, MaxMem=  2147483648 cpu:         0.6
 (Enter /opt/cluster/programs/g09_d.01/g09/l702.exe)
 L702 exits ... SP integral derivatives will be done elsewhere.
 Leave Link  702 at Wed May 12 11:56:08 2021, MaxMem=  2147483648 cpu:         0.2
 (Enter /opt/cluster/programs/g09_d.01/g09/l703.exe)
 Compute integral first derivatives, UseDBF=F ICtDFT=           0.
 Integral derivatives from FoFJK, PRISM(SPDF).
 Calling FoFJK, ICntrl=      2127 FMM=F ISym2X=0 I1Cent= 0 IOpClX= 0 NMat=1 NMatS=1 NMatT=0.
 FoFJK:  IHMeth= 1 ICntrl=    2127 DoSepK=T KAlg= 0 I1Cent=   0 FoldK=F
 IRaf=         1 NMat=   1 IRICut=       1 DoRegI=T DoRafI=F ISym2E= 0.
 FoFCou: FMM=F IPFlag=           0 FMFlag=      100000 FMFlg1=         800
         NFxFlg=           0 DoJE=F BraDBF=F KetDBF=F FulRan=T
         wScrn=  0.000000 ICntrl=    2527 IOpCl=  0 I1Cent=           0 NGrid=           0
         NMat0=    1 NMatS0=      1 NMatT0=    0 NMatD0=    1 NMtDS0=    0 NMtDT0=    0
 Symmetry not used in FoFCou.
 Leave Link  703 at Wed May 12 11:56:08 2021, MaxMem=  2147483648 cpu:         3.3
 (Enter /opt/cluster/programs/g09_d.01/g09/l716.exe)
 Dipole        = 4.94081556D-01-8.07447533D-01 5.04297175D-02
 ***** Axes restored to original set *****
 -------------------------------------------------------------------
 Center     Atomic                   Forces (Hartrees/Bohr)
 Number     Number              X              Y              Z
 -------------------------------------------------------------------
      1        6           0.003231816    0.002900676   -0.000047085
      2        6          -0.005025992    0.002630144   -0.000713931
      3        6           0.004113968    0.001080335   -0.002098244
      4        6          -0.003853415   -0.000965312    0.002147101
      5        1           0.000643248    0.000303328    0.000204354
      6        1           0.000379589    0.000628244    0.000175625
      7        9           0.002147366   -0.006553263    0.000505212
      8        1          -0.000401076    0.000061231   -0.000923836
      9        1          -0.000453600    0.000028516    0.000520473
     10        1          -0.000781904   -0.000113899    0.000230331
 -------------------------------------------------------------------
 Cartesian Forces:  Max     0.006553263 RMS     0.002202541
 Leave Link  716 at Wed May 12 11:56:08 2021, MaxMem=  2147483648 cpu:         0.2
 (Enter /opt/cluster/programs/g09_d.01/g09/l103.exe)

 GradGradGradGradGradGradGradGradGradGradGradGradGradGradGradGradGradGrad
 Berny optimization.
 FormGI is forming the generalized inverse of G from B-inverse, IUseBI=4.
 Internal  Forces:  Max     0.006915722 RMS     0.001941553
 Search for a local minimum.
 Step number   1 out of a maximum of   43
 All quantities printed in internal units (Hartrees-Bohrs-Radians)
 RMS Force = .19643D-02 SwitMx=.10000D-02 MixMth= 1
 Mixed Optimization -- RFO/linear search
 Second derivative matrix not updated -- first step.
 ITU=  0
     Eigenvalues ---    0.01555   0.02041   0.02871   0.02871   0.03011
     Eigenvalues ---    0.03011   0.15992   0.16000   0.16000   0.16000
     Eigenvalues ---    0.16000   0.22002   0.24991   0.25000   0.34775
     Eigenvalues ---    0.34870   0.35214   0.35287   0.35567   0.35574
     Eigenvalues ---    0.40660   0.57017   0.594351000.000001000.00000
     Eigenvalues --- 1000.000001000.000001000.000001000.000001000.00000
     Eigenvalues --- 1000.000001000.000001000.00000
 RFO step:  Lambda=-2.72038546D-04 EMin= 1.55508207D-02
 Linear search not attempted -- first point.
 Iteration  1 RMS(Cart)=  0.01000839 RMS(Int)=  0.00002133
 Iteration  2 RMS(Cart)=  0.00002229 RMS(Int)=  0.00000126
 Iteration  3 RMS(Cart)=  0.00000000 RMS(Int)=  0.00000126
 Iteration  1 RMS(Cart)=  0.00000041 RMS(Int)=  0.00000028
 ITry= 1 IFail=0 DXMaxC= 2.88D-02 DCOld= 1.00D+10 DXMaxT= 3.00D-01 DXLimC= 3.00D+00 Rises=F
 Variable       Old X    -DE/DX   Delta X   Delta X   Delta X     New X
                                 (Linear)    (Quad)   (Total)
    R1        2.51390  -0.00567   0.00000  -0.00954  -0.00954   2.50436
    R2        2.04764  -0.00059   0.00000  -0.00166  -0.00166   2.04598
    R3        2.04753  -0.00049   0.00000  -0.00138  -0.00138   2.04615
    R4        2.79342  -0.00136   0.00000  -0.00391  -0.00391   2.78951
    R5        2.70666  -0.00692   0.00000  -0.01700  -0.01700   2.68967
    R6        2.53382  -0.00584   0.00000  -0.01024  -0.01024   2.52359
    R7        2.05886  -0.00098   0.00000  -0.00280  -0.00280   2.05606
    R8        2.05329  -0.00045   0.00000  -0.00126  -0.00126   2.05202
    R9        2.05211  -0.00066   0.00000  -0.00187  -0.00187   2.05024
    A1        2.11878  -0.00021   0.00000  -0.00131  -0.00131   2.11747
    A2        2.09756  -0.00047   0.00000  -0.00296  -0.00296   2.09460
    A3        2.06682   0.00069   0.00000   0.00429   0.00429   2.07111
    A4        2.27720  -0.00063   0.00000  -0.00249  -0.00249   2.27470
    A5        2.05184   0.00041   0.00000   0.00165   0.00165   2.05348
    A6        1.95360   0.00022   0.00000   0.00093   0.00093   1.95452
    A7        2.15614  -0.00143   0.00000  -0.00648  -0.00648   2.14966
    A8        2.02949   0.00047   0.00000   0.00176   0.00176   2.03125
    A9        2.09690   0.00098   0.00000   0.00485   0.00485   2.10175
   A10        2.12616  -0.00038   0.00000  -0.00236  -0.00236   2.12379
   A11        2.11676  -0.00031   0.00000  -0.00194  -0.00194   2.11482
   A12        2.04026   0.00069   0.00000   0.00430   0.00430   2.04457
    D1        3.11101   0.00017   0.00000   0.00074   0.00074   3.11175
    D2        0.00848  -0.00022   0.00000  -0.00231  -0.00231   0.00617
    D3       -0.03651   0.00026   0.00000   0.00363   0.00363  -0.03289
    D4       -3.13904  -0.00013   0.00000   0.00058   0.00058  -3.13847
    D5        1.74552  -0.00067   0.00000   0.00000   0.00000   1.74552
    D6       -1.43483  -0.00027   0.00000   0.00413   0.00413  -1.43070
    D7       -1.43340  -0.00030   0.00000   0.00293   0.00293  -1.43047
    D8        1.66943   0.00010   0.00000   0.00707   0.00706   1.67649
    D9       -0.02516   0.00029   0.00000   0.00515   0.00515  -0.02001
   D10        3.11523   0.00027   0.00000   0.00444   0.00444   3.11967
   D11       -3.12656  -0.00011   0.00000   0.00094   0.00094  -3.12562
   D12        0.01383  -0.00013   0.00000   0.00023   0.00023   0.01405
         Item               Value     Threshold  Converged?
 Maximum Force            0.006916     0.000450     NO 
 RMS     Force            0.001964     0.000300     NO 
 Maximum Displacement     0.028825     0.001800     NO 
 RMS     Displacement     0.010006     0.001200     NO 
 Predicted change in Energy=-1.361273D-04
 Lowest energy point so far.  Saving SCF results.
 GradGradGradGradGradGradGradGradGradGradGradGradGradGradGradGradGradGrad

 Leave Link  103 at Wed May 12 11:56:08 2021, MaxMem=  2147483648 cpu:         0.1
 (Enter /opt/cluster/programs/g09_d.01/g09/l202.exe)
                          Input orientation:                          
 ---------------------------------------------------------------------
 Center     Atomic      Atomic             Coordinates (Angstroms)
 Number     Number       Type             X           Y           Z
 ---------------------------------------------------------------------
      1          6           0       -1.388221   -1.029376   -0.142408
      2          6           0       -0.490527   -0.082143    0.088214
      3          6           0        0.922641   -0.185536    0.502073
      4          6           0        1.943760   -0.076619   -0.351631
      5          1           0       -2.406489   -0.784879   -0.417286
      6          1           0       -1.108570   -2.072170   -0.060052
      7          9           0       -0.913320    1.271730   -0.030472
      8          1           0        1.106018   -0.325586    1.565342
      9          1           0        1.784497    0.078196   -1.414557
     10          1           0        2.971294   -0.137855   -0.008819
 ---------------------------------------------------------------------
                    Distance matrix (angstroms):
                    1          2          3          4          5
     1  C    0.000000
     2  C    1.325251   0.000000
     3  C    2.543128   1.476148   0.000000
     4  C    3.471832   2.473711   1.335425   0.000000
     5  H    1.082685   2.102446   3.505359   4.408017   0.000000
     6  H    1.082777   2.089059   2.828637   3.658410   1.862613
     7  F    2.352265   1.423311   2.403743   3.175546   2.570763
     8  H    3.103701   2.188636   1.088018   2.106794   4.059492
     9  H    3.593218   2.731257   2.117976   1.085884   4.393610
    10  H    4.451744   3.463628   2.111934   1.084940   5.431946
                    6          7          8          9         10
     6  H    0.000000
     7  F    3.349726   0.000000
     8  H    3.255282   3.029153   0.000000
     9  H    3.850791   3.258593   3.082722   0.000000
    10  H    4.515472   4.132508   2.447954   1.852368   0.000000
 Stoichiometry    C4H5F
 Framework group  C1[X(C4H5F)]
 Deg. of freedom    24
 Full point group                 C1      NOp   1
 RotChk:  IX=0 Diff= 6.20D-03
 Largest Abelian subgroup         C1      NOp   1
 Largest concise Abelian subgroup C1      NOp   1
                         Standard orientation:                         
 ---------------------------------------------------------------------
 Center     Atomic      Atomic             Coordinates (Angstroms)
 Number     Number       Type             X           Y           Z
 ---------------------------------------------------------------------
      1          6           0       -1.389790   -1.027876   -0.143274
      2          6           0       -0.491755   -0.081515    0.089590
      3          6           0        0.922138   -0.186472    0.500567
      4          6           0        1.941761   -0.074051   -0.354470
      5          1           0       -2.408551   -0.782348   -0.415393
      6          1           0       -1.109930   -2.070973   -0.065598
      7          9           0       -0.914840    1.272795   -0.022917
      8          1           0        1.107377   -0.330782    1.562944
      9          1           0        1.780637    0.085024   -1.416486
     10          1           0        2.969895   -0.136593   -0.013697
 ---------------------------------------------------------------------
 Rotational constants (GHZ):      8.7057374      3.9633406      3.0351341
 Leave Link  202 at Wed May 12 11:56:08 2021, MaxMem=  2147483648 cpu:         0.0
 (Enter /opt/cluster/programs/g09_d.01/g09/l301.exe)
 Standard basis: 6-31+G (6D, 7F)
 Ernie: Thresh=  0.10000D-02 Tol=  0.10000D-05 Strict=F.
 There are    75 symmetry adapted cartesian basis functions of A   symmetry.
 There are    75 symmetry adapted basis functions of A   symmetry.
    75 basis functions,   150 primitive gaussians,    75 cartesian basis functions
    19 alpha electrons       19 beta electrons
       nuclear repulsion energy       156.4594409097 Hartrees.
 IExCor= 4639 DFT=T Ex+Corr=wB97XD ExCW=0 ScaHFX=  1.000000
 ScaDFX=  1.000000  1.000000  1.000000  1.000000 ScalE2=  1.000000  1.000000
 IRadAn=      0 IRanWt=     -1 IRanGd=            0 ICorTp=0 IEmpDi=121
  HFx wShort=  0.000000 wLong=  0.200000 cFull=  0.222036 cShort=  0.000000 cLong=  0.777964
  DFx wShort=  0.000000 wLong=  0.200000 cFull=  0.000000 cShort=  0.000000 cLong=  1.000000
 NAtoms=   10 NActive=   10 NUniq=   10 SFac= 1.00D+00 NAtFMM=   60 NAOKFM=F Big=F
 Integral buffers will be    131072 words long.
 Raffenetti 2 integral format.
 Two-electron integral symmetry is turned on.
 R6Disp:  Grimme-D2 Dispersion energy=       -0.0029783923 Hartrees.
 Nuclear repulsion after empirical dispersion term =      156.4564625174 Hartrees.
 Leave Link  301 at Wed May 12 11:56:08 2021, MaxMem=  2147483648 cpu:         0.3
 (Enter /opt/cluster/programs/g09_d.01/g09/l302.exe)
 NPDir=0 NMtPBC=     1 NCelOv=     1 NCel=       1 NClECP=     1 NCelD=      1
         NCelK=      1 NCelE2=     1 NClLst=     1 CellRange=     0.0.
 One-electron integrals computed using PRISM.
 NBasis=    75 RedAO= T EigKep=  6.80D-05  NBF=    75
 NBsUse=    75 1.00D-06 EigRej= -1.00D+00 NBFU=    75
 Precomputing XC quadrature grid using
 IXCGrd= 4 IRadAn=           0 IRanWt=          -1 IRanGd=           0 AccXCQ= 0.00D+00.
 Generated NRdTot=       0 NPtTot=           0 NUsed=           0 NTot=          32
 NSgBfM=    75    75    75    75    75 MxSgAt=    10 MxSgA2=    10.
 Leave Link  302 at Wed May 12 11:56:08 2021, MaxMem=  2147483648 cpu:         0.9
 (Enter /opt/cluster/programs/g09_d.01/g09/l303.exe)
 DipDrv:  MaxL=1.
 Leave Link  303 at Wed May 12 11:56:08 2021, MaxMem=  2147483648 cpu:         0.2
 (Enter /opt/cluster/programs/g09_d.01/g09/l401.exe)
 Initial guess from the checkpoint file:  "/home/unibas/boittier/RDKit_G2/B.pdb/SCAN_1_2_3_4_S_17_20.0/14_SCAN_1_2_3_4_F/B.pdb.chk"
 B after Tr=     0.000000    0.000000    0.000000
         Rot=    0.999999   -0.001224   -0.000468    0.000038 Ang=  -0.15 deg.
 Guess basis will be translated and rotated to current coordinates.
 JPrj=2 DoOrth=T DoCkMO=T.
 Generating alternative initial guess.
 ExpMin= 4.38D-02 ExpMax= 7.00D+03 ExpMxC= 1.05D+03 IAcc=2 IRadAn=         4 AccDes= 0.00D+00
 Harris functional with IExCor= 4639 and IRadAn=       4 diagonalized for initial guess.
 HarFok:  IExCor= 4639 AccDes= 0.00D+00 IRadAn=         4 IDoV= 1 UseB2=F ITyADJ=14
 ICtDFT=  3500011 ScaDFX=  1.000000  1.000000  1.000000  1.000000
 FoFCou: FMM=F IPFlag=           0 FMFlag=      100000 FMFlg1=           0
         NFxFlg=           0 DoJE=T BraDBF=F KetDBF=T FulRan=T
         wScrn=  0.000000 ICntrl=     500 IOpCl=  0 I1Cent=   200000004 NGrid=           0
         NMat0=    1 NMatS0=      1 NMatT0=    0 NMatD0=    1 NMtDS0=    0 NMtDT0=    0
 Petite list used in FoFCou.
 Harris En= -244.781201456391    
 Leave Link  401 at Wed May 12 11:56:09 2021, MaxMem=  2147483648 cpu:         1.7
 (Enter /opt/cluster/programs/g09_d.01/g09/l502.exe)
 Closed shell SCF:
 Using DIIS extrapolation, IDIIS=  1040.
 Integral symmetry usage will be decided dynamically.
 Keep R1 ints in memory in canonical form, NReq=9056162.
 IVT=       36600 IEndB=       36600 NGot=  2147483648 MDV=  2139321699
 LenX=  2139321699 LenY=  2139315633
 Requested convergence on RMS density matrix=1.00D-08 within 128 cycles.
 Requested convergence on MAX density matrix=1.00D-06.
 Requested convergence on             energy=1.00D-06.
 No special actions if energy rises.
 FoFCou: FMM=F IPFlag=           0 FMFlag=           0 FMFlg1=           0
         NFxFlg=           0 DoJE=F BraDBF=F KetDBF=F FulRan=T
         wScrn=  0.000000 ICntrl=     600 IOpCl=  0 I1Cent=           0 NGrid=           0
         NMat0=    1 NMatS0=   2850 NMatT0=    0 NMatD0=    1 NMtDS0=    0 NMtDT0=    0
 Symmetry not used in FoFCou.

 Cycle   1  Pass 1  IDiag  1:
 E= -255.092281855775    
 DIIS: error= 7.29D-04 at cycle   1 NSaved=   1.
 NSaved= 1 IEnMin= 1 EnMin= -255.092281855775     IErMin= 1 ErrMin= 7.29D-04
 ErrMax= 7.29D-04  0.00D+00 EMaxC= 1.00D-01 BMatC= 5.05D-05 BMatP= 5.05D-05
 IDIUse=3 WtCom= 9.93D-01 WtEn= 7.29D-03
 Coeff-Com:  0.100D+01
 Coeff-En:   0.100D+01
 Coeff:      0.100D+01
 Gap=     0.595 Goal=   None    Shift=    0.000
 RMSDP=3.19D-04 MaxDP=4.45D-03              OVMax= 1.69D-03

 Cycle   2  Pass 1  IDiag  1:
 E= -255.092346091065     Delta-E=       -0.000064235290 Rises=F Damp=F
 DIIS: error= 1.47D-04 at cycle   2 NSaved=   2.
 NSaved= 2 IEnMin= 2 EnMin= -255.092346091065     IErMin= 2 ErrMin= 1.47D-04
 ErrMax= 1.47D-04  0.00D+00 EMaxC= 1.00D-01 BMatC= 3.40D-06 BMatP= 5.05D-05
 IDIUse=3 WtCom= 9.99D-01 WtEn= 1.47D-03
 Coeff-Com:  0.398D-01 0.960D+00
 Coeff-En:   0.000D+00 0.100D+01
 Coeff:      0.398D-01 0.960D+00
 Gap=     0.390 Goal=   None    Shift=    0.000
 RMSDP=7.74D-05 MaxDP=1.10D-03 DE=-6.42D-05 OVMax= 8.69D-04

 Cycle   3  Pass 1  IDiag  1:
 E= -255.092350514101     Delta-E=       -0.000004423036 Rises=F Damp=F
 DIIS: error= 9.03D-05 at cycle   3 NSaved=   3.
 NSaved= 3 IEnMin= 3 EnMin= -255.092350514101     IErMin= 3 ErrMin= 9.03D-05
 ErrMax= 9.03D-05  0.00D+00 EMaxC= 1.00D-01 BMatC= 1.11D-06 BMatP= 3.40D-06
 IDIUse=1 WtCom= 1.00D+00 WtEn= 0.00D+00
 Coeff-Com: -0.577D-01 0.327D+00 0.730D+00
 Coeff:     -0.577D-01 0.327D+00 0.730D+00
 Gap=     0.390 Goal=   None    Shift=    0.000
 RMSDP=2.74D-05 MaxDP=2.95D-04 DE=-4.42D-06 OVMax= 3.81D-04

 Cycle   4  Pass 1  IDiag  1:
 E= -255.092351772355     Delta-E=       -0.000001258254 Rises=F Damp=F
 DIIS: error= 4.10D-05 at cycle   4 NSaved=   4.
 NSaved= 4 IEnMin= 4 EnMin= -255.092351772355     IErMin= 4 ErrMin= 4.10D-05
 ErrMax= 4.10D-05  0.00D+00 EMaxC= 1.00D-01 BMatC= 1.23D-07 BMatP= 1.11D-06
 IDIUse=1 WtCom= 1.00D+00 WtEn= 0.00D+00
 Coeff-Com: -0.238D-01 0.722D-01 0.295D+00 0.657D+00
 Coeff:     -0.238D-01 0.722D-01 0.295D+00 0.657D+00
 Gap=     0.390 Goal=   None    Shift=    0.000
 RMSDP=7.08D-06 MaxDP=1.04D-04 DE=-1.26D-06 OVMax= 1.96D-04

 Cycle   5  Pass 1  IDiag  1:
 E= -255.092351927314     Delta-E=       -0.000000154959 Rises=F Damp=F
 DIIS: error= 1.40D-05 at cycle   5 NSaved=   5.
 NSaved= 5 IEnMin= 5 EnMin= -255.092351927314     IErMin= 5 ErrMin= 1.40D-05
 ErrMax= 1.40D-05  0.00D+00 EMaxC= 1.00D-01 BMatC= 1.42D-08 BMatP= 1.23D-07
 IDIUse=1 WtCom= 1.00D+00 WtEn= 0.00D+00
 Coeff-Com:  0.576D-02-0.543D-01-0.810D-01 0.196D+00 0.933D+00
 Coeff:      0.576D-02-0.543D-01-0.810D-01 0.196D+00 0.933D+00
 Gap=     0.390 Goal=   None    Shift=    0.000
 RMSDP=4.62D-06 MaxDP=7.45D-05 DE=-1.55D-07 OVMax= 9.55D-05

 Cycle   6  Pass 1  IDiag  1:
 E= -255.092351955912     Delta-E=       -0.000000028598 Rises=F Damp=F
 DIIS: error= 3.08D-06 at cycle   6 NSaved=   6.
 NSaved= 6 IEnMin= 6 EnMin= -255.092351955912     IErMin= 6 ErrMin= 3.08D-06
 ErrMax= 3.08D-06  0.00D+00 EMaxC= 1.00D-01 BMatC= 3.93D-10 BMatP= 1.42D-08
 IDIUse=1 WtCom= 1.00D+00 WtEn= 0.00D+00
 Coeff-Com:  0.133D-02-0.595D-02-0.194D-01-0.919D-02 0.189D-01 0.101D+01
 Coeff:      0.133D-02-0.595D-02-0.194D-01-0.919D-02 0.189D-01 0.101D+01
 Gap=     0.390 Goal=   None    Shift=    0.000
 RMSDP=1.20D-06 MaxDP=1.66D-05 DE=-2.86D-08 OVMax= 2.38D-05

 Cycle   7  Pass 1  IDiag  1:
 E= -255.092351957061     Delta-E=       -0.000000001149 Rises=F Damp=F
 DIIS: error= 1.30D-06 at cycle   7 NSaved=   7.
 NSaved= 7 IEnMin= 7 EnMin= -255.092351957061     IErMin= 7 ErrMin= 1.30D-06
 ErrMax= 1.30D-06  0.00D+00 EMaxC= 1.00D-01 BMatC= 1.88D-10 BMatP= 3.93D-10
 IDIUse=1 WtCom= 1.00D+00 WtEn= 0.00D+00
 Coeff-Com: -0.270D-03 0.577D-02 0.316D-02-0.324D-01-0.133D+00 0.489D+00
 Coeff-Com:  0.667D+00
 Coeff:     -0.270D-03 0.577D-02 0.316D-02-0.324D-01-0.133D+00 0.489D+00
 Coeff:      0.667D+00
 Gap=     0.390 Goal=   None    Shift=    0.000
 RMSDP=4.35D-07 MaxDP=6.40D-06 DE=-1.15D-09 OVMax= 6.79D-06

 Cycle   8  Pass 1  IDiag  1:
 E= -255.092351957294     Delta-E=       -0.000000000233 Rises=F Damp=F
 DIIS: error= 1.87D-07 at cycle   8 NSaved=   8.
 NSaved= 8 IEnMin= 8 EnMin= -255.092351957294     IErMin= 8 ErrMin= 1.87D-07
 ErrMax= 1.87D-07  0.00D+00 EMaxC= 1.00D-01 BMatC= 3.83D-12 BMatP= 1.88D-10
 IDIUse=1 WtCom= 1.00D+00 WtEn= 0.00D+00
 Coeff-Com: -0.980D-04 0.710D-03 0.152D-02-0.227D-02-0.112D-01-0.295D-01
 Coeff-Com:  0.687D-01 0.972D+00
 Coeff:     -0.980D-04 0.710D-03 0.152D-02-0.227D-02-0.112D-01-0.295D-01
 Coeff:      0.687D-01 0.972D+00
 Gap=     0.390 Goal=   None    Shift=    0.000
 RMSDP=9.75D-08 MaxDP=1.42D-06 DE=-2.33D-10 OVMax= 1.63D-06

 Cycle   9  Pass 1  IDiag  1:
 E= -255.092351957303     Delta-E=       -0.000000000008 Rises=F Damp=F
 DIIS: error= 1.13D-07 at cycle   9 NSaved=   9.
 NSaved= 9 IEnMin= 9 EnMin= -255.092351957303     IErMin= 9 ErrMin= 1.13D-07
 ErrMax= 1.13D-07  0.00D+00 EMaxC= 1.00D-01 BMatC= 1.38D-12 BMatP= 3.83D-12
 IDIUse=1 WtCom= 1.00D+00 WtEn= 0.00D+00
 Coeff-Com: -0.349D-04-0.370D-04 0.601D-03 0.146D-02 0.494D-02-0.554D-01
 Coeff-Com: -0.232D-01 0.461D+00 0.611D+00
 Coeff:     -0.349D-04-0.370D-04 0.601D-03 0.146D-02 0.494D-02-0.554D-01
 Coeff:     -0.232D-01 0.461D+00 0.611D+00
 Gap=     0.390 Goal=   None    Shift=    0.000
 RMSDP=3.01D-08 MaxDP=3.56D-07 DE=-8.24D-12 OVMax= 5.56D-07

 Cycle  10  Pass 1  IDiag  1:
 E= -255.092351957304     Delta-E=       -0.000000000002 Rises=F Damp=F
 DIIS: error= 2.78D-08 at cycle  10 NSaved=  10.
 NSaved=10 IEnMin=10 EnMin= -255.092351957304     IErMin=10 ErrMin= 2.78D-08
 ErrMax= 2.78D-08  0.00D+00 EMaxC= 1.00D-01 BMatC= 8.27D-14 BMatP= 1.38D-12
 IDIUse=1 WtCom= 1.00D+00 WtEn= 0.00D+00
 Coeff-Com:  0.729D-05-0.161D-03-0.836D-04 0.963D-03 0.385D-02-0.149D-01
 Coeff-Com: -0.187D-01 0.378D-02 0.172D+00 0.853D+00
 Coeff:      0.729D-05-0.161D-03-0.836D-04 0.963D-03 0.385D-02-0.149D-01
 Coeff:     -0.187D-01 0.378D-02 0.172D+00 0.853D+00
 Gap=     0.390 Goal=   None    Shift=    0.000
 RMSDP=2.06D-08 MaxDP=3.83D-07 DE=-1.82D-12 OVMax= 2.63D-07

 Cycle  11  Pass 1  IDiag  1:
 E= -255.092351957304     Delta-E=        0.000000000000 Rises=F Damp=F
 DIIS: error= 1.32D-08 at cycle  11 NSaved=  11.
 NSaved=11 IEnMin=10 EnMin= -255.092351957304     IErMin=11 ErrMin= 1.32D-08
 ErrMax= 1.32D-08  0.00D+00 EMaxC= 1.00D-01 BMatC= 9.67D-15 BMatP= 8.27D-14
 IDIUse=1 WtCom= 1.00D+00 WtEn= 0.00D+00
 Coeff-Com:  0.459D-05-0.326D-04-0.800D-04 0.854D-04 0.426D-03 0.209D-02
 Coeff-Com: -0.249D-02-0.500D-01-0.139D-01 0.261D+00 0.803D+00
 Coeff:      0.459D-05-0.326D-04-0.800D-04 0.854D-04 0.426D-03 0.209D-02
 Coeff:     -0.249D-02-0.500D-01-0.139D-01 0.261D+00 0.803D+00
 Gap=     0.390 Goal=   None    Shift=    0.000
 RMSDP=6.71D-09 MaxDP=9.24D-08 DE= 0.00D+00 OVMax= 1.09D-07

 SCF Done:  E(RwB97XD) =  -255.092351957     A.U. after   11 cycles
            NFock= 11  Conv=0.67D-08     -V/T= 2.0056
 KE= 2.536639933817D+02 PE=-9.106363917006D+02 EE= 2.454235838442D+02
 Leave Link  502 at Wed May 12 11:56:10 2021, MaxMem=  2147483648 cpu:        11.4
 (Enter /opt/cluster/programs/g09_d.01/g09/l701.exe)
 Compute integral first derivatives.
 ... and contract with generalized density number  0.
 R6Disp: Adding Grimme-D2 dispersion energy 1st derivatives to the gradient.
 Leave Link  701 at Wed May 12 11:56:10 2021, MaxMem=  2147483648 cpu:         0.6
 (Enter /opt/cluster/programs/g09_d.01/g09/l702.exe)
 L702 exits ... SP integral derivatives will be done elsewhere.
 Leave Link  702 at Wed May 12 11:56:10 2021, MaxMem=  2147483648 cpu:         0.2
 (Enter /opt/cluster/programs/g09_d.01/g09/l703.exe)
 Compute integral first derivatives, UseDBF=F ICtDFT=           0.
 Integral derivatives from FoFJK, PRISM(SPDF).
 Calling FoFJK, ICntrl=      2127 FMM=F ISym2X=0 I1Cent= 0 IOpClX= 0 NMat=1 NMatS=1 NMatT=0.
 FoFJK:  IHMeth= 1 ICntrl=    2127 DoSepK=T KAlg= 0 I1Cent=   0 FoldK=F
 IRaf=         1 NMat=   1 IRICut=       1 DoRegI=T DoRafI=F ISym2E= 0.
 FoFCou: FMM=F IPFlag=           0 FMFlag=      100000 FMFlg1=         800
         NFxFlg=           0 DoJE=F BraDBF=F KetDBF=F FulRan=T
         wScrn=  0.000000 ICntrl=    2527 IOpCl=  0 I1Cent=           0 NGrid=           0
         NMat0=    1 NMatS0=      1 NMatT0=    0 NMatD0=    1 NMtDS0=    0 NMtDT0=    0
 Symmetry not used in FoFCou.
 Leave Link  703 at Wed May 12 11:56:11 2021, MaxMem=  2147483648 cpu:         3.3
 (Enter /opt/cluster/programs/g09_d.01/g09/l716.exe)
 Dipole        = 4.87102586D-01-7.92304592D-01 5.09609043D-02
 ***** Axes restored to original set *****
 -------------------------------------------------------------------
 Center     Atomic                   Forces (Hartrees/Bohr)
 Number     Number              X              Y              Z
 -------------------------------------------------------------------
      1        6          -0.000216624   -0.001436162   -0.000703081
      2        6          -0.001476665    0.003340979    0.000732392
      3        6           0.000321485    0.000250003    0.000666251
      4        6           0.000727080   -0.000474066   -0.000699632
      5        1          -0.000011947   -0.000002013   -0.000052640
      6        1          -0.000032497   -0.000002462    0.000017665
      7        9           0.000713026   -0.001609537    0.000140203
      8        1          -0.000112439   -0.000061939    0.000005490
      9        1          -0.000013176   -0.000041407   -0.000016328
     10        1           0.000101756    0.000036604   -0.000090320
 -------------------------------------------------------------------
 Cartesian Forces:  Max     0.003340979 RMS     0.000846502
 Leave Link  716 at Wed May 12 11:56:11 2021, MaxMem=  2147483648 cpu:         0.2
 (Enter /opt/cluster/programs/g09_d.01/g09/l103.exe)

 GradGradGradGradGradGradGradGradGradGradGradGradGradGradGradGradGradGrad
 Berny optimization.
 Using GEDIIS/GDIIS optimizer.
 FormGI is forming the generalized inverse of G from B-inverse, IUseBI=4.
 Internal  Forces:  Max     0.001756709 RMS     0.000534669
 Search for a local minimum.
 Step number   2 out of a maximum of   43
 All quantities printed in internal units (Hartrees-Bohrs-Radians)
 RMS Force = .52038D-03 SwitMx=.10000D-02 MixMth= 2
 Mixed Optimization -- En-DIIS/RFO-DIIS
 Update second derivatives using D2CorX and points    1    2
 DE= -1.40D-04 DEPred=-1.36D-04 R= 1.03D+00
 TightC=F SS=  1.41D+00  RLast= 2.82D-02 DXNew= 5.0454D-01 8.4577D-02
 Trust test= 1.03D+00 RLast= 2.82D-02 DXMaxT set to 3.00D-01
 ITU=  1  0
 Use linear search instead of GDIIS.
     Eigenvalues ---    0.01546   0.02042   0.02871   0.02878   0.03008
     Eigenvalues ---    0.03013   0.15813   0.15997   0.16000   0.16000
     Eigenvalues ---    0.16104   0.21279   0.24048   0.24995   0.33188
     Eigenvalues ---    0.34985   0.35230   0.35345   0.35571   0.35676
     Eigenvalues ---    0.36282   0.58004   0.719201000.000001000.00000
     Eigenvalues --- 1000.000001000.000001000.000001000.000001000.00000
     Eigenvalues --- 1000.000001000.000001000.00000
 RFO step:  Lambda=-2.41005376D-05 EMin= 1.54582016D-02
 Quartic linear search produced a step of  0.02592.
 Iteration  1 RMS(Cart)=  0.00266298 RMS(Int)=  0.00000606
 Iteration  2 RMS(Cart)=  0.00000709 RMS(Int)=  0.00000084
 Iteration  3 RMS(Cart)=  0.00000000 RMS(Int)=  0.00000084
 Iteration  1 RMS(Cart)=  0.00000047 RMS(Int)=  0.00000032
 ITry= 1 IFail=0 DXMaxC= 5.51D-03 DCOld= 1.00D+10 DXMaxT= 3.00D-01 DXLimC= 3.00D+00 Rises=F
 Variable       Old X    -DE/DX   Delta X   Delta X   Delta X     New X
                                 (Linear)    (Quad)   (Total)
    R1        2.50436   0.00134  -0.00025   0.00173   0.00148   2.50584
    R2        2.04598   0.00002  -0.00004  -0.00004  -0.00009   2.04589
    R3        2.04615   0.00000  -0.00004  -0.00008  -0.00012   2.04604
    R4        2.78951   0.00096  -0.00010   0.00260   0.00249   2.79201
    R5        2.68967  -0.00176  -0.00044  -0.00549  -0.00593   2.68374
    R6        2.52359   0.00109  -0.00027   0.00133   0.00106   2.52465
    R7        2.05606   0.00000  -0.00007  -0.00019  -0.00026   2.05579
    R8        2.05202   0.00001  -0.00003  -0.00005  -0.00008   2.05194
    R9        2.05024   0.00007  -0.00005   0.00008   0.00003   2.05027
    A1        2.11747   0.00001  -0.00003  -0.00004  -0.00007   2.11739
    A2        2.09460   0.00002  -0.00008  -0.00005  -0.00013   2.09447
    A3        2.07111  -0.00003   0.00011   0.00009   0.00020   2.07131
    A4        2.27470  -0.00097  -0.00006  -0.00410  -0.00417   2.27054
    A5        2.05348   0.00074   0.00004   0.00315   0.00319   2.05667
    A6        1.95452   0.00023   0.00002   0.00106   0.00108   1.95560
    A7        2.14966  -0.00011  -0.00017  -0.00091  -0.00108   2.14858
    A8        2.03125  -0.00007   0.00005  -0.00040  -0.00035   2.03090
    A9        2.10175   0.00018   0.00013   0.00132   0.00145   2.10320
   A10        2.12379  -0.00009  -0.00006  -0.00075  -0.00081   2.12299
   A11        2.11482   0.00017  -0.00005   0.00095   0.00090   2.11572
   A12        2.04457  -0.00007   0.00011  -0.00021  -0.00009   2.04447
    D1        3.11175   0.00023   0.00002   0.00358   0.00360   3.11535
    D2        0.00617  -0.00014  -0.00006  -0.00042  -0.00049   0.00569
    D3       -0.03289   0.00020   0.00009   0.00271   0.00281  -0.03008
    D4       -3.13847  -0.00017   0.00001  -0.00129  -0.00128  -3.13975
    D5        1.74552  -0.00061   0.00000   0.00000   0.00000   1.74552
    D6       -1.43070  -0.00032   0.00011   0.00036   0.00046  -1.43024
    D7       -1.43047  -0.00025   0.00008   0.00387   0.00394  -1.42653
    D8        1.67649   0.00005   0.00018   0.00422   0.00440   1.68090
    D9       -0.02001   0.00012   0.00013  -0.00080  -0.00066  -0.02067
   D10        3.11967   0.00012   0.00012  -0.00082  -0.00070   3.11897
   D11       -3.12562  -0.00018   0.00002  -0.00113  -0.00111  -3.12673
   D12        0.01405  -0.00018   0.00001  -0.00115  -0.00115   0.01290
         Item               Value     Threshold  Converged?
 Maximum Force            0.001757     0.000450     NO 
 RMS     Force            0.000520     0.000300     NO 
 Maximum Displacement     0.005508     0.001800     NO 
 RMS     Displacement     0.002664     0.001200     NO 
 Predicted change in Energy=-1.216964D-05
 Lowest energy point so far.  Saving SCF results.
 GradGradGradGradGradGradGradGradGradGradGradGradGradGradGradGradGradGrad

 Leave Link  103 at Wed May 12 11:56:11 2021, MaxMem=  2147483648 cpu:         0.1
 (Enter /opt/cluster/programs/g09_d.01/g09/l202.exe)
                          Input orientation:                          
 ---------------------------------------------------------------------
 Center     Atomic      Atomic             Coordinates (Angstroms)
 Number     Number       Type             X           Y           Z
 ---------------------------------------------------------------------
      1          6           0       -1.387817   -1.029042   -0.142024
      2          6           0       -0.491858   -0.079228    0.089225
      3          6           0        0.922396   -0.185697    0.503300
      4          6           0        1.943209   -0.076638   -0.351632
      5          1           0       -2.405776   -0.786799   -0.419848
      6          1           0       -1.106204   -2.071091   -0.057765
      7          9           0       -0.911512    1.272081   -0.032198
      8          1           0        1.105107   -0.328351    1.566197
      9          1           0        1.782189    0.079704   -1.414024
     10          1           0        2.971348   -0.139177   -0.010826
 ---------------------------------------------------------------------
                    Distance matrix (angstroms):
                    1          2          3          4          5
     1  C    0.000000
     2  C    1.326034   0.000000
     3  C    2.542589   1.477467   0.000000
     4  C    3.470842   2.474655   1.335988   0.000000
     5  H    1.082640   2.103068   3.505747   4.407114   0.000000
     6  H    1.082715   2.089628   2.825726   3.655561   1.862632
     7  F    2.352466   1.420173   2.403143   3.173408   2.573342
     8  H    3.102202   2.189476   1.087880   2.108042   4.059662
     9  H    3.591134   2.730625   2.117974   1.085839   4.390703
    10  H    4.450999   3.465169   2.112982   1.084956   5.431406
                    6          7          8          9         10
     6  H    0.000000
     7  F    3.348935   0.000000
     8  H    3.250276   3.030347   0.000000
     9  H    3.848140   3.253803   3.083288   0.000000
    10  H    4.512308   4.131429   2.450641   1.852289   0.000000
 Stoichiometry    C4H5F
 Framework group  C1[X(C4H5F)]
 Deg. of freedom    24
 Full point group                 C1      NOp   1
 RotChk:  IX=0 Diff= 2.36D-03
 Largest Abelian subgroup         C1      NOp   1
 Largest concise Abelian subgroup C1      NOp   1
                         Standard orientation:                         
 ---------------------------------------------------------------------
 Center     Atomic      Atomic             Coordinates (Angstroms)
 Number     Number       Type             X           Y           Z
 ---------------------------------------------------------------------
      1          6           0       -1.389516   -1.027863   -0.144238
      2          6           0       -0.493212   -0.079259    0.090619
      3          6           0        0.921873   -0.187891    0.501280
      4          6           0        1.940976   -0.073853   -0.355041
      5          1           0       -2.408052   -0.784179   -0.418666
      6          1           0       -1.107613   -2.070337   -0.066448
      7          9           0       -0.913266    1.272663   -0.022306
      8          1           0        1.106707   -0.336548    1.562986
      9          1           0        1.777832    0.088491   -1.416208
     10          1           0        2.969795   -0.138191   -0.016633
 ---------------------------------------------------------------------
 Rotational constants (GHZ):      8.7026122      3.9660958      3.0371219
 Leave Link  202 at Wed May 12 11:56:11 2021, MaxMem=  2147483648 cpu:         0.1
 (Enter /opt/cluster/programs/g09_d.01/g09/l301.exe)
 Standard basis: 6-31+G (6D, 7F)
 Ernie: Thresh=  0.10000D-02 Tol=  0.10000D-05 Strict=F.
 There are    75 symmetry adapted cartesian basis functions of A   symmetry.
 There are    75 symmetry adapted basis functions of A   symmetry.
    75 basis functions,   150 primitive gaussians,    75 cartesian basis functions
    19 alpha electrons       19 beta electrons
       nuclear repulsion energy       156.4871052571 Hartrees.
 IExCor= 4639 DFT=T Ex+Corr=wB97XD ExCW=0 ScaHFX=  1.000000
 ScaDFX=  1.000000  1.000000  1.000000  1.000000 ScalE2=  1.000000  1.000000
 IRadAn=      0 IRanWt=     -1 IRanGd=            0 ICorTp=0 IEmpDi=121
  HFx wShort=  0.000000 wLong=  0.200000 cFull=  0.222036 cShort=  0.000000 cLong=  0.777964
  DFx wShort=  0.000000 wLong=  0.200000 cFull=  0.000000 cShort=  0.000000 cLong=  1.000000
 NAtoms=   10 NActive=   10 NUniq=   10 SFac= 1.00D+00 NAtFMM=   60 NAOKFM=F Big=F
 Integral buffers will be    131072 words long.
 Raffenetti 2 integral format.
 Two-electron integral symmetry is turned on.
 R6Disp:  Grimme-D2 Dispersion energy=       -0.0029805081 Hartrees.
 Nuclear repulsion after empirical dispersion term =      156.4841247490 Hartrees.
 Leave Link  301 at Wed May 12 11:56:11 2021, MaxMem=  2147483648 cpu:         0.3
 (Enter /opt/cluster/programs/g09_d.01/g09/l302.exe)
 NPDir=0 NMtPBC=     1 NCelOv=     1 NCel=       1 NClECP=     1 NCelD=      1
         NCelK=      1 NCelE2=     1 NClLst=     1 CellRange=     0.0.
 One-electron integrals computed using PRISM.
 NBasis=    75 RedAO= T EigKep=  6.87D-05  NBF=    75
 NBsUse=    75 1.00D-06 EigRej= -1.00D+00 NBFU=    75
 Precomputing XC quadrature grid using
 IXCGrd= 4 IRadAn=           0 IRanWt=          -1 IRanGd=           0 AccXCQ= 0.00D+00.
 Generated NRdTot=       0 NPtTot=           0 NUsed=           0 NTot=          32
 NSgBfM=    75    75    75    75    75 MxSgAt=    10 MxSgA2=    10.
 Leave Link  302 at Wed May 12 11:56:11 2021, MaxMem=  2147483648 cpu:         0.9
 (Enter /opt/cluster/programs/g09_d.01/g09/l303.exe)
 DipDrv:  MaxL=1.
 Leave Link  303 at Wed May 12 11:56:11 2021, MaxMem=  2147483648 cpu:         0.2
 (Enter /opt/cluster/programs/g09_d.01/g09/l401.exe)
 Initial guess from the checkpoint file:  "/home/unibas/boittier/RDKit_G2/B.pdb/SCAN_1_2_3_4_S_17_20.0/14_SCAN_1_2_3_4_F/B.pdb.chk"
 B after Tr=     0.000000    0.000000    0.000000
         Rot=    1.000000   -0.000499   -0.000028    0.000132 Ang=  -0.06 deg.
 Guess basis will be translated and rotated to current coordinates.
 JPrj=2 DoOrth=T DoCkMO=T.
 Leave Link  401 at Wed May 12 11:56:11 2021, MaxMem=  2147483648 cpu:         0.7
 (Enter /opt/cluster/programs/g09_d.01/g09/l502.exe)
 Closed shell SCF:
 Using DIIS extrapolation, IDIIS=  1040.
 Integral symmetry usage will be decided dynamically.
 Keep R1 ints in memory in canonical form, NReq=9056162.
 IVT=       36600 IEndB=       36600 NGot=  2147483648 MDV=  2139321699
 LenX=  2139321699 LenY=  2139315633
 Requested convergence on RMS density matrix=1.00D-08 within 128 cycles.
 Requested convergence on MAX density matrix=1.00D-06.
 Requested convergence on             energy=1.00D-06.
 No special actions if energy rises.
 FoFCou: FMM=F IPFlag=           0 FMFlag=           0 FMFlg1=           0
         NFxFlg=           0 DoJE=F BraDBF=F KetDBF=F FulRan=T
         wScrn=  0.000000 ICntrl=     600 IOpCl=  0 I1Cent=           0 NGrid=           0
         NMat0=    1 NMatS0=   2850 NMatT0=    0 NMatD0=    1 NMtDS0=    0 NMtDT0=    0
 Symmetry not used in FoFCou.

 Cycle   1  Pass 1  IDiag  1:
 E= -255.092353941322    
 DIIS: error= 3.10D-04 at cycle   1 NSaved=   1.
 NSaved= 1 IEnMin= 1 EnMin= -255.092353941322     IErMin= 1 ErrMin= 3.10D-04
 ErrMax= 3.10D-04  0.00D+00 EMaxC= 1.00D-01 BMatC= 8.92D-06 BMatP= 8.92D-06
 IDIUse=3 WtCom= 9.97D-01 WtEn= 3.10D-03
 Coeff-Com:  0.100D+01
 Coeff-En:   0.100D+01
 Coeff:      0.100D+01
 Gap=     0.595 Goal=   None    Shift=    0.000
 RMSDP=1.04D-04 MaxDP=1.41D-03              OVMax= 1.04D-03

 Cycle   2  Pass 1  IDiag  1:
 E= -255.092366632524     Delta-E=       -0.000012691202 Rises=F Damp=F
 DIIS: error= 1.36D-04 at cycle   2 NSaved=   2.
 NSaved= 2 IEnMin= 2 EnMin= -255.092366632524     IErMin= 2 ErrMin= 1.36D-04
 ErrMax= 1.36D-04  0.00D+00 EMaxC= 1.00D-01 BMatC= 1.80D-06 BMatP= 8.92D-06
 IDIUse=3 WtCom= 9.99D-01 WtEn= 1.36D-03
 Coeff-Com:  0.169D+00 0.831D+00
 Coeff-En:   0.000D+00 0.100D+01
 Coeff:      0.169D+00 0.831D+00
 Gap=     0.390 Goal=   None    Shift=    0.000
 RMSDP=3.10D-05 MaxDP=4.15D-04 DE=-1.27D-05 OVMax= 3.70D-04

 Cycle   3  Pass 1  IDiag  1:
 E= -255.092367576878     Delta-E=       -0.000000944353 Rises=F Damp=F
 DIIS: error= 1.19D-04 at cycle   3 NSaved=   3.
 NSaved= 3 IEnMin= 3 EnMin= -255.092367576878     IErMin= 3 ErrMin= 1.19D-04
 ErrMax= 1.19D-04  0.00D+00 EMaxC= 1.00D-01 BMatC= 1.18D-06 BMatP= 1.80D-06
 IDIUse=3 WtCom= 9.99D-01 WtEn= 1.19D-03
 Coeff-Com: -0.102D+00 0.459D+00 0.643D+00
 Coeff-En:   0.000D+00 0.225D+00 0.775D+00
 Coeff:     -0.102D+00 0.459D+00 0.643D+00
 Gap=     0.390 Goal=   None    Shift=    0.000
 RMSDP=2.02D-05 MaxDP=3.14D-04 DE=-9.44D-07 OVMax= 2.37D-04

 Cycle   4  Pass 1  IDiag  1:
 E= -255.092368459954     Delta-E=       -0.000000883076 Rises=F Damp=F
 DIIS: error= 9.64D-06 at cycle   4 NSaved=   4.
 NSaved= 4 IEnMin= 4 EnMin= -255.092368459954     IErMin= 4 ErrMin= 9.64D-06
 ErrMax= 9.64D-06  0.00D+00 EMaxC= 1.00D-01 BMatC= 9.09D-09 BMatP= 1.18D-06
 IDIUse=1 WtCom= 1.00D+00 WtEn= 0.00D+00
 Coeff-Com: -0.573D-04-0.626D-01-0.146D-01 0.108D+01
 Coeff:     -0.573D-04-0.626D-01-0.146D-01 0.108D+01
 Gap=     0.390 Goal=   None    Shift=    0.000
 RMSDP=4.73D-06 MaxDP=6.56D-05 DE=-8.83D-07 OVMax= 8.86D-05

 Cycle   5  Pass 1  IDiag  1:
 E= -255.092368484456     Delta-E=       -0.000000024503 Rises=F Damp=F
 DIIS: error= 3.30D-06 at cycle   5 NSaved=   5.
 NSaved= 5 IEnMin= 5 EnMin= -255.092368484456     IErMin= 5 ErrMin= 3.30D-06
 ErrMax= 3.30D-06  0.00D+00 EMaxC= 1.00D-01 BMatC= 1.29D-09 BMatP= 9.09D-09
 IDIUse=1 WtCom= 1.00D+00 WtEn= 0.00D+00
 Coeff-Com:  0.877D-02-0.574D-01-0.591D-01 0.300D+00 0.808D+00
 Coeff:      0.877D-02-0.574D-01-0.591D-01 0.300D+00 0.808D+00
 Gap=     0.390 Goal=   None    Shift=    0.000
 RMSDP=1.64D-06 MaxDP=1.70D-05 DE=-2.45D-08 OVMax= 2.75D-05

 Cycle   6  Pass 1  IDiag  1:
 E= -255.092368487341     Delta-E=       -0.000000002885 Rises=F Damp=F
 DIIS: error= 1.23D-06 at cycle   6 NSaved=   6.
 NSaved= 6 IEnMin= 6 EnMin= -255.092368487341     IErMin= 6 ErrMin= 1.23D-06
 ErrMax= 1.23D-06  0.00D+00 EMaxC= 1.00D-01 BMatC= 8.03D-11 BMatP= 1.29D-09
 IDIUse=1 WtCom= 1.00D+00 WtEn= 0.00D+00
 Coeff-Com:  0.347D-03 0.452D-02-0.281D-02-0.983D-01 0.355D-01 0.106D+01
 Coeff:      0.347D-03 0.452D-02-0.281D-02-0.983D-01 0.355D-01 0.106D+01
 Gap=     0.390 Goal=   None    Shift=    0.000
 RMSDP=6.85D-07 MaxDP=9.33D-06 DE=-2.88D-09 OVMax= 1.14D-05

 Cycle   7  Pass 1  IDiag  1:
 E= -255.092368487629     Delta-E=       -0.000000000288 Rises=F Damp=F
 DIIS: error= 5.66D-07 at cycle   7 NSaved=   7.
 NSaved= 7 IEnMin= 7 EnMin= -255.092368487629     IErMin= 7 ErrMin= 5.66D-07
 ErrMax= 5.66D-07  0.00D+00 EMaxC= 1.00D-01 BMatC= 1.44D-11 BMatP= 8.03D-11
 IDIUse=1 WtCom= 1.00D+00 WtEn= 0.00D+00
 Coeff-Com: -0.438D-03 0.536D-02 0.271D-02-0.565D-01-0.371D-01 0.393D+00
 Coeff-Com:  0.693D+00
 Coeff:     -0.438D-03 0.536D-02 0.271D-02-0.565D-01-0.371D-01 0.393D+00
 Coeff:      0.693D+00
 Gap=     0.390 Goal=   None    Shift=    0.000
 RMSDP=1.21D-07 MaxDP=1.21D-06 DE=-2.88D-10 OVMax= 2.24D-06

 Cycle   8  Pass 1  IDiag  1:
 E= -255.092368487649     Delta-E=       -0.000000000020 Rises=F Damp=F
 DIIS: error= 2.10D-07 at cycle   8 NSaved=   8.
 NSaved= 8 IEnMin= 8 EnMin= -255.092368487649     IErMin= 8 ErrMin= 2.10D-07
 ErrMax= 2.10D-07  0.00D+00 EMaxC= 1.00D-01 BMatC= 2.10D-12 BMatP= 1.44D-11
 IDIUse=1 WtCom= 1.00D+00 WtEn= 0.00D+00
 Coeff-Com: -0.191D-03 0.104D-02 0.147D-02-0.273D-02-0.183D-01-0.438D-01
 Coeff-Com:  0.259D+00 0.804D+00
 Coeff:     -0.191D-03 0.104D-02 0.147D-02-0.273D-02-0.183D-01-0.438D-01
 Coeff:      0.259D+00 0.804D+00
 Gap=     0.390 Goal=   None    Shift=    0.000
 RMSDP=5.28D-08 MaxDP=4.66D-07 DE=-1.96D-11 OVMax= 1.33D-06

 Cycle   9  Pass 1  IDiag  1:
 E= -255.092368487652     Delta-E=       -0.000000000003 Rises=F Damp=F
 DIIS: error= 4.05D-08 at cycle   9 NSaved=   9.
 NSaved= 9 IEnMin= 9 EnMin= -255.092368487652     IErMin= 9 ErrMin= 4.05D-08
 ErrMax= 4.05D-08  0.00D+00 EMaxC= 1.00D-01 BMatC= 1.45D-13 BMatP= 2.10D-12
 IDIUse=1 WtCom= 1.00D+00 WtEn= 0.00D+00
 Coeff-Com: -0.294D-04-0.134D-03 0.251D-03 0.389D-02-0.222D-02-0.475D-01
 Coeff-Com:  0.921D-02 0.232D+00 0.805D+00
 Coeff:     -0.294D-04-0.134D-03 0.251D-03 0.389D-02-0.222D-02-0.475D-01
 Coeff:      0.921D-02 0.232D+00 0.805D+00
 Gap=     0.390 Goal=   None    Shift=    0.000
 RMSDP=1.78D-08 MaxDP=2.22D-07 DE=-3.35D-12 OVMax= 3.87D-07

 Cycle  10  Pass 1  IDiag  1:
 E= -255.092368487652     Delta-E=        0.000000000000 Rises=F Damp=F
 DIIS: error= 1.37D-08 at cycle  10 NSaved=  10.
 NSaved=10 IEnMin=10 EnMin= -255.092368487652     IErMin=10 ErrMin= 1.37D-08
 ErrMax= 1.37D-08  0.00D+00 EMaxC= 1.00D-01 BMatC= 1.01D-14 BMatP= 1.45D-13
 IDIUse=1 WtCom= 1.00D+00 WtEn= 0.00D+00
 Coeff-Com:  0.173D-04-0.136D-03-0.132D-03 0.102D-02 0.168D-02-0.338D-02
 Coeff-Com: -0.266D-01-0.491D-01 0.127D+00 0.950D+00
 Coeff:      0.173D-04-0.136D-03-0.132D-03 0.102D-02 0.168D-02-0.338D-02
 Coeff:     -0.266D-01-0.491D-01 0.127D+00 0.950D+00
 Gap=     0.390 Goal=   None    Shift=    0.000
 RMSDP=8.54D-09 MaxDP=1.02D-07 DE=-1.14D-13 OVMax= 1.54D-07

 SCF Done:  E(RwB97XD) =  -255.092368488     A.U. after   10 cycles
            NFock= 10  Conv=0.85D-08     -V/T= 2.0056
 KE= 2.536631569424D+02 PE=-9.106854292029D+02 EE= 2.454457790238D+02
 Leave Link  502 at Wed May 12 11:56:19 2021, MaxMem=  2147483648 cpu:        54.1
 (Enter /opt/cluster/programs/g09_d.01/g09/l701.exe)
 Compute integral first derivatives.
 ... and contract with generalized density number  0.
 R6Disp: Adding Grimme-D2 dispersion energy 1st derivatives to the gradient.
 Leave Link  701 at Wed May 12 11:56:19 2021, MaxMem=  2147483648 cpu:         0.6
 (Enter /opt/cluster/programs/g09_d.01/g09/l702.exe)
 L702 exits ... SP integral derivatives will be done elsewhere.
 Leave Link  702 at Wed May 12 11:56:19 2021, MaxMem=  2147483648 cpu:         0.2
 (Enter /opt/cluster/programs/g09_d.01/g09/l703.exe)
 Compute integral first derivatives, UseDBF=F ICtDFT=           0.
 Integral derivatives from FoFJK, PRISM(SPDF).
 Calling FoFJK, ICntrl=      2127 FMM=F ISym2X=0 I1Cent= 0 IOpClX= 0 NMat=1 NMatS=1 NMatT=0.
 FoFJK:  IHMeth= 1 ICntrl=    2127 DoSepK=T KAlg= 0 I1Cent=   0 FoldK=F
 IRaf=         1 NMat=   1 IRICut=       1 DoRegI=T DoRafI=F ISym2E= 0.
 FoFCou: FMM=F IPFlag=           0 FMFlag=      100000 FMFlg1=         800
         NFxFlg=           0 DoJE=F BraDBF=F KetDBF=F FulRan=T
         wScrn=  0.000000 ICntrl=    2527 IOpCl=  0 I1Cent=           0 NGrid=           0
         NMat0=    1 NMatS0=      1 NMatT0=    0 NMatD0=    1 NMtDS0=    0 NMtDT0=    0
 Symmetry not used in FoFCou.
 Leave Link  703 at Wed May 12 11:56:20 2021, MaxMem=  2147483648 cpu:         3.3
 (Enter /opt/cluster/programs/g09_d.01/g09/l716.exe)
 Dipole        = 4.84077064D-01-7.86685256D-01 4.97240603D-02
 ***** Axes restored to original set *****
 -------------------------------------------------------------------
 Center     Atomic                   Forces (Hartrees/Bohr)
 Number     Number              X              Y              Z
 -------------------------------------------------------------------
      1        6           0.000143989   -0.000598966   -0.000575641
      2        6          -0.000657866    0.001129678    0.000705918
      3        6           0.000190915    0.000453200    0.000053360
      4        6           0.000186989   -0.000502002   -0.000208104
      5        1          -0.000088851   -0.000008631   -0.000024183
      6        1          -0.000019076   -0.000007212    0.000037080
      7        9           0.000154920   -0.000403404    0.000045702
      8        1           0.000020823   -0.000043055    0.000059075
      9        1           0.000007607   -0.000006011   -0.000058283
     10        1           0.000060551   -0.000013596   -0.000034924
 -------------------------------------------------------------------
 Cartesian Forces:  Max     0.001129678 RMS     0.000351502
 Leave Link  716 at Wed May 12 11:56:20 2021, MaxMem=  2147483648 cpu:         0.2
 (Enter /opt/cluster/programs/g09_d.01/g09/l103.exe)

 GradGradGradGradGradGradGradGradGradGradGradGradGradGradGradGradGradGrad
 Berny optimization.
 Using GEDIIS/GDIIS optimizer.
 FormGI is forming the generalized inverse of G from B-inverse, IUseBI=4.
 Internal  Forces:  Max     0.000604425 RMS     0.000241430
 Search for a local minimum.
 Step number   3 out of a maximum of   43
 All quantities printed in internal units (Hartrees-Bohrs-Radians)
 RMS Force = .20313D-03 SwitMx=.10000D-02 MixMth= 2
 Mixed Optimization -- En-DIIS/RFO-DIIS
 Swapping is turned off.
 Update second derivatives using D2CorX and points    1    2    3
 DE= -1.65D-05 DEPred=-1.22D-05 R= 1.36D+00
 TightC=F SS=  1.41D+00  RLast= 1.18D-02 DXNew= 5.0454D-01 3.5462D-02
 Trust test= 1.36D+00 RLast= 1.18D-02 DXMaxT set to 3.00D-01
 ITU=  1  1  0
     Eigenvalues ---    0.01522   0.02072   0.02871   0.02884   0.02980
     Eigenvalues ---    0.03025   0.14526   0.15998   0.16000   0.16075
     Eigenvalues ---    0.16104   0.16615   0.22328   0.25193   0.33467
     Eigenvalues ---    0.34919   0.35231   0.35302   0.35585   0.35596
     Eigenvalues ---    0.38090   0.58039   0.674261000.000001000.00000
     Eigenvalues --- 1000.000001000.000001000.000001000.000001000.00000
     Eigenvalues --- 1000.000001000.000001000.00000
 En-DIIS/RFO-DIIS IScMMF=        0 using points:     3    2
 RFO step:  Lambda=-2.87780731D-06.
[...]
 ***** Axes restored to original set *****
 -------------------------------------------------------------------
 Center     Atomic                   Forces (Hartrees/Bohr)
 Number     Number              X              Y              Z
 -------------------------------------------------------------------
      1        6           0.000156136    0.000015406   -0.000476672
      2        6          -0.000176626   -0.000212786    0.000853986
      3        6           0.000036893    0.000632805   -0.000228224
      4        6          -0.000009035   -0.000505719   -0.000073028
      5        1          -0.000010071   -0.000017951   -0.000000174
      6        1           0.000004812   -0.000002321   -0.000020360
      7        9          -0.000045312    0.000081954   -0.000043139
      8        1           0.000016109    0.000013513    0.000006266
      9        1           0.000017206    0.000007659   -0.000008225
     10        1           0.000009888   -0.000012560   -0.000010429
 -------------------------------------------------------------------
 Cartesian Forces:  Max     0.000853986 RMS     0.000243955
 Leave Link  716 at Wed May 12 11:56:24 2021, MaxMem=  2147483648 cpu:         0.2
 (Enter /opt/cluster/programs/g09_d.01/g09/l103.exe)

 GradGradGradGradGradGradGradGradGradGradGradGradGradGradGradGradGradGrad
 Berny optimization.
 Using GEDIIS/GDIIS optimizer.
 FormGI is forming the generalized inverse of G from B-inverse, IUseBI=4.
 Internal  Forces:  Max     0.000511824 RMS     0.000132012
 Search for a local minimum.
 Step number   4 out of a maximum of   43
 All quantities printed in internal units (Hartrees-Bohrs-Radians)
 RMS Force = .35173D-04 SwitMx=.10000D-02 MixMth= 2
 Mixed Optimization -- En-DIIS/RFO-DIIS
 Swapping is turned off.
 Update second derivatives using D2CorX and points    1    2    3    4
 DE= -3.25D-06 DEPred=-3.47D-06 R= 9.37D-01
 TightC=F SS=  1.41D+00  RLast= 8.12D-03 DXNew= 5.0454D-01 2.4356D-02
 Trust test= 9.37D-01 RLast= 8.12D-03 DXMaxT set to 3.00D-01
 ITU=  1  1  1  0
     Eigenvalues ---    0.01500   0.02074   0.02874   0.02886   0.03010
     Eigenvalues ---    0.03069   0.13673   0.16000   0.16005   0.16037
     Eigenvalues ---    0.16158   0.16505   0.22136   0.25271   0.34629
     Eigenvalues ---    0.34903   0.35225   0.35305   0.35585   0.35594
     Eigenvalues ---    0.37162   0.58106   0.675901000.000001000.00000
     Eigenvalues --- 1000.000001000.000001000.000001000.000001000.00000
     Eigenvalues --- 1000.000001000.000001000.00000
 En-DIIS/RFO-DIIS IScMMF=        0 using points:     4    3    2
 RFO step:  Lambda=-1.04796942D-07.
 NNeg= 0 NP= 3 Switch=  2.50D-03 Rises=F DC=  1.65D-05 SmlDif=  1.00D-05
 RMS Error=  0.8666897131D-04 NUsed= 3 EDIIS=F
 DidBck=F Rises=F RFO-DIIS coefs:    1.03228   -0.03484    0.00255
 Iteration  1 RMS(Cart)=  0.00045934 RMS(Int)=  0.00000020
 Iteration  2 RMS(Cart)=  0.00000024 RMS(Int)=  0.00000009
 Iteration  1 RMS(Cart)=  0.00000014 RMS(Int)=  0.00000009
 ITry= 1 IFail=0 DXMaxC= 1.06D-03 DCOld= 1.00D+10 DXMaxT= 3.00D-01 DXLimC= 3.00D+00 Rises=F
 Variable       Old X    -DE/DX   Delta X   Delta X   Delta X     New X
                                 (Linear)    (Quad)   (Total)
    R1        2.50680   0.00000   0.00003  -0.00001   0.00002   2.50682
    R2        2.04617   0.00000   0.00001   0.00000   0.00001   2.04618
    R3        2.04600   0.00001   0.00000   0.00002   0.00002   2.04602
    R4        2.79378  -0.00003   0.00005  -0.00009  -0.00003   2.79374
    R5        2.68067   0.00009  -0.00008   0.00017   0.00009   2.68075
    R6        2.52509   0.00002   0.00001   0.00004   0.00005   2.52514
    R7        2.05592   0.00001   0.00000   0.00002   0.00002   2.05594
    R8        2.05209   0.00000   0.00001   0.00001   0.00001   2.05210
    R9        2.05038   0.00001   0.00000   0.00002   0.00002   2.05040
    A1        2.11778   0.00004   0.00001   0.00026   0.00027   2.11804
    A2        2.09414  -0.00002  -0.00001  -0.00015  -0.00016   2.09398
    A3        2.07126  -0.00002   0.00000  -0.00011  -0.00011   2.07115
    A4        2.26631  -0.00010  -0.00013  -0.00042  -0.00055   2.26576
    A5        2.05908   0.00001   0.00007   0.00004   0.00011   2.05920
    A6        1.95744   0.00010   0.00006   0.00040   0.00046   1.95790
    A7        2.14806   0.00005  -0.00001   0.00020   0.00019   2.14824
    A8        2.03110  -0.00001   0.00001  -0.00004  -0.00003   2.03106
    A9        2.10358  -0.00003   0.00001  -0.00017  -0.00016   2.10342
   A10        2.12272   0.00002  -0.00001   0.00013   0.00012   2.12284
   A11        2.11618   0.00000   0.00001  -0.00002  -0.00001   2.11617
   A12        2.04429  -0.00002  -0.00001  -0.00011  -0.00011   2.04417
    D1        3.11618   0.00014   0.00002   0.00064   0.00066   3.11684
    D2        0.00568  -0.00014   0.00000  -0.00032  -0.00032   0.00536
    D3       -0.02796   0.00011   0.00006  -0.00039  -0.00033  -0.02828
    D4       -3.13845  -0.00017   0.00005  -0.00135  -0.00131  -3.13976
    D5        1.74552  -0.00051   0.00000   0.00000   0.00000   1.74552
    D6       -1.42824  -0.00027   0.00006  -0.00039  -0.00033  -1.42857
    D7       -1.42572  -0.00025   0.00002   0.00092   0.00093  -1.42479
    D8        1.68370   0.00000   0.00008   0.00052   0.00060   1.68430
    D9       -0.01982   0.00014   0.00003   0.00029   0.00032  -0.01950
   D10        3.12035   0.00013   0.00005  -0.00015  -0.00010   3.12025
   D11       -3.12796  -0.00011  -0.00004   0.00070   0.00066  -3.12729
   D12        0.01222  -0.00012  -0.00002   0.00026   0.00024   0.01245
         Item               Value     Threshold  Converged?
 Maximum Force            0.000101     0.000450     YES
 RMS     Force            0.000035     0.000300     YES
 Maximum Displacement     0.001065     0.001800     YES
 RMS     Displacement     0.000459     0.001200     YES
 Predicted change in Energy=-1.243370D-07
 Optimization completed.
    -- Stationary point found.
                           ----------------------------
                           !   Optimized Parameters   !
                           ! (Angstroms and Degrees)  !
 --------------------------                            --------------------------
 ! Name  Definition              Value          Derivative Info.                !
 --------------------------------------------------------------------------------
 ! R1    R(1,2)                  1.3265         -DE/DX =    0.0                 !
 ! R2    R(1,5)                  1.0828         -DE/DX =    0.0                 !
 ! R3    R(1,6)                  1.0827         -DE/DX =    0.0                 !
 ! R4    R(2,3)                  1.4784         -DE/DX =    0.0                 !
 ! R5    R(2,7)                  1.4185         -DE/DX =    0.0001              !
 ! R6    R(3,4)                  1.3362         -DE/DX =    0.0                 !
 ! R7    R(3,8)                  1.0879         -DE/DX =    0.0                 !
 ! R8    R(4,9)                  1.0859         -DE/DX =    0.0                 !
 ! R9    R(4,10)                 1.085          -DE/DX =    0.0                 !
 ! A1    A(2,1,5)              121.3396         -DE/DX =    0.0                 !
 ! A2    A(2,1,6)              119.9855         -DE/DX =    0.0                 !
 ! A3    A(5,1,6)              118.6747         -DE/DX =    0.0                 !
 ! A4    A(1,2,3)              129.8498         -DE/DX =   -0.0001              !
 ! A5    A(1,2,7)              117.9768         -DE/DX =    0.0                 !
 ! A6    A(3,2,7)              112.1531         -DE/DX =    0.0001              !
 ! A7    A(2,3,4)              123.0746         -DE/DX =    0.0                 !
 ! A8    A(2,3,8)              116.3734         -DE/DX =    0.0                 !
 ! A9    A(4,3,8)              120.5262         -DE/DX =    0.0                 !
 ! A10   A(3,4,9)              121.6228         -DE/DX =    0.0                 !
 ! A11   A(3,4,10)             121.2482         -DE/DX =    0.0                 !
 ! A12   A(9,4,10)             117.129          -DE/DX =    0.0                 !
 ! D1    D(5,1,2,3)            178.5438         -DE/DX =    0.0001              !
 ! D2    D(5,1,2,7)              0.3255         -DE/DX =   -0.0001              !
 ! D3    D(6,1,2,3)             -1.6019         -DE/DX =    0.0001              !
 ! D4    D(6,1,2,7)           -179.8201         -DE/DX =   -0.0002              !
 ! D5    D(1,2,3,4)            100.011          -DE/DX =   -0.0005              !
 ! D6    D(1,2,3,8)            -81.832          -DE/DX =   -0.0003              !
 ! D7    D(7,2,3,4)            -81.6879         -DE/DX =   -0.0002              !
 ! D8    D(7,2,3,8)             96.4691         -DE/DX =    0.0                 !
 ! D9    D(2,3,4,9)             -1.1356         -DE/DX =    0.0001              !
 ! D10   D(2,3,4,10)           178.783          -DE/DX =    0.0001              !
 ! D11   D(8,3,4,9)           -179.2187         -DE/DX =   -0.0001              !
 ! D12   D(8,3,4,10)             0.6999         -DE/DX =   -0.0001              !
 --------------------------------------------------------------------------------
 Lowest energy point so far.  Saving SCF results.
 GradGradGradGradGradGradGradGradGradGradGradGradGradGradGradGradGradGrad

 Largest change from initial coordinates is atom    9       0.016 Angstoms.
 Leave Link  103 at Wed May 12 11:56:25 2021, MaxMem=  2147483648 cpu:         0.2
 (Enter /opt/cluster/programs/g09_d.01/g09/l202.exe)
                          Input orientation:                          
 ---------------------------------------------------------------------
 Center     Atomic      Atomic             Coordinates (Angstroms)
 Number     Number       Type             X           Y           Z
 ---------------------------------------------------------------------
      1          6           0       -1.386902   -1.028590   -0.142090
      2          6           0       -0.493011   -0.076090    0.089030
      3          6           0        0.921865   -0.185172    0.503644
      4          6           0        1.942797   -0.076882   -0.351612
      5          1           0       -2.405453   -0.789374   -0.420929
      6          1           0       -1.102882   -2.069768   -0.055412
      7          9           0       -0.912131    1.273626   -0.032965
      8          1           0        1.104230   -0.330930    1.566248
      9          1           0        1.781445    0.081376   -1.413753
     10          1           0        2.971123   -0.142434   -0.011756
 ---------------------------------------------------------------------
                    Distance matrix (angstroms):
                    1          2          3          4          5
     1  C    0.000000
     2  C    1.326542   0.000000
     3  C    2.541404   1.478404   0.000000
     4  C    3.469372   2.475343   1.336222   0.000000
     5  H    1.082784   2.103869   3.505844   4.406781   0.000000
     6  H    1.082696   2.089870   2.822029   3.651778   1.862713
     7  F    2.353193   1.418548   2.404076   3.174275   2.576139
     8  H    3.100143   2.190501   1.087948   2.108535   4.059177
     9  H    3.589927   2.730623   2.118097   1.085921   4.390218
    10  H    4.449117   3.466235   2.113509   1.085014   5.430794
                    6          7          8          9         10
     6  H    0.000000
     7  F    3.348906   0.000000
     8  H    3.244177   3.032787   0.000000
     9  H    3.846017   3.253212   3.083670   0.000000
    10  H    4.507110   4.133442   2.451717   1.852301   0.000000
 Stoichiometry    C4H5F
 Framework group  C1[X(C4H5F)]
 Deg. of freedom    24
 Full point group                 C1      NOp   1
 RotChk:  IX=0 Diff= 8.07D-16
 Largest Abelian subgroup         C1      NOp   1
 Largest concise Abelian subgroup C1      NOp   1
                         Standard orientation:                         
 ---------------------------------------------------------------------
 Center     Atomic      Atomic             Coordinates (Angstroms)
 Number     Number       Type             X           Y           Z
 ---------------------------------------------------------------------
      1          6           0       -1.387133   -1.029742   -0.144847
      2          6           0       -0.493984   -0.077597    0.090564
      3          6           0        0.921883   -0.187520    0.501559
      4          6           0        1.940909   -0.072413   -0.355078
      5          1           0       -2.406561   -0.790050   -0.420046
      6          1           0       -1.101606   -2.071089   -0.065458
      7          9           0       -0.915077    1.272334   -0.021878
      8          1           0        1.106626   -0.339878    1.562825
      9          1           0        1.777165    0.092469   -1.415844
     10          1           0        2.970017   -0.138824   -0.017765
 ---------------------------------------------------------------------
 Rotational constants (GHZ):      8.6963137      3.9669468      3.0370265
 Leave Link  202 at Wed May 12 11:56:25 2021, MaxMem=  2147483648 cpu:         0.0
 (Enter /opt/cluster/programs/g09_d.01/g09/l601.exe)
 Copying SCF densities to generalized density rwf, IOpCl= 0 IROHF=0.

 **********************************************************************

            Population analysis using the SCF density.

 **********************************************************************

 Orbital symmetries:
       Occupied  (A) (A) (A) (A) (A) (A) (A) (A) (A) (A) (A) (A)
                 (A) (A) (A) (A) (A) (A) (A)
       Virtual   (A) (A) (A) (A) (A) (A) (A) (A) (A) (A) (A) (A)
                 (A) (A) (A) (A) (A) (A) (A) (A) (A) (A) (A) (A)
                 (A) (A) (A) (A) (A) (A) (A) (A) (A) (A) (A) (A)
                 (A) (A) (A) (A) (A) (A) (A) (A) (A) (A) (A) (A)
                 (A) (A) (A) (A) (A) (A) (A) (A)
 The electronic state is 1-A.
 Alpha  occ. eigenvalues --  -24.82681 -10.40049 -10.33008 -10.32081 -10.30778
 Alpha  occ. eigenvalues --   -1.30476  -0.92707  -0.86239  -0.73443  -0.65692
 Alpha  occ. eigenvalues --   -0.60405  -0.57756  -0.56172  -0.52345  -0.50661
 Alpha  occ. eigenvalues --   -0.48484  -0.44960  -0.37754  -0.35205
 Alpha virt. eigenvalues --    0.03791   0.05930   0.07835   0.08446   0.09686
 Alpha virt. eigenvalues --    0.11355   0.11661   0.13338   0.13868   0.14285
 Alpha virt. eigenvalues --    0.15934   0.17661   0.18087   0.18419   0.19734
 Alpha virt. eigenvalues --    0.20106   0.23405   0.24812   0.26616   0.28381
 Alpha virt. eigenvalues --    0.29058   0.31014   0.32673   0.38991   0.40862
 Alpha virt. eigenvalues --    0.43270   0.44439   0.46823   0.48994   0.50048
 Alpha virt. eigenvalues --    0.51904   0.68833   0.73595   0.77087   0.78745
 Alpha virt. eigenvalues --    0.80664   0.82235   0.85194   0.90973   0.91325
 Alpha virt. eigenvalues --    0.93635   1.02282   1.05004   1.07071   1.12217
 Alpha virt. eigenvalues --    1.13166   1.16766   1.21660   1.23787   1.32580
 Alpha virt. eigenvalues --    1.39764   1.47485   1.68020   1.83664   1.85554
 Alpha virt. eigenvalues --    2.36493
          Condensed to atoms (all electrons):
               1          2          3          4          5          6
     1  C    5.970821   0.247576  -0.288557  -0.045332   0.384465   0.322180
     2  C    0.247576   5.302674   0.269906  -0.095877  -0.047756  -0.004058
     3  C   -0.288557   0.269906   5.347739   0.573219   0.010484   0.016496
     4  C   -0.045332  -0.095877   0.573219   5.173867   0.003507   0.005553
     5  H    0.384465  -0.047756   0.010484   0.003507   0.455837  -0.019845
     6  H    0.322180  -0.004058   0.016496   0.005553  -0.019845   0.465156
     7  F   -0.188236   0.307570  -0.122024  -0.024233  -0.003308   0.004239
     8  H    0.006933  -0.030817   0.350411  -0.016586  -0.000046   0.000143
     9  H    0.002740   0.005637  -0.047257   0.383055  -0.000012   0.000011
    10  H    0.002725   0.010201  -0.031411   0.368897   0.000002  -0.000007
               7          8          9         10
     1  C   -0.188236   0.006933   0.002740   0.002725
     2  C    0.307570  -0.030817   0.005637   0.010201
     3  C   -0.122024   0.350411  -0.047257  -0.031411
     4  C   -0.024233  -0.016586   0.383055   0.368897
     5  H   -0.003308  -0.000046  -0.000012   0.000002
     6  H    0.004239   0.000143   0.000011  -0.000007
     7  F    9.300901   0.002686   0.000060  -0.000220
     8  H    0.002686   0.460376   0.002600  -0.003543
     9  H    0.000060   0.002600   0.466759  -0.023202
    10  H   -0.000220  -0.003543  -0.023202   0.477938
 Mulliken charges:
               1
     1  C   -0.415314
     2  C    0.034945
     3  C   -0.079004
     4  C   -0.326071
     5  H    0.216674
     6  H    0.210132
     7  F   -0.277435
     8  H    0.227844
     9  H    0.209609
    10  H    0.198620
 Sum of Mulliken charges =   0.00000
 Mulliken charges with hydrogens summed into heavy atoms:
               1
     1  C    0.011492
     2  C    0.034945
     3  C    0.148840
     4  C    0.082158
     7  F   -0.277435
 Electronic spatial extent (au):  <R**2>=            428.6538
 Charge=              0.0000 electrons
 Dipole moment (field-independent basis, Debye):
    X=              1.2295    Y=             -1.9932    Z=              0.1261  Tot=              2.3453
 Quadrupole moment (field-independent basis, Debye-Ang):
   XX=            -26.1054   YY=            -32.5562   ZZ=            -28.9417
   XY=              2.3224   XZ=              0.4852   YZ=             -0.3894
 Traceless Quadrupole moment (field-independent basis, Debye-Ang):
   XX=              3.0957   YY=             -3.3551   ZZ=              0.2594
   XY=              2.3224   XZ=              0.4852   YZ=             -0.3894
 Octapole moment (field-independent basis, Debye-Ang**2):
  XXX=             -1.7548  YYY=              2.7918  ZZZ=              0.9477  XYY=             -3.7860
  XXY=              0.0324  XXZ=             -2.4587  XZZ=              1.8543  YZZ=              4.1270
  YYZ=             -0.0150  XYZ=             -1.4261
 Hexadecapole moment (field-independent basis, Debye-Ang**3):
 XXXX=           -310.9474 YYYY=           -134.3092 ZZZZ=            -58.5709 XXXY=             -4.4805
 XXXZ=              6.0653 YYYX=             -0.8438 YYYZ=             -0.4843 ZZZX=             -0.0165
 ZZZY=             -2.3825 XXYY=            -88.6743 XXZZ=            -68.7402 YYZZ=            -36.0198
 XXYZ=              0.1783 YYXZ=              0.7038 ZZXY=             -4.3977
 N-N= 1.564809725827D+02 E-N=-9.106741747848D+02  KE= 2.536611923621D+02
 No NMR shielding tensors so no spin-rotation constants.
 Leave Link  601 at Wed May 12 11:56:25 2021, MaxMem=  2147483648 cpu:         0.6
 (Enter /opt/cluster/programs/g09_d.01/g09/l9999.exe)
 1\1\GINC-NODE12\FOpt\RwB97XD\6-31+G\C4H5F1\BOITTIER\12-May-2021\0\\#p 
 wB97XD/6-31+G Opt=ModRedun\\B.pdb\\0,1\C,-1.3869018055,-1.0285904692,-
 0.1420900921\C,-0.4930111805,-0.0760901746,0.0890299505\C,0.9218653699
 ,-0.1851716938,0.503643754\C,1.9427965484,-0.0768821503,-0.3516116579\
 H,-2.4054525637,-0.7893741102,-0.4209286412\H,-1.1028817623,-2.0697678
 352,-0.0554124362\F,-0.9121311298,1.2736261158,-0.0329650545\H,1.10423
 01301,-0.3309296718,1.5662479413\H,1.7814450937,0.0813756144,-1.413752
 7584\H,2.9711232997,-0.1424336252,-0.0117560055\\Version=ES64L-G09RevD
 .01\State=1-A\HF=-255.0923717\RMSD=6.353e-09\RMSF=2.440e-04\Dipole=0.4
 826027,-0.7844557,0.0556528\Quadrupole=2.3045436,-2.5024627,0.197919,1
 .7233471,0.3536405,-0.2690772\PG=C01 [X(C4H5F1)]\\@


 REFRAIN FROM ILLUSIONS, INSIST ON WORK AND NOT WORDS,
 PATIENTLY SEEK DIVINE AND SCIENTIFIC TRUTH.
 LAST WORDS OF MARIA MENDELEEVA TO HER SON DMITRI, C. 1850
 Job cpu time:       0 days  0 hours  2 minutes  3.4 seconds.
 File lengths (MBytes):  RWF=      5 Int=      0 D2E=      0 Chk=      2 Scr=      1
 Normal termination of Gaussian 09 at Wed May 12 11:56:25 2021.
