 Entering Gaussian System, Link 0=/opt/cluster/programs/g09_d.01/g09//g09
 Input=/home/unibas/boittier/RDKit_G2/L.pdb/SCAN_1_2_3_4_S_17_20.0/7_SCAN_1_2_3_4_F/7_SCAN_L.pdb.com
 Output=/scratch/boittier/7_SCAN_L.pdb/7_SCAN_L.pdb.out
 Initial command:
 /opt/cluster/programs/g09_d.01/g09/l1.exe "/scratch/boittier/7_SCAN_L.pdb/Gau-191816.inp" -scrdir="/scratch/boittier/7_SCAN_L.pdb/"
 Entering Link 1 = /opt/cluster/programs/g09_d.01/g09/l1.exe PID=    191817.
  
 Copyright (c) 1988,1990,1992,1993,1995,1998,2003,2009,2013,
            Gaussian, Inc.  All Rights Reserved.
  
 This is part of the Gaussian(R) 09 program.  It is based on
 the Gaussian(R) 03 system (copyright 2003, Gaussian, Inc.),
 the Gaussian(R) 98 system (copyright 1998, Gaussian, Inc.),
 the Gaussian(R) 94 system (copyright 1995, Gaussian, Inc.),
 the Gaussian 92(TM) system (copyright 1992, Gaussian, Inc.),
 the Gaussian 90(TM) system (copyright 1990, Gaussian, Inc.),
 the Gaussian 88(TM) system (copyright 1988, Gaussian, Inc.),
 the Gaussian 86(TM) system (copyright 1986, Carnegie Mellon
 University), and the Gaussian 82(TM) system (copyright 1983,
 Carnegie Mellon University). Gaussian is a federally registered
 trademark of Gaussian, Inc.
  
 This software contains proprietary and confidential information,
 including trade secrets, belonging to Gaussian, Inc.
  
 This software is provided under written license and may be
 used, copied, transmitted, or stored only in accord with that
 written license.
  
 The following legend is applicable only to US Government
 contracts under FAR:
  
                    RESTRICTED RIGHTS LEGEND
  
 Use, reproduction and disclosure by the US Government is
 subject to restrictions as set forth in subparagraphs (a)
 and (c) of the Commercial Computer Software - Restricted
 Rights clause in FAR 52.227-19.
  
 Gaussian, Inc.
 340 Quinnipiac St., Bldg. 40, Wallingford CT 06492
  
  
 ---------------------------------------------------------------
 Warning -- This program may not be used in any manner that
 competes with the business of Gaussian, Inc. or will provide
 assistance to any competitor of Gaussian, Inc.  The licensee
 of this program is prohibited from giving any competitor of
 Gaussian, Inc. access to this program.  By using this program,
 the user acknowledges that Gaussian, Inc. is engaged in the
 business of creating and licensing software in the field of
 computational chemistry and represents and warrants to the
 licensee that it is not a competitor of Gaussian, Inc. and that
 it will not use this program in any manner prohibited above.
 ---------------------------------------------------------------
  

 Cite this work as:
 Gaussian 09, Revision D.01,
 M. J. Frisch, G. W. Trucks, H. B. Schlegel, G. E. Scuseria, 
 M. A. Robb, J. R. Cheeseman, G. Scalmani, V. Barone, B. Mennucci, 
 G. A. Petersson, H. Nakatsuji, M. Caricato, X. Li, H. P. Hratchian, 
 A. F. Izmaylov, J. Bloino, G. Zheng, J. L. Sonnenberg, M. Hada, 
 M. Ehara, K. Toyota, R. Fukuda, J. Hasegawa, M. Ishida, T. Nakajima, 
 Y. Honda, O. Kitao, H. Nakai, T. Vreven, J. A. Montgomery, Jr., 
 J. E. Peralta, F. Ogliaro, M. Bearpark, J. J. Heyd, E. Brothers, 
 K. N. Kudin, V. N. Staroverov, T. Keith, R. Kobayashi, J. Normand, 
 K. Raghavachari, A. Rendell, J. C. Burant, S. S. Iyengar, J. Tomasi, 
 M. Cossi, N. Rega, J. M. Millam, M. Klene, J. E. Knox, J. B. Cross, 
 V. Bakken, C. Adamo, J. Jaramillo, R. Gomperts, R. E. Stratmann, 
 O. Yazyev, A. J. Austin, R. Cammi, C. Pomelli, J. W. Ochterski, 
 R. L. Martin, K. Morokuma, V. G. Zakrzewski, G. A. Voth, 
 P. Salvador, J. J. Dannenberg, S. Dapprich, A. D. Daniels, 
 O. Farkas, J. B. Foresman, J. V. Ortiz, J. Cioslowski, 
 and D. J. Fox, Gaussian, Inc., Wallingford CT, 2013.
 
 ******************************************
 Gaussian 09:  ES64L-G09RevD.01 24-Apr-2013
                12-May-2021 
 ******************************************
 %chk=/home/unibas/boittier/RDKit_G2/L.pdb/SCAN_1_2_3_4_S_17_20.0/7_SCAN_1_2_3_4_
 F/L.pdb.chk
 %nproc=8
 Will use up to    8 processors via shared memory.
 %mem=16GB
 -----------------------------
 #p wB97XD/6-31+G Opt=ModRedun
 -----------------------------
 1/14=-1,18=120,19=15,26=3,38=1/1,3;
 2/9=110,12=2,17=6,18=5,40=1/2;
 3/5=1,6=6,7=10,11=2,16=1,25=1,30=1,71=1,74=-58/1,2,3;
 4//1;
 5/5=2,38=5/2;
 6/7=2,8=2,9=2,10=2,28=1/1;
 7//1,2,3,16;
 1/14=-1,18=20,19=15,26=3/3(2);
 2/9=110/2;
 99//99;
 2/9=110/2;
 3/5=1,6=6,7=10,11=2,16=1,25=1,30=1,71=1,74=-58/1,2,3;
 4/5=5,16=3,69=1/1;
 5/5=2,38=5/2;
 7//1,2,3,16;
 1/14=-1,18=20,19=15,26=3/3(-5);
 2/9=110/2;
 6/7=2,8=2,9=2,10=2,19=2,28=1/1;
 99/9=1/99;
 Leave Link    1 at Wed May 12 11:58:23 2021, MaxMem=  2147483648 cpu:         0.2
 (Enter /opt/cluster/programs/g09_d.01/g09/l101.exe)
 -----
 L.pdb
 -----
 Symbolic Z-matrix:
 Charge =  0 Multiplicity = 1
 C                     1.51986   0.45014  -0.06564 
 C                     0.65771  -0.56348   0.12686 
 C                    -0.78988  -0.44237  -0.14202 
 O                    -1.47826   0.5593    0.12215 
 H                    -1.2736   -1.33699  -0.57145 
 H                     2.58917   0.32622   0.07492 
 H                     1.16908   1.43363  -0.36685 
 H                     1.01525  -1.56303   0.37098 
 
 The following ModRedundant input section has been read:
 D       1       2       3       4 F                                           
 
 NAtoms=      8 NQM=        8 NQMF=       0 NMMI=      0 NMMIF=      0
                NMic=       0 NMicF=      0.
                    Isotopes and Nuclear Properties:
 (Nuclear quadrupole moments (NQMom) in fm**2, nuclear magnetic moments (NMagM)
  in nuclear magnetons)

  Atom         1           2           3           4           5           6           7           8
 IAtWgt=          12          12          12          16           1           1           1           1
 AtmWgt=  12.0000000  12.0000000  12.0000000  15.9949146   1.0078250   1.0078250   1.0078250   1.0078250
 NucSpn=           0           0           0           0           1           1           1           1
 AtZEff=   0.0000000   0.0000000   0.0000000   0.0000000   0.0000000   0.0000000   0.0000000   0.0000000
 NQMom=    0.0000000   0.0000000   0.0000000   0.0000000   0.0000000   0.0000000   0.0000000   0.0000000
 NMagM=    0.0000000   0.0000000   0.0000000   0.0000000   2.7928460   2.7928460   2.7928460   2.7928460
 AtZNuc=   6.0000000   6.0000000   6.0000000   8.0000000   1.0000000   1.0000000   1.0000000   1.0000000
 Leave Link  101 at Wed May 12 11:58:24 2021, MaxMem=  2147483648 cpu:         4.1
 (Enter /opt/cluster/programs/g09_d.01/g09/l103.exe)

 GradGradGradGradGradGradGradGradGradGradGradGradGradGradGradGradGradGrad
 Berny optimization.
 Initialization pass.
                           ----------------------------
                           !    Initial Parameters    !
                           ! (Angstroms and Degrees)  !
 --------------------------                            --------------------------
 ! Name  Definition              Value          Derivative Info.                !
 --------------------------------------------------------------------------------
 ! R1    R(1,2)                  1.3445         estimate D2E/DX2                !
 ! R2    R(1,6)                  1.0856         estimate D2E/DX2                !
 ! R3    R(1,7)                  1.0867         estimate D2E/DX2                !
 ! R4    R(2,3)                  1.4773         estimate D2E/DX2                !
 ! R5    R(2,8)                  1.0893         estimate D2E/DX2                !
 ! R6    R(3,4)                  1.2438         estimate D2E/DX2                !
 ! R7    R(3,5)                  1.104          estimate D2E/DX2                !
 ! A1    A(2,1,6)              121.8037         estimate D2E/DX2                !
 ! A2    A(2,1,7)              120.9938         estimate D2E/DX2                !
 ! A3    A(6,1,7)              117.2021         estimate D2E/DX2                !
 ! A4    A(1,2,3)              122.7153         estimate D2E/DX2                !
 ! A5    A(1,2,8)              120.8895         estimate D2E/DX2                !
 ! A6    A(3,2,8)              115.9538         estimate D2E/DX2                !
 ! A7    A(2,3,4)              124.7278         estimate D2E/DX2                !
 ! A8    A(2,3,5)              115.7035         estimate D2E/DX2                !
 ! A9    A(4,3,5)              119.5208         estimate D2E/DX2                !
 ! D1    D(6,1,2,3)           -175.9522         estimate D2E/DX2                !
 ! D2    D(6,1,2,8)             -3.8873         estimate D2E/DX2                !
 ! D3    D(7,1,2,3)              4.2755         estimate D2E/DX2                !
 ! D4    D(7,1,2,8)            176.3404         estimate D2E/DX2                !
 ! D5    D(1,2,3,4)            -39.999          Frozen                          !
 ! D6    D(1,2,3,5)            142.5411         estimate D2E/DX2                !
 ! D7    D(8,2,3,4)            147.5722         estimate D2E/DX2                !
 ! D8    D(8,2,3,5)            -29.8877         estimate D2E/DX2                !
 --------------------------------------------------------------------------------
 Trust Radius=3.00D-01 FncErr=1.00D-07 GrdErr=1.00D-06
 Number of steps in this run=     34 maximum allowed number of steps=    100.
 GradGradGradGradGradGradGradGradGradGradGradGradGradGradGradGradGradGrad

 Leave Link  103 at Wed May 12 11:58:24 2021, MaxMem=  2147483648 cpu:         0.0
 (Enter /opt/cluster/programs/g09_d.01/g09/l202.exe)
                          Input orientation:                          
 ---------------------------------------------------------------------
 Center     Atomic      Atomic             Coordinates (Angstroms)
 Number     Number       Type             X           Y           Z
 ---------------------------------------------------------------------
      1          6           0        1.519864    0.450138   -0.065644
      2          6           0        0.657707   -0.563476    0.126858
      3          6           0       -0.789879   -0.442370   -0.142018
      4          8           0       -1.478256    0.559304    0.122152
      5          1           0       -1.273599   -1.336989   -0.571445
      6          1           0        2.589169    0.326216    0.074915
      7          1           0        1.169077    1.433625   -0.366847
      8          1           0        1.015253   -1.563028    0.370982
 ---------------------------------------------------------------------
                    Distance matrix (angstroms):
                    1          2          3          4          5
     1  C    0.000000
     2  C    1.344539   0.000000
     3  C    2.477361   1.477317   0.000000
     4  O    3.005979   2.413088   1.243784   0.000000
     5  H    3.354563   2.194514   1.103964   2.029504   0.000000
     6  H    1.085600   2.127157   3.472139   4.074372   4.254998
     7  H    1.086748   2.119825   2.721656   2.830535   3.699301
     8  H    2.120875   1.089284   2.185760   3.283869   2.485580
                    6          7          8
     6  H    0.000000
     7  H    1.854230   0.000000
     8  H    2.476714   3.089981   0.000000
 Stoichiometry    C3H4O
 Framework group  C1[X(C3H4O)]
 Deg. of freedom    18
 Full point group                 C1      NOp   1
 Largest Abelian subgroup         C1      NOp   1
 Largest concise Abelian subgroup C1      NOp   1
                         Standard orientation:                         
 ---------------------------------------------------------------------
 Center     Atomic      Atomic             Coordinates (Angstroms)
 Number     Number       Type             X           Y           Z
 ---------------------------------------------------------------------
      1          6           0        1.519864   -0.450138    0.065644
      2          6           0        0.657707    0.563476   -0.126858
      3          6           0       -0.789879    0.442370    0.142018
      4          8           0       -1.478256   -0.559304   -0.122152
      5          1           0       -1.273599    1.336989    0.571445
      6          1           0        2.589169   -0.326216   -0.074915
      7          1           0        1.169077   -1.433625    0.366847
      8          1           0        1.015253    1.563028   -0.370982
 ---------------------------------------------------------------------
 Rotational constants (GHZ):     23.7969890      5.7845127      4.7691336
 Leave Link  202 at Wed May 12 11:58:24 2021, MaxMem=  2147483648 cpu:         0.0
 (Enter /opt/cluster/programs/g09_d.01/g09/l301.exe)
 Standard basis: 6-31+G (6D, 7F)
 Ernie: Thresh=  0.10000D-02 Tol=  0.10000D-05 Strict=F.
 There are    60 symmetry adapted cartesian basis functions of A   symmetry.
 There are    60 symmetry adapted basis functions of A   symmetry.
    60 basis functions,   120 primitive gaussians,    60 cartesian basis functions
    15 alpha electrons       15 beta electrons
       nuclear repulsion energy       103.2638465868 Hartrees.
 IExCor= 4639 DFT=T Ex+Corr=wB97XD ExCW=0 ScaHFX=  1.000000
 ScaDFX=  1.000000  1.000000  1.000000  1.000000 ScalE2=  1.000000  1.000000
 IRadAn=      0 IRanWt=     -1 IRanGd=            0 ICorTp=0 IEmpDi=121
  HFx wShort=  0.000000 wLong=  0.200000 cFull=  0.222036 cShort=  0.000000 cLong=  0.777964
  DFx wShort=  0.000000 wLong=  0.200000 cFull=  0.000000 cShort=  0.000000 cLong=  1.000000
 NAtoms=    8 NActive=    8 NUniq=    8 SFac= 1.00D+00 NAtFMM=   60 NAOKFM=F Big=F
 Integral buffers will be    131072 words long.
 Raffenetti 2 integral format.
 Two-electron integral symmetry is turned on.
 R6Disp:  Grimme-D2 Dispersion energy=       -0.0017934934 Hartrees.
 Nuclear repulsion after empirical dispersion term =      103.2620530934 Hartrees.
 Leave Link  301 at Wed May 12 11:58:24 2021, MaxMem=  2147483648 cpu:         0.3
 (Enter /opt/cluster/programs/g09_d.01/g09/l302.exe)
 NPDir=0 NMtPBC=     1 NCelOv=     1 NCel=       1 NClECP=     1 NCelD=      1
         NCelK=      1 NCelE2=     1 NClLst=     1 CellRange=     0.0.
 One-electron integrals computed using PRISM.
 NBasis=    60 RedAO= T EigKep=  1.39D-04  NBF=    60
 NBsUse=    60 1.00D-06 EigRej= -1.00D+00 NBFU=    60
 Precomputing XC quadrature grid using
 IXCGrd= 4 IRadAn=           0 IRanWt=          -1 IRanGd=           0 AccXCQ= 0.00D+00.
 Generated NRdTot=       0 NPtTot=           0 NUsed=           0 NTot=          32
 NSgBfM=    60    60    60    60    60 MxSgAt=     8 MxSgA2=     8.
 Leave Link  302 at Wed May 12 11:58:24 2021, MaxMem=  2147483648 cpu:         0.8
 (Enter /opt/cluster/programs/g09_d.01/g09/l303.exe)
 DipDrv:  MaxL=1.
 Leave Link  303 at Wed May 12 11:58:24 2021, MaxMem=  2147483648 cpu:         0.2
 (Enter /opt/cluster/programs/g09_d.01/g09/l401.exe)
 ExpMin= 4.38D-02 ExpMax= 5.48D+03 ExpMxC= 8.25D+02 IAcc=2 IRadAn=         4 AccDes= 0.00D+00
 Harris functional with IExCor= 4639 and IRadAn=       4 diagonalized for initial guess.
 HarFok:  IExCor= 4639 AccDes= 0.00D+00 IRadAn=         4 IDoV= 1 UseB2=F ITyADJ=14
 ICtDFT=  3500011 ScaDFX=  1.000000  1.000000  1.000000  1.000000
 FoFCou: FMM=F IPFlag=           0 FMFlag=      100000 FMFlg1=           0
         NFxFlg=           0 DoJE=T BraDBF=F KetDBF=T FulRan=T
         wScrn=  0.000000 ICntrl=     500 IOpCl=  0 I1Cent=   200000004 NGrid=           0
         NMat0=    1 NMatS0=      1 NMatT0=    0 NMatD0=    1 NMtDS0=    0 NMtDT0=    0
 Petite list used in FoFCou.
 Harris En= -183.745275130619    
 JPrj=0 DoOrth=F DoCkMO=F.
 Leave Link  401 at Wed May 12 11:58:25 2021, MaxMem=  2147483648 cpu:         1.0
 (Enter /opt/cluster/programs/g09_d.01/g09/l502.exe)
 Closed shell SCF:
 Using DIIS extrapolation, IDIIS=  1040.
 Integral symmetry usage will be decided dynamically.
 Keep R1 ints in memory in canonical form, NReq=4262490.
 IVT=       30290 IEndB=       30290 NGot=  2147483648 MDV=  2144102629
 LenX=  2144102629 LenY=  2144098588
 Requested convergence on RMS density matrix=1.00D-08 within 128 cycles.
 Requested convergence on MAX density matrix=1.00D-06.
 Requested convergence on             energy=1.00D-06.
 No special actions if energy rises.
 FoFCou: FMM=F IPFlag=           0 FMFlag=           0 FMFlg1=           0
         NFxFlg=           0 DoJE=F BraDBF=F KetDBF=F FulRan=T
         wScrn=  0.000000 ICntrl=     600 IOpCl=  0 I1Cent=           0 NGrid=           0
         NMat0=    1 NMatS0=   1830 NMatT0=    0 NMatD0=    1 NMtDS0=    0 NMtDT0=    0
 Symmetry not used in FoFCou.

 Cycle   1  Pass 1  IDiag  1:
 E= -191.750859856946    
 DIIS: error= 2.86D-02 at cycle   1 NSaved=   1.
 NSaved= 1 IEnMin= 1 EnMin= -191.750859856946     IErMin= 1 ErrMin= 2.86D-02
 ErrMax= 2.86D-02  0.00D+00 EMaxC= 1.00D-01 BMatC= 7.24D-02 BMatP= 7.24D-02
 IDIUse=3 WtCom= 7.14D-01 WtEn= 2.86D-01
 Coeff-Com:  0.100D+01
 Coeff-En:   0.100D+01
 Coeff:      0.100D+01
 Gap=     0.400 Goal=   None    Shift=    0.000
 GapD=    0.400 DampG=2.000 DampE=0.500 DampFc=1.0000 IDamp=-1.
 RMSDP=1.44D-02 MaxDP=2.56D-01              OVMax= 9.49D-02

 Cycle   2  Pass 1  IDiag  1:
 E= -191.760727400344     Delta-E=       -0.009867543398 Rises=F Damp=F
 DIIS: error= 2.10D-02 at cycle   2 NSaved=   2.
 NSaved= 2 IEnMin= 2 EnMin= -191.760727400344     IErMin= 2 ErrMin= 2.10D-02
 ErrMax= 2.10D-02  0.00D+00 EMaxC= 1.00D-01 BMatC= 3.54D-02 BMatP= 7.24D-02
 IDIUse=3 WtCom= 7.90D-01 WtEn= 2.10D-01
 Coeff-Com:  0.392D+00 0.608D+00
 Coeff-En:   0.408D+00 0.592D+00
 Coeff:      0.395D+00 0.605D+00
 Gap=     0.389 Goal=   None    Shift=    0.000
 RMSDP=4.21D-03 MaxDP=5.98D-02 DE=-9.87D-03 OVMax= 8.47D-02

 Cycle   3  Pass 1  IDiag  1:
 E= -191.783924006011     Delta-E=       -0.023196605667 Rises=F Damp=F
 DIIS: error= 9.60D-03 at cycle   3 NSaved=   3.
 NSaved= 3 IEnMin= 3 EnMin= -191.783924006011     IErMin= 3 ErrMin= 9.60D-03
 ErrMax= 9.60D-03  0.00D+00 EMaxC= 1.00D-01 BMatC= 7.70D-03 BMatP= 3.54D-02
 IDIUse=3 WtCom= 9.04D-01 WtEn= 9.60D-02
 Coeff-Com:  0.587D-01 0.323D+00 0.619D+00
 Coeff-En:   0.000D+00 0.142D+00 0.858D+00
 Coeff:      0.530D-01 0.305D+00 0.642D+00
 Gap=     0.346 Goal=   None    Shift=    0.000
 RMSDP=2.37D-03 MaxDP=2.89D-02 DE=-2.32D-02 OVMax= 2.65D-02

 Cycle   4  Pass 1  IDiag  1:
 E= -191.789231459747     Delta-E=       -0.005307453736 Rises=F Damp=F
 DIIS: error= 3.25D-03 at cycle   4 NSaved=   4.
 NSaved= 4 IEnMin= 4 EnMin= -191.789231459747     IErMin= 4 ErrMin= 3.25D-03
 ErrMax= 3.25D-03  0.00D+00 EMaxC= 1.00D-01 BMatC= 8.23D-04 BMatP= 7.70D-03
 IDIUse=3 WtCom= 9.67D-01 WtEn= 3.25D-02
 Coeff-Com: -0.486D-02 0.922D-01 0.331D+00 0.582D+00
 Coeff-En:   0.000D+00 0.000D+00 0.472D-01 0.953D+00
 Coeff:     -0.470D-02 0.892D-01 0.322D+00 0.594D+00
 Gap=     0.344 Goal=   None    Shift=    0.000
 RMSDP=6.50D-04 MaxDP=7.08D-03 DE=-5.31D-03 OVMax= 7.78D-03

 Cycle   5  Pass 1  IDiag  1:
 E= -191.789925532411     Delta-E=       -0.000694072664 Rises=F Damp=F
 DIIS: error= 6.94D-04 at cycle   5 NSaved=   5.
 NSaved= 5 IEnMin= 5 EnMin= -191.789925532411     IErMin= 5 ErrMin= 6.94D-04
 ErrMax= 6.94D-04  0.00D+00 EMaxC= 1.00D-01 BMatC= 2.03D-05 BMatP= 8.23D-04
 IDIUse=3 WtCom= 9.93D-01 WtEn= 6.94D-03
 Coeff-Com: -0.449D-02 0.194D-01 0.979D-01 0.231D+00 0.657D+00
 Coeff-En:   0.000D+00 0.000D+00 0.000D+00 0.000D+00 0.100D+01
 Coeff:     -0.446D-02 0.192D-01 0.972D-01 0.229D+00 0.659D+00
 Gap=     0.343 Goal=   None    Shift=    0.000
 RMSDP=2.53D-04 MaxDP=3.45D-03 DE=-6.94D-04 OVMax= 2.38D-03

 Cycle   6  Pass 1  IDiag  1:
 E= -191.789948091678     Delta-E=       -0.000022559267 Rises=F Damp=F
 DIIS: error= 2.31D-04 at cycle   6 NSaved=   6.
 NSaved= 6 IEnMin= 6 EnMin= -191.789948091678     IErMin= 6 ErrMin= 2.31D-04
 ErrMax= 2.31D-04  0.00D+00 EMaxC= 1.00D-01 BMatC= 1.90D-06 BMatP= 2.03D-05
 IDIUse=3 WtCom= 9.98D-01 WtEn= 2.31D-03
 Coeff-Com: -0.104D-03-0.121D-01-0.320D-01-0.423D-01 0.189D+00 0.898D+00
 Coeff-En:   0.000D+00 0.000D+00 0.000D+00 0.000D+00 0.000D+00 0.100D+01
 Coeff:     -0.104D-03-0.121D-01-0.320D-01-0.422D-01 0.188D+00 0.898D+00
 Gap=     0.344 Goal=   None    Shift=    0.000
 RMSDP=1.88D-04 MaxDP=2.73D-03 DE=-2.26D-05 OVMax= 1.24D-03

 Cycle   7  Pass 1  IDiag  1:
 E= -191.789951465200     Delta-E=       -0.000003373522 Rises=F Damp=F
 DIIS: error= 3.62D-05 at cycle   7 NSaved=   7.
 NSaved= 7 IEnMin= 7 EnMin= -191.789951465200     IErMin= 7 ErrMin= 3.62D-05
 ErrMax= 3.62D-05  0.00D+00 EMaxC= 1.00D-01 BMatC= 1.09D-07 BMatP= 1.90D-06
 IDIUse=1 WtCom= 1.00D+00 WtEn= 0.00D+00
 Coeff-Com:  0.330D-03-0.458D-02-0.164D-01-0.272D-01 0.595D-02 0.234D+00
 Coeff-Com:  0.808D+00
 Coeff:      0.330D-03-0.458D-02-0.164D-01-0.272D-01 0.595D-02 0.234D+00
 Coeff:      0.808D+00
 Gap=     0.344 Goal=   None    Shift=    0.000
 RMSDP=3.76D-05 MaxDP=5.13D-04 DE=-3.37D-06 OVMax= 2.41D-04

 Cycle   8  Pass 1  IDiag  1:
 E= -191.789951720313     Delta-E=       -0.000000255113 Rises=F Damp=F
 DIIS: error= 1.37D-05 at cycle   8 NSaved=   8.
 NSaved= 8 IEnMin= 8 EnMin= -191.789951720313     IErMin= 8 ErrMin= 1.37D-05
 ErrMax= 1.37D-05  0.00D+00 EMaxC= 1.00D-01 BMatC= 1.02D-08 BMatP= 1.09D-07
 IDIUse=1 WtCom= 1.00D+00 WtEn= 0.00D+00
 Coeff-Com:  0.529D-05 0.141D-02 0.284D-02 0.378D-02-0.239D-01-0.107D+00
 Coeff-Com:  0.385D-01 0.108D+01
 Coeff:      0.529D-05 0.141D-02 0.284D-02 0.378D-02-0.239D-01-0.107D+00
 Coeff:      0.385D-01 0.108D+01
 Gap=     0.344 Goal=   None    Shift=    0.000
 RMSDP=1.43D-05 MaxDP=1.64D-04 DE=-2.55D-07 OVMax= 1.65D-04

 Cycle   9  Pass 1  IDiag  1:
 E= -191.789951765206     Delta-E=       -0.000000044893 Rises=F Damp=F
 DIIS: error= 6.25D-06 at cycle   9 NSaved=   9.
 NSaved= 9 IEnMin= 9 EnMin= -191.789951765206     IErMin= 9 ErrMin= 6.25D-06
 ErrMax= 6.25D-06  0.00D+00 EMaxC= 1.00D-01 BMatC= 7.41D-10 BMatP= 1.02D-08
 IDIUse=1 WtCom= 1.00D+00 WtEn= 0.00D+00
 Coeff-Com: -0.241D-04 0.231D-03 0.923D-03 0.167D-02 0.463D-02-0.582D-02
 Coeff-Com: -0.724D-01-0.137D+00 0.121D+01
 Coeff:     -0.241D-04 0.231D-03 0.923D-03 0.167D-02 0.463D-02-0.582D-02
 Coeff:     -0.724D-01-0.137D+00 0.121D+01
 Gap=     0.344 Goal=   None    Shift=    0.000
 RMSDP=3.77D-06 MaxDP=3.98D-05 DE=-4.49D-08 OVMax= 7.75D-05

 Cycle  10  Pass 1  IDiag  1:
 E= -191.789951770529     Delta-E=       -0.000000005322 Rises=F Damp=F
 DIIS: error= 2.73D-06 at cycle  10 NSaved=  10.
 NSaved=10 IEnMin=10 EnMin= -191.789951770529     IErMin=10 ErrMin= 2.73D-06
 ErrMax= 2.73D-06  0.00D+00 EMaxC= 1.00D-01 BMatC= 8.94D-11 BMatP= 7.41D-10
 IDIUse=1 WtCom= 1.00D+00 WtEn= 0.00D+00
 Coeff-Com:  0.961D-05-0.200D-03-0.628D-03-0.947D-03 0.215D-03 0.108D-01
 Coeff-Com:  0.278D-01-0.281D-01-0.525D+00 0.152D+01
 Coeff:      0.961D-05-0.200D-03-0.628D-03-0.947D-03 0.215D-03 0.108D-01
 Coeff:      0.278D-01-0.281D-01-0.525D+00 0.152D+01
 Gap=     0.344 Goal=   None    Shift=    0.000
 RMSDP=1.79D-06 MaxDP=2.37D-05 DE=-5.32D-09 OVMax= 4.18D-05

 Cycle  11  Pass 1  IDiag  1:
 E= -191.789951771486     Delta-E=       -0.000000000958 Rises=F Damp=F
 DIIS: error= 8.01D-07 at cycle  11 NSaved=  11.
 NSaved=11 IEnMin=11 EnMin= -191.789951771486     IErMin=11 ErrMin= 8.01D-07
 ErrMax= 8.01D-07  0.00D+00 EMaxC= 1.00D-01 BMatC= 9.38D-12 BMatP= 8.94D-11
 IDIUse=1 WtCom= 1.00D+00 WtEn= 0.00D+00
 Coeff-Com: -0.174D-05 0.525D-04 0.169D-03 0.197D-03-0.659D-03-0.421D-02
 Coeff-Com: -0.355D-02 0.250D-01 0.785D-01-0.616D+00 0.152D+01
 Coeff:     -0.174D-05 0.525D-04 0.169D-03 0.197D-03-0.659D-03-0.421D-02
 Coeff:     -0.355D-02 0.250D-01 0.785D-01-0.616D+00 0.152D+01
 Gap=     0.344 Goal=   None    Shift=    0.000
 RMSDP=4.24D-07 MaxDP=3.47D-06 DE=-9.58D-10 OVMax= 1.57D-05

 Cycle  12  Pass 1  IDiag  1:
 E= -191.789951771579     Delta-E=       -0.000000000092 Rises=F Damp=F
 DIIS: error= 8.80D-08 at cycle  12 NSaved=  12.
 NSaved=12 IEnMin=12 EnMin= -191.789951771579     IErMin=12 ErrMin= 8.80D-08
 ErrMax= 8.80D-08  0.00D+00 EMaxC= 1.00D-01 BMatC= 4.35D-13 BMatP= 9.38D-12
 IDIUse=1 WtCom= 1.00D+00 WtEn= 0.00D+00
 Coeff-Com: -0.180D-06 0.932D-06 0.927D-05 0.228D-04 0.836D-04 0.366D-03
 Coeff-Com: -0.939D-03-0.320D-02 0.145D-01 0.421D-01-0.310D+00 0.126D+01
 Coeff:     -0.180D-06 0.932D-06 0.927D-05 0.228D-04 0.836D-04 0.366D-03
 Coeff:     -0.939D-03-0.320D-02 0.145D-01 0.421D-01-0.310D+00 0.126D+01
 Gap=     0.344 Goal=   None    Shift=    0.000
 RMSDP=8.31D-08 MaxDP=8.23D-07 DE=-9.23D-11 OVMax= 1.49D-06

 Cycle  13  Pass 1  IDiag  1:
 E= -191.789951771582     Delta-E=       -0.000000000003 Rises=F Damp=F
 DIIS: error= 1.55D-08 at cycle  13 NSaved=  13.
 NSaved=13 IEnMin=13 EnMin= -191.789951771582     IErMin=13 ErrMin= 1.55D-08
 ErrMax= 1.55D-08  0.00D+00 EMaxC= 1.00D-01 BMatC= 1.03D-14 BMatP= 4.35D-13
 IDIUse=1 WtCom= 1.00D+00 WtEn= 0.00D+00
 Coeff-Com:  0.715D-07-0.157D-05-0.580D-05-0.756D-05-0.210D-05 0.790D-04
 Coeff-Com:  0.239D-03-0.274D-03-0.448D-02 0.119D-01 0.228D-02-0.230D+00
 Coeff-Com:  0.122D+01
 Coeff:      0.715D-07-0.157D-05-0.580D-05-0.756D-05-0.210D-05 0.790D-04
 Coeff:      0.239D-03-0.274D-03-0.448D-02 0.119D-01 0.228D-02-0.230D+00
 Coeff:      0.122D+01
 Gap=     0.344 Goal=   None    Shift=    0.000
 RMSDP=1.24D-08 MaxDP=9.01D-08 DE=-3.07D-12 OVMax= 1.70D-07

 Cycle  14  Pass 1  IDiag  1:
 E= -191.789951771581     Delta-E=        0.000000000001 Rises=F Damp=F
 DIIS: error= 1.91D-09 at cycle  14 NSaved=  14.
 NSaved=14 IEnMin=13 EnMin= -191.789951771582     IErMin=14 ErrMin= 1.91D-09
 ErrMax= 1.91D-09  0.00D+00 EMaxC= 1.00D-01 BMatC= 2.34D-16 BMatP= 1.03D-14
 IDIUse=1 WtCom= 1.00D+00 WtEn= 0.00D+00
 Coeff-Com: -0.872D-08 0.220D-06 0.677D-06 0.441D-06-0.411D-05-0.235D-04
 Coeff-Com: -0.239D-04 0.148D-03 0.317D-03-0.340D-02 0.101D-01-0.259D-02
 Coeff-Com: -0.184D+00 0.118D+01
 Coeff:     -0.872D-08 0.220D-06 0.677D-06 0.441D-06-0.411D-05-0.235D-04
 Coeff:     -0.239D-04 0.148D-03 0.317D-03-0.340D-02 0.101D-01-0.259D-02
 Coeff:     -0.184D+00 0.118D+01
 Gap=     0.344 Goal=   None    Shift=    0.000
 RMSDP=1.65D-09 MaxDP=1.77D-08 DE= 7.96D-13 OVMax= 1.56D-08

 SCF Done:  E(RwB97XD) =  -191.789951772     A.U. after   14 cycles
            NFock= 14  Conv=0.16D-08     -V/T= 2.0061
 KE= 1.906338773652D+02 PE=-6.539694566876D+02 EE= 1.682835744573D+02
 Leave Link  502 at Wed May 12 11:58:26 2021, MaxMem=  2147483648 cpu:         9.3
 (Enter /opt/cluster/programs/g09_d.01/g09/l601.exe)
 Copying SCF densities to generalized density rwf, IOpCl= 0 IROHF=0.

 **********************************************************************

            Population analysis using the SCF density.

 **********************************************************************

 Orbital symmetries:
       Occupied  (A) (A) (A) (A) (A) (A) (A) (A) (A) (A) (A) (A)
                 (A) (A) (A)
       Virtual   (A) (A) (A) (A) (A) (A) (A) (A) (A) (A) (A) (A)
                 (A) (A) (A) (A) (A) (A) (A) (A) (A) (A) (A) (A)
                 (A) (A) (A) (A) (A) (A) (A) (A) (A) (A) (A) (A)
                 (A) (A) (A) (A) (A) (A) (A) (A) (A)
 The electronic state is 1-A.
 Alpha  occ. eigenvalues --  -19.28933 -10.40731 -10.33277 -10.33137  -1.16741
 Alpha  occ. eigenvalues --   -0.91037  -0.77055  -0.65390  -0.61305  -0.54615
 Alpha  occ. eigenvalues --   -0.53271  -0.48661  -0.47620  -0.37746  -0.35255
 Alpha virt. eigenvalues --   -0.00880   0.06659   0.07995   0.08772   0.10032
 Alpha virt. eigenvalues --    0.11415   0.12556   0.13381   0.14853   0.16241
 Alpha virt. eigenvalues --    0.17545   0.17666   0.20089   0.22327   0.26351
 Alpha virt. eigenvalues --    0.28163   0.30380   0.31823   0.32554   0.35360
 Alpha virt. eigenvalues --    0.37113   0.37773   0.42246   0.46030   0.52242
 Alpha virt. eigenvalues --    0.70831   0.72638   0.76595   0.78115   0.80655
 Alpha virt. eigenvalues --    0.83381   0.88751   0.96413   1.01982   1.04691
 Alpha virt. eigenvalues --    1.10920   1.13137   1.17870   1.23561   1.27661
 Alpha virt. eigenvalues --    1.31558   1.36638   1.38668   1.43252   1.89470
          Condensed to atoms (all electrons):
               1          2          3          4          5          6
     1  C    5.305463   0.269778   0.020391   0.044827   0.033190   0.364681
     2  C    0.269778   5.733386   0.135932  -0.195702  -0.132983  -0.025797
     3  C    0.020391   0.135932   5.090153   0.317414   0.358437   0.009179
     4  O    0.044827  -0.195702   0.317414   8.312550  -0.063992   0.000356
     5  H    0.033190  -0.132983   0.358437  -0.063992   0.623969  -0.000089
     6  H    0.364681  -0.025797   0.009179   0.000356  -0.000089   0.472580
     7  H    0.397186  -0.057968   0.004397   0.000800   0.000126  -0.022524
     8  H    0.017632   0.308021  -0.015096   0.005136   0.001693  -0.003464
               7          8
     1  C    0.397186   0.017632
     2  C   -0.057968   0.308021
     3  C    0.004397  -0.015096
     4  O    0.000800   0.005136
     5  H    0.000126   0.001693
     6  H   -0.022524  -0.003464
     7  H    0.447874   0.002481
     8  H    0.002481   0.465938
 Mulliken charges:
               1
     1  C   -0.453148
     2  C   -0.034667
     3  C    0.079192
     4  O   -0.421389
     5  H    0.179648
     6  H    0.205078
     7  H    0.227628
     8  H    0.217658
 Sum of Mulliken charges =   0.00000
 Mulliken charges with hydrogens summed into heavy atoms:
               1
     1  C   -0.020442
     2  C    0.182991
     3  C    0.258840
     4  O   -0.421389
 Electronic spatial extent (au):  <R**2>=            277.6856
 Charge=              0.0000 electrons
 Dipole moment (field-independent basis, Debye):
    X=              2.6230    Y=              1.9887    Z=              0.6222  Tot=              3.3500
 Quadrupole moment (field-independent basis, Debye-Ang):
   XX=            -25.2899   YY=            -22.5278   ZZ=            -25.1854
   XY=             -3.5883   XZ=             -1.0055   YZ=             -0.9289
 Traceless Quadrupole moment (field-independent basis, Debye-Ang):
   XX=             -0.9555   YY=              1.8066   ZZ=             -0.8510
   XY=             -3.5883   XZ=             -1.0055   YZ=             -0.9289
 Octapole moment (field-independent basis, Debye-Ang**2):
  XXX=             10.0850  YYY=              0.3314  ZZZ=             -0.0761  XYY=              0.8150
  XXY=              3.2376  XXZ=             -0.0041  XZZ=             -3.6866  YZZ=             -0.4465
  YYZ=              0.5790  XYZ=             -1.0292
 Hexadecapole moment (field-independent basis, Debye-Ang**3):
 XXXX=           -243.7863 YYYY=            -78.4755 ZZZZ=            -31.8898 XXXY=             -7.3142
 XXXZ=             -2.7278 YYYX=              0.0629 YYYZ=             -2.2345 ZZZX=              0.1861
 ZZZY=             -0.3575 XXYY=            -54.6627 XXZZ=            -48.9368 YYZZ=            -19.3356
 XXYZ=             -0.8341 YYXZ=             -1.0510 ZZXY=              0.1979
 N-N= 1.032620530934D+02 E-N=-6.539694566908D+02  KE= 1.906338773652D+02
 No NMR shielding tensors so no spin-rotation constants.
 Leave Link  601 at Wed May 12 11:58:26 2021, MaxMem=  2147483648 cpu:         0.6
 (Enter /opt/cluster/programs/g09_d.01/g09/l701.exe)
 Compute integral first derivatives.
 ... and contract with generalized density number  0.
 R6Disp: Adding Grimme-D2 dispersion energy 1st derivatives to the gradient.
 Leave Link  701 at Wed May 12 11:58:26 2021, MaxMem=  2147483648 cpu:         0.6
 (Enter /opt/cluster/programs/g09_d.01/g09/l702.exe)
 L702 exits ... SP integral derivatives will be done elsewhere.
 Leave Link  702 at Wed May 12 11:58:26 2021, MaxMem=  2147483648 cpu:         0.2
 (Enter /opt/cluster/programs/g09_d.01/g09/l703.exe)
 Compute integral first derivatives, UseDBF=F ICtDFT=           0.
 Integral derivatives from FoFJK, PRISM(SPDF).
 Calling FoFJK, ICntrl=      2127 FMM=F ISym2X=0 I1Cent= 0 IOpClX= 0 NMat=1 NMatS=1 NMatT=0.
 FoFJK:  IHMeth= 1 ICntrl=    2127 DoSepK=T KAlg= 0 I1Cent=   0 FoldK=F
 IRaf=         1 NMat=   1 IRICut=       1 DoRegI=T DoRafI=F ISym2E= 0.
 FoFCou: FMM=F IPFlag=           0 FMFlag=      100000 FMFlg1=         800
         NFxFlg=           0 DoJE=F BraDBF=F KetDBF=F FulRan=T
         wScrn=  0.000000 ICntrl=    2527 IOpCl=  0 I1Cent=           0 NGrid=           0
         NMat0=    1 NMatS0=      1 NMatT0=    0 NMatD0=    1 NMtDS0=    0 NMtDT0=    0
 Symmetry not used in FoFCou.
 Leave Link  703 at Wed May 12 11:58:26 2021, MaxMem=  2147483648 cpu:         2.5
 (Enter /opt/cluster/programs/g09_d.01/g09/l716.exe)
 Dipole        = 1.03196775D+00 7.82430360D-01 2.44807822D-01
 ***** Axes restored to original set *****
 -------------------------------------------------------------------
 Center     Atomic                   Forces (Hartrees/Bohr)
 Number     Number              X              Y              Z
 -------------------------------------------------------------------
      1        6          -0.004301174   -0.002079776    0.004769988
      2        6           0.004892278    0.002253838   -0.009273832
      3        6          -0.006812821    0.003734861    0.009890519
      4        8           0.006956218   -0.005695301   -0.006240919
      5        1           0.000544170    0.001709964    0.000484586
      6        1          -0.000733479   -0.000441899    0.000044924
      7        1          -0.000352639   -0.000352435    0.000118458
      8        1          -0.000192552    0.000870748    0.000206276
 -------------------------------------------------------------------
 Cartesian Forces:  Max     0.009890519 RMS     0.004300425
 Leave Link  716 at Wed May 12 11:58:26 2021, MaxMem=  2147483648 cpu:         0.2
 (Enter /opt/cluster/programs/g09_d.01/g09/l103.exe)

 GradGradGradGradGradGradGradGradGradGradGradGradGradGradGradGradGradGrad
 Berny optimization.
 FormGI is forming the generalized inverse of G from B-inverse, IUseBI=4.
 Internal  Forces:  Max     0.009767557 RMS     0.002933055
 Search for a local minimum.
 Step number   1 out of a maximum of   34
 All quantities printed in internal units (Hartrees-Bohrs-Radians)
 RMS Force = .25460D-02 SwitMx=.10000D-02 MixMth= 1
 Mixed Optimization -- RFO/linear search
 Second derivative matrix not updated -- first step.
 ITU=  0
     Eigenvalues ---    0.01070   0.01837   0.02822   0.02822   0.15909
     Eigenvalues ---    0.16000   0.16000   0.16000   0.22003   0.22021
     Eigenvalues ---    0.33248   0.34879   0.34895   0.35191   0.35326
     Eigenvalues ---    0.56200   0.855761000.000001000.000001000.00000
     Eigenvalues --- 1000.000001000.000001000.000001000.00000
 RFO step:  Lambda=-2.47463204D-04 EMin= 1.07004460D-02
 Linear search not attempted -- first point.
 Iteration  1 RMS(Cart)=  0.01193772 RMS(Int)=  0.00006261
 Iteration  2 RMS(Cart)=  0.00006459 RMS(Int)=  0.00001079
 Iteration  3 RMS(Cart)=  0.00000000 RMS(Int)=  0.00001079
 Iteration  1 RMS(Cart)=  0.00000026 RMS(Int)=  0.00000022
 ITry= 1 IFail=0 DXMaxC= 2.96D-02 DCOld= 1.00D+10 DXMaxT= 3.00D-01 DXLimC= 3.00D+00 Rises=F
 Variable       Old X    -DE/DX   Delta X   Delta X   Delta X     New X
                                 (Linear)    (Quad)   (Total)
    R1        2.54081  -0.00632   0.00000  -0.01124  -0.01124   2.52957
    R2        2.05149  -0.00067   0.00000  -0.00189  -0.00189   2.04959
    R3        2.05366  -0.00023   0.00000  -0.00066  -0.00066   2.05300
    R4        2.79172  -0.00145   0.00000  -0.00416  -0.00416   2.78756
    R5        2.05845  -0.00082   0.00000  -0.00234  -0.00234   2.05611
    R6        2.35041  -0.00977   0.00000  -0.01141  -0.01141   2.33900
    R7        2.08619  -0.00181   0.00000  -0.00544  -0.00544   2.08075
    A1        2.12588  -0.00041   0.00000  -0.00258  -0.00258   2.12330
    A2        2.11174  -0.00026   0.00000  -0.00163  -0.00164   2.11010
    A3        2.04556   0.00067   0.00000   0.00421   0.00421   2.04977
    A4        2.14179  -0.00143   0.00000  -0.00658  -0.00659   2.13519
    A5        2.10992   0.00089   0.00000   0.00297   0.00296   2.11288
    A6        2.02378   0.00082   0.00000   0.00468   0.00467   2.02845
    A7        2.17691  -0.00127   0.00000  -0.00591  -0.00593   2.17098
    A8        2.01941   0.00107   0.00000   0.00535   0.00532   2.02473
    A9        2.08603   0.00039   0.00000   0.00109   0.00106   2.08709
    D1       -3.07095  -0.00128   0.00000  -0.00500  -0.00500  -3.07594
    D2       -0.06785   0.00128   0.00000   0.00495   0.00495  -0.06290
    D3        0.07462  -0.00125   0.00000  -0.00369  -0.00369   0.07093
    D4        3.07772   0.00132   0.00000   0.00625   0.00625   3.08397
    D5       -0.69811   0.00596   0.00000   0.00000   0.00000  -0.69811
    D6        2.48781   0.00103   0.00000  -0.01417  -0.01417   2.47364
    D7        2.57562   0.00350   0.00000  -0.00942  -0.00942   2.56620
    D8       -0.52164  -0.00143   0.00000  -0.02359  -0.02359  -0.54523
         Item               Value     Threshold  Converged?
 Maximum Force            0.009768     0.000450     NO 
 RMS     Force            0.002546     0.000300     NO 
 Maximum Displacement     0.029609     0.001800     NO 
 RMS     Displacement     0.011952     0.001200     NO 
 Predicted change in Energy=-1.238783D-04
 Lowest energy point so far.  Saving SCF results.
 GradGradGradGradGradGradGradGradGradGradGradGradGradGradGradGradGradGrad

 Leave Link  103 at Wed May 12 11:58:26 2021, MaxMem=  2147483648 cpu:         0.0
 (Enter /opt/cluster/programs/g09_d.01/g09/l202.exe)
                          Input orientation:                          
 ---------------------------------------------------------------------
 Center     Atomic      Atomic             Coordinates (Angstroms)
 Number     Number       Type             X           Y           Z
 ---------------------------------------------------------------------
      1          6           0        1.513243    0.446935   -0.067194
      2          6           0        0.659959   -0.565976    0.127079
      3          6           0       -0.785489   -0.442300   -0.140032
      4          8           0       -1.462588    0.558829    0.126979
      5          1           0       -1.272216   -1.325758   -0.581610
      6          1           0        2.581668    0.326448    0.075290
      7          1           0        1.155974    1.426979   -0.370732
      8          1           0        1.018784   -1.561736    0.379172
 ---------------------------------------------------------------------
                    Distance matrix (angstroms):
                    1          2          3          4          5
     1  C    0.000000
     2  C    1.338590   0.000000
     3  C    2.465808   1.475115   0.000000
     4  O    2.984257   2.402164   1.237746   0.000000
     5  H    3.341533   2.193812   1.101087   2.022376   0.000000
     6  H    1.084597   2.119450   3.460503   4.051256   4.244257
     7  H    1.086399   2.113225   2.704941   2.803260   3.676702
     8  H    2.116245   1.088046   2.185889   3.273775   2.495489
                    6          7          8
     6  H    0.000000
     7  H    1.855454   0.000000
     8  H    2.469857   3.084412   0.000000
 Stoichiometry    C3H4O
 Framework group  C1[X(C3H4O)]
 Deg. of freedom    18
 Full point group                 C1      NOp   1
 RotChk:  IX=0 Diff= 2.37D-03
 Largest Abelian subgroup         C1      NOp   1
 Largest concise Abelian subgroup C1      NOp   1
                         Standard orientation:                         
 ---------------------------------------------------------------------
 Center     Atomic      Atomic             Coordinates (Angstroms)
 Number     Number       Type             X           Y           Z
 ---------------------------------------------------------------------
      1          6           0        1.509004   -0.450120    0.067191
      2          6           0        0.656993    0.563972   -0.126508
      3          6           0       -0.788397    0.442395    0.141881
      4          8           0       -1.467151   -0.557813   -0.124374
      5          1           0       -1.273482    1.326618    0.583736
      6          1           0        2.577475   -0.331176   -0.076243
      7          1           0        1.150606   -1.429605    0.371201
      8          1           0        1.017013    1.559179   -0.379078
 ---------------------------------------------------------------------
 Rotational constants (GHZ):     23.8348526      5.8529987      4.8201364
 Leave Link  202 at Wed May 12 11:58:26 2021, MaxMem=  2147483648 cpu:         0.0
 (Enter /opt/cluster/programs/g09_d.01/g09/l301.exe)
 Standard basis: 6-31+G (6D, 7F)
 Ernie: Thresh=  0.10000D-02 Tol=  0.10000D-05 Strict=F.
 There are    60 symmetry adapted cartesian basis functions of A   symmetry.
 There are    60 symmetry adapted basis functions of A   symmetry.
    60 basis functions,   120 primitive gaussians,    60 cartesian basis functions
    15 alpha electrons       15 beta electrons
       nuclear repulsion energy       103.6661657991 Hartrees.
 IExCor= 4639 DFT=T Ex+Corr=wB97XD ExCW=0 ScaHFX=  1.000000
 ScaDFX=  1.000000  1.000000  1.000000  1.000000 ScalE2=  1.000000  1.000000
 IRadAn=      0 IRanWt=     -1 IRanGd=            0 ICorTp=0 IEmpDi=121
  HFx wShort=  0.000000 wLong=  0.200000 cFull=  0.222036 cShort=  0.000000 cLong=  0.777964
  DFx wShort=  0.000000 wLong=  0.200000 cFull=  0.000000 cShort=  0.000000 cLong=  1.000000
 NAtoms=    8 NActive=    8 NUniq=    8 SFac= 1.00D+00 NAtFMM=   60 NAOKFM=F Big=F
 Integral buffers will be    131072 words long.
 Raffenetti 2 integral format.
 Two-electron integral symmetry is turned on.
 R6Disp:  Grimme-D2 Dispersion energy=       -0.0017899399 Hartrees.
 Nuclear repulsion after empirical dispersion term =      103.6643758592 Hartrees.
 Leave Link  301 at Wed May 12 11:58:26 2021, MaxMem=  2147483648 cpu:         0.3
 (Enter /opt/cluster/programs/g09_d.01/g09/l302.exe)
 NPDir=0 NMtPBC=     1 NCelOv=     1 NCel=       1 NClECP=     1 NCelD=      1
         NCelK=      1 NCelE2=     1 NClLst=     1 CellRange=     0.0.
 One-electron integrals computed using PRISM.
 NBasis=    60 RedAO= T EigKep=  1.37D-04  NBF=    60
 NBsUse=    60 1.00D-06 EigRej= -1.00D+00 NBFU=    60
 Precomputing XC quadrature grid using
 IXCGrd= 4 IRadAn=           0 IRanWt=          -1 IRanGd=           0 AccXCQ= 0.00D+00.
 Generated NRdTot=       0 NPtTot=           0 NUsed=           0 NTot=          32
 NSgBfM=    60    60    60    60    60 MxSgAt=     8 MxSgA2=     8.
 Leave Link  302 at Wed May 12 11:58:27 2021, MaxMem=  2147483648 cpu:         0.8
 (Enter /opt/cluster/programs/g09_d.01/g09/l303.exe)
 DipDrv:  MaxL=1.
 Leave Link  303 at Wed May 12 11:58:27 2021, MaxMem=  2147483648 cpu:         0.2
 (Enter /opt/cluster/programs/g09_d.01/g09/l401.exe)
 Initial guess from the checkpoint file:  "/home/unibas/boittier/RDKit_G2/L.pdb/SCAN_1_2_3_4_S_17_20.0/7_SCAN_1_2_3_4_F/L.pdb.chk"
 B after Tr=     0.000000    0.000000    0.000000
         Rot=    1.000000   -0.000319    0.000407    0.000235 Ang=  -0.07 deg.
 Guess basis will be translated and rotated to current coordinates.
 JPrj=2 DoOrth=T DoCkMO=T.
 Generating alternative initial guess.
 ExpMin= 4.38D-02 ExpMax= 5.48D+03 ExpMxC= 8.25D+02 IAcc=2 IRadAn=         4 AccDes= 0.00D+00
 Harris functional with IExCor= 4639 and IRadAn=       4 diagonalized for initial guess.
 HarFok:  IExCor= 4639 AccDes= 0.00D+00 IRadAn=         4 IDoV= 1 UseB2=F ITyADJ=14
 ICtDFT=  3500011 ScaDFX=  1.000000  1.000000  1.000000  1.000000
 FoFCou: FMM=F IPFlag=           0 FMFlag=      100000 FMFlg1=           0
         NFxFlg=           0 DoJE=T BraDBF=F KetDBF=T FulRan=T
         wScrn=  0.000000 ICntrl=     500 IOpCl=  0 I1Cent=   200000004 NGrid=           0
         NMat0=    1 NMatS0=      1 NMatT0=    0 NMatD0=    1 NMtDS0=    0 NMtDT0=    0
 Petite list used in FoFCou.
 Harris En= -183.742782601760    
 Leave Link  401 at Wed May 12 11:58:27 2021, MaxMem=  2147483648 cpu:         1.4
 (Enter /opt/cluster/programs/g09_d.01/g09/l502.exe)
 Closed shell SCF:
 Using DIIS extrapolation, IDIIS=  1040.
 Integral symmetry usage will be decided dynamically.
 Keep R1 ints in memory in canonical form, NReq=4262490.
 IVT=       30290 IEndB=       30290 NGot=  2147483648 MDV=  2144102629
 LenX=  2144102629 LenY=  2144098588
 Requested convergence on RMS density matrix=1.00D-08 within 128 cycles.
 Requested convergence on MAX density matrix=1.00D-06.
 Requested convergence on             energy=1.00D-06.
 No special actions if energy rises.
 FoFCou: FMM=F IPFlag=           0 FMFlag=           0 FMFlg1=           0
         NFxFlg=           0 DoJE=F BraDBF=F KetDBF=F FulRan=T
         wScrn=  0.000000 ICntrl=     600 IOpCl=  0 I1Cent=           0 NGrid=           0
         NMat0=    1 NMatS0=   1830 NMatT0=    0 NMatD0=    1 NMtDS0=    0 NMtDT0=    0
 Symmetry not used in FoFCou.

 Cycle   1  Pass 1  IDiag  1:
 E= -191.789974222378    
 DIIS: error= 9.52D-04 at cycle   1 NSaved=   1.
 NSaved= 1 IEnMin= 1 EnMin= -191.789974222378     IErMin= 1 ErrMin= 9.52D-04
 ErrMax= 9.52D-04  0.00D+00 EMaxC= 1.00D-01 BMatC= 5.38D-05 BMatP= 5.38D-05
 IDIUse=3 WtCom= 9.90D-01 WtEn= 9.52D-03
 Coeff-Com:  0.100D+01
 Coeff-En:   0.100D+01
 Coeff:      0.100D+01
 Gap=     0.611 Goal=   None    Shift=    0.000
 RMSDP=3.19D-04 MaxDP=3.17D-03              OVMax= 2.52D-03

 Cycle   2  Pass 1  IDiag  1:
 E= -191.790061155306     Delta-E=       -0.000086932928 Rises=F Damp=F
 DIIS: error= 1.95D-04 at cycle   2 NSaved=   2.
 NSaved= 2 IEnMin= 2 EnMin= -191.790061155306     IErMin= 2 ErrMin= 1.95D-04
 ErrMax= 1.95D-04  0.00D+00 EMaxC= 1.00D-01 BMatC= 3.94D-06 BMatP= 5.38D-05
 IDIUse=3 WtCom= 9.98D-01 WtEn= 1.95D-03
 Coeff-Com:  0.803D-02 0.992D+00
 Coeff-En:   0.000D+00 0.100D+01
 Coeff:      0.801D-02 0.992D+00
 Gap=     0.345 Goal=   None    Shift=    0.000
 RMSDP=8.38D-05 MaxDP=9.00D-04 DE=-8.69D-05 OVMax= 1.24D-03

 Cycle   3  Pass 1  IDiag  1:
 E= -191.790068181595     Delta-E=       -0.000007026289 Rises=F Damp=F
 DIIS: error= 9.61D-05 at cycle   3 NSaved=   3.
 NSaved= 3 IEnMin= 3 EnMin= -191.790068181595     IErMin= 3 ErrMin= 9.61D-05
 ErrMax= 9.61D-05  0.00D+00 EMaxC= 1.00D-01 BMatC= 1.14D-06 BMatP= 3.94D-06
 IDIUse=1 WtCom= 1.00D+00 WtEn= 0.00D+00
 Coeff-Com: -0.721D-01 0.309D+00 0.763D+00
 Coeff:     -0.721D-01 0.309D+00 0.763D+00
 Gap=     0.345 Goal=   None    Shift=    0.000
 RMSDP=3.15D-05 MaxDP=2.92D-04 DE=-7.03D-06 OVMax= 5.37D-04

 Cycle   4  Pass 1  IDiag  1:
 E= -191.790069874458     Delta-E=       -0.000001692863 Rises=F Damp=F
 DIIS: error= 4.43D-05 at cycle   4 NSaved=   4.
 NSaved= 4 IEnMin= 4 EnMin= -191.790069874458     IErMin= 4 ErrMin= 4.43D-05
 ErrMax= 4.43D-05  0.00D+00 EMaxC= 1.00D-01 BMatC= 2.20D-07 BMatP= 1.14D-06
 IDIUse=1 WtCom= 1.00D+00 WtEn= 0.00D+00
 Coeff-Com: -0.342D-01 0.906D-01 0.346D+00 0.597D+00
 Coeff:     -0.342D-01 0.906D-01 0.346D+00 0.597D+00
 Gap=     0.345 Goal=   None    Shift=    0.000
 RMSDP=1.20D-05 MaxDP=1.65D-04 DE=-1.69D-06 OVMax= 2.67D-04

 Cycle   5  Pass 1  IDiag  1:
 E= -191.790070171988     Delta-E=       -0.000000297530 Rises=F Damp=F
 DIIS: error= 3.07D-05 at cycle   5 NSaved=   5.
 NSaved= 5 IEnMin= 5 EnMin= -191.790070171988     IErMin= 5 ErrMin= 3.07D-05
 ErrMax= 3.07D-05  0.00D+00 EMaxC= 1.00D-01 BMatC= 5.12D-08 BMatP= 2.20D-07
 IDIUse=1 WtCom= 1.00D+00 WtEn= 0.00D+00
 Coeff-Com:  0.122D-01-0.795D-01-0.129D+00 0.278D+00 0.917D+00
 Coeff:      0.122D-01-0.795D-01-0.129D+00 0.278D+00 0.917D+00
 Gap=     0.345 Goal=   None    Shift=    0.000
 RMSDP=1.15D-05 MaxDP=7.65D-05 DE=-2.98D-07 OVMax= 3.46D-04

 Cycle   6  Pass 1  IDiag  1:
 E= -191.790070325153     Delta-E=       -0.000000153165 Rises=F Damp=F
 DIIS: error= 1.43D-05 at cycle   6 NSaved=   6.
 NSaved= 6 IEnMin= 6 EnMin= -191.790070325153     IErMin= 6 ErrMin= 1.43D-05
 ErrMax= 1.43D-05  0.00D+00 EMaxC= 1.00D-01 BMatC= 6.76D-09 BMatP= 5.12D-08
 IDIUse=1 WtCom= 1.00D+00 WtEn= 0.00D+00
 Coeff-Com:  0.753D-02-0.356D-01-0.816D-01 0.251D-01 0.317D+00 0.768D+00
 Coeff:      0.753D-02-0.356D-01-0.816D-01 0.251D-01 0.317D+00 0.768D+00
 Gap=     0.345 Goal=   None    Shift=    0.000
 RMSDP=4.60D-06 MaxDP=4.35D-05 DE=-1.53D-07 OVMax= 1.41D-04

 Cycle   7  Pass 1  IDiag  1:
 E= -191.790070350429     Delta-E=       -0.000000025276 Rises=F Damp=F
 DIIS: error= 8.13D-06 at cycle   7 NSaved=   7.
 NSaved= 7 IEnMin= 7 EnMin= -191.790070350429     IErMin= 7 ErrMin= 8.13D-06
 ErrMax= 8.13D-06  0.00D+00 EMaxC= 1.00D-01 BMatC= 1.71D-09 BMatP= 6.76D-09
 IDIUse=1 WtCom= 1.00D+00 WtEn= 0.00D+00
 Coeff-Com: -0.221D-02 0.195D-01 0.228D-01-0.105D+00-0.258D+00 0.265D+00
 Coeff-Com:  0.106D+01
 Coeff:     -0.221D-02 0.195D-01 0.228D-01-0.105D+00-0.258D+00 0.265D+00
 Coeff:      0.106D+01
 Gap=     0.345 Goal=   None    Shift=    0.000
 RMSDP=4.06D-06 MaxDP=3.98D-05 DE=-2.53D-08 OVMax= 1.36D-04

 Cycle   8  Pass 1  IDiag  1:
 E= -191.790070361306     Delta-E=       -0.000000010877 Rises=F Damp=F
 DIIS: error= 2.65D-06 at cycle   8 NSaved=   8.
 NSaved= 8 IEnMin= 8 EnMin= -191.790070361306     IErMin= 8 ErrMin= 2.65D-06
 ErrMax= 2.65D-06  0.00D+00 EMaxC= 1.00D-01 BMatC= 1.17D-10 BMatP= 1.71D-09
 IDIUse=1 WtCom= 1.00D+00 WtEn= 0.00D+00
 Coeff-Com: -0.934D-03 0.456D-02 0.990D-02-0.404D-02-0.486D-01-0.598D-01
 Coeff-Com: -0.378D-02 0.110D+01
 Coeff:     -0.934D-03 0.456D-02 0.990D-02-0.404D-02-0.486D-01-0.598D-01
 Coeff:     -0.378D-02 0.110D+01
 Gap=     0.345 Goal=   None    Shift=    0.000
 RMSDP=1.13D-06 MaxDP=9.42D-06 DE=-1.09D-08 OVMax= 4.02D-05

 Cycle   9  Pass 1  IDiag  1:
 E= -191.790070362215     Delta-E=       -0.000000000909 Rises=F Damp=F
 DIIS: error= 7.21D-07 at cycle   9 NSaved=   9.
 NSaved= 9 IEnMin= 9 EnMin= -191.790070362215     IErMin= 9 ErrMin= 7.21D-07
 ErrMax= 7.21D-07  0.00D+00 EMaxC= 1.00D-01 BMatC= 2.89D-11 BMatP= 1.17D-10
 IDIUse=1 WtCom= 1.00D+00 WtEn= 0.00D+00
 Coeff-Com:  0.185D-03-0.251D-02-0.152D-02 0.194D-01 0.369D-01-0.626D-01
 Coeff-Com: -0.220D+00 0.353D+00 0.876D+00
 Coeff:      0.185D-03-0.251D-02-0.152D-02 0.194D-01 0.369D-01-0.626D-01
 Coeff:     -0.220D+00 0.353D+00 0.876D+00
 Gap=     0.345 Goal=   None    Shift=    0.000
 RMSDP=3.44D-07 MaxDP=2.54D-06 DE=-9.09D-10 OVMax= 1.22D-05

 Cycle  10  Pass 1  IDiag  1:
 E= -191.790070362319     Delta-E=       -0.000000000104 Rises=F Damp=F
 DIIS: error= 1.59D-07 at cycle  10 NSaved=  10.
 NSaved=10 IEnMin=10 EnMin= -191.790070362319     IErMin=10 ErrMin= 1.59D-07
 ErrMax= 1.59D-07  0.00D+00 EMaxC= 1.00D-01 BMatC= 8.77D-13 BMatP= 2.89D-11
 IDIUse=1 WtCom= 1.00D+00 WtEn= 0.00D+00
 Coeff-Com:  0.486D-04-0.943D-04-0.594D-03-0.233D-02 0.111D-02 0.113D-01
 Coeff-Com:  0.192D-01-0.115D+00-0.973D-01 0.118D+01
 Coeff:      0.486D-04-0.943D-04-0.594D-03-0.233D-02 0.111D-02 0.113D-01
 Coeff:      0.192D-01-0.115D+00-0.973D-01 0.118D+01
 Gap=     0.345 Goal=   None    Shift=    0.000
 RMSDP=9.04D-08 MaxDP=6.68D-07 DE=-1.04D-10 OVMax= 2.54D-06

 Cycle  11  Pass 1  IDiag  1:
 E= -191.790070362324     Delta-E=       -0.000000000005 Rises=F Damp=F
 DIIS: error= 2.38D-08 at cycle  11 NSaved=  11.
 NSaved=11 IEnMin=11 EnMin= -191.790070362324     IErMin=11 ErrMin= 2.38D-08
 ErrMax= 2.38D-08  0.00D+00 EMaxC= 1.00D-01 BMatC= 3.15D-14 BMatP= 8.77D-13
 IDIUse=1 WtCom= 1.00D+00 WtEn= 0.00D+00
 Coeff-Com: -0.114D-04 0.106D-03 0.112D-03-0.559D-03-0.172D-02 0.221D-02
 Coeff-Com:  0.644D-02-0.329D-02-0.349D-01-0.972D-01 0.113D+01
 Coeff:     -0.114D-04 0.106D-03 0.112D-03-0.559D-03-0.172D-02 0.221D-02
 Coeff:      0.644D-02-0.329D-02-0.349D-01-0.972D-01 0.113D+01
 Gap=     0.345 Goal=   None    Shift=    0.000
 RMSDP=2.51D-08 MaxDP=2.29D-07 DE=-5.06D-12 OVMax= 3.53D-07

 Cycle  12  Pass 1  IDiag  1:
 E= -191.790070362326     Delta-E=       -0.000000000001 Rises=F Damp=F
 DIIS: error= 3.97D-09 at cycle  12 NSaved=  12.
 NSaved=12 IEnMin=12 EnMin= -191.790070362326     IErMin=12 ErrMin= 3.97D-09
 ErrMax= 3.97D-09  0.00D+00 EMaxC= 1.00D-01 BMatC= 1.19D-15 BMatP= 3.15D-14
 IDIUse=1 WtCom= 1.00D+00 WtEn= 0.00D+00
 Coeff-Com:  0.339D-06-0.151D-04 0.177D-05 0.165D-03 0.283D-03-0.670D-03
 Coeff-Com: -0.216D-02 0.517D-02 0.923D-02-0.229D-01-0.231D+00 0.124D+01
 Coeff:      0.339D-06-0.151D-04 0.177D-05 0.165D-03 0.283D-03-0.670D-03
 Coeff:     -0.216D-02 0.517D-02 0.923D-02-0.229D-01-0.231D+00 0.124D+01
 Gap=     0.345 Goal=   None    Shift=    0.000
 RMSDP=5.55D-09 MaxDP=5.37D-08 DE=-1.19D-12 OVMax= 5.24D-08

 SCF Done:  E(RwB97XD) =  -191.790070362     A.U. after   12 cycles
            NFock= 12  Conv=0.55D-08     -V/T= 2.0058
 KE= 1.906867305208D+02 PE=-6.548150573419D+02 EE= 1.686738805995D+02
 Leave Link  502 at Wed May 12 11:58:28 2021, MaxMem=  2147483648 cpu:         8.1
 (Enter /opt/cluster/programs/g09_d.01/g09/l701.exe)
 Compute integral first derivatives.
 ... and contract with generalized density number  0.
 R6Disp: Adding Grimme-D2 dispersion energy 1st derivatives to the gradient.
 Leave Link  701 at Wed May 12 11:58:28 2021, MaxMem=  2147483648 cpu:         0.6
 (Enter /opt/cluster/programs/g09_d.01/g09/l702.exe)
 L702 exits ... SP integral derivatives will be done elsewhere.
 Leave Link  702 at Wed May 12 11:58:28 2021, MaxMem=  2147483648 cpu:         0.2
 (Enter /opt/cluster/programs/g09_d.01/g09/l703.exe)
 Compute integral first derivatives, UseDBF=F ICtDFT=           0.
 Integral derivatives from FoFJK, PRISM(SPDF).
 Calling FoFJK, ICntrl=      2127 FMM=F ISym2X=0 I1Cent= 0 IOpClX= 0 NMat=1 NMatS=1 NMatT=0.
 FoFJK:  IHMeth= 1 ICntrl=    2127 DoSepK=T KAlg= 0 I1Cent=   0 FoldK=F
 IRaf=         1 NMat=   1 IRICut=       1 DoRegI=T DoRafI=F ISym2E= 0.
 FoFCou: FMM=F IPFlag=           0 FMFlag=      100000 FMFlg1=         800
         NFxFlg=           0 DoJE=F BraDBF=F KetDBF=F FulRan=T
         wScrn=  0.000000 ICntrl=    2527 IOpCl=  0 I1Cent=           0 NGrid=           0
         NMat0=    1 NMatS0=      1 NMatT0=    0 NMatD0=    1 NMtDS0=    0 NMtDT0=    0
 Symmetry not used in FoFCou.
 Leave Link  703 at Wed May 12 11:58:28 2021, MaxMem=  2147483648 cpu:         2.5
 (Enter /opt/cluster/programs/g09_d.01/g09/l716.exe)
 Dipole        = 1.01239903D+00 7.80532632D-01 2.45161183D-01
 ***** Axes restored to original set *****
 -------------------------------------------------------------------
 Center     Atomic                   Forces (Hartrees/Bohr)
 Number     Number              X              Y              Z
 -------------------------------------------------------------------
      1        6          -0.000189565    0.002115779    0.004007504
      2        6           0.001804308   -0.002364578   -0.007624839
      3        6          -0.003006508   -0.000629692    0.007542197
      4        8           0.001379802    0.001093917   -0.004165884
      5        1          -0.000099750   -0.000280509    0.000205210
      6        1           0.000072011    0.000049165   -0.000052569
      7        1           0.000011863    0.000001813    0.000001161
      8        1           0.000027839    0.000014105    0.000087220
 -------------------------------------------------------------------
 Cartesian Forces:  Max     0.007624839 RMS     0.002696315
 Leave Link  716 at Wed May 12 11:58:28 2021, MaxMem=  2147483648 cpu:         0.2
 (Enter /opt/cluster/programs/g09_d.01/g09/l103.exe)

 GradGradGradGradGradGradGradGradGradGradGradGradGradGradGradGradGradGrad
 Berny optimization.
 Using GEDIIS/GDIIS optimizer.
 FormGI is forming the generalized inverse of G from B-inverse, IUseBI=4.
 Internal  Forces:  Max     0.005437610 RMS     0.001457255
 Search for a local minimum.
 Step number   2 out of a maximum of   34
 All quantities printed in internal units (Hartrees-Bohrs-Radians)
 RMS Force = .37543D-03 SwitMx=.10000D-02 MixMth= 2
 Mixed Optimization -- En-DIIS/RFO-DIIS
 Update second derivatives using D2CorX and points    1    2
 DE= -1.19D-04 DEPred=-1.24D-04 R= 9.57D-01
 TightC=F SS=  1.41D+00  RLast= 3.78D-02 DXNew= 5.0454D-01 1.1332D-01
 Trust test= 9.57D-01 RLast= 3.78D-02 DXMaxT set to 3.00D-01
 ITU=  1  0
 Use linear search instead of GDIIS.
     Eigenvalues ---    0.01162   0.01772   0.02822   0.02824   0.15902
     Eigenvalues ---    0.15984   0.16000   0.16078   0.21018   0.22047
     Eigenvalues ---    0.33227   0.34811   0.35182   0.35273   0.36215
     Eigenvalues ---    0.61324   0.786861000.000001000.000001000.00000
     Eigenvalues --- 1000.000001000.000001000.000001000.00000
 RFO step:  Lambda=-2.42476370D-05 EMin= 1.16220675D-02
 Quartic linear search produced a step of -0.04275.
 Iteration  1 RMS(Cart)=  0.00727193 RMS(Int)=  0.00009618
 Iteration  2 RMS(Cart)=  0.00008567 RMS(Int)=  0.00004251
 Iteration  3 RMS(Cart)=  0.00000000 RMS(Int)=  0.00004251
 Iteration  1 RMS(Cart)=  0.00000061 RMS(Int)=  0.00000053
 ITry= 1 IFail=0 DXMaxC= 2.18D-02 DCOld= 1.00D+10 DXMaxT= 3.00D-01 DXLimC= 3.00D+00 Rises=F
 Variable       Old X    -DE/DX   Delta X   Delta X   Delta X     New X
                                 (Linear)    (Quad)   (Total)
    R1        2.52957   0.00100   0.00048   0.00012   0.00060   2.53017
    R2        2.04959   0.00006   0.00008  -0.00012  -0.00004   2.04956
    R3        2.05300   0.00000   0.00003  -0.00009  -0.00006   2.05294
    R4        2.78756   0.00105   0.00018   0.00230   0.00248   2.79004
    R5        2.05611   0.00002   0.00010  -0.00029  -0.00019   2.05592
    R6        2.33900  -0.00077   0.00049  -0.00248  -0.00199   2.33701
    R7        2.08075   0.00019   0.00023  -0.00022   0.00001   2.08076
    A1        2.12330   0.00010   0.00011   0.00025   0.00036   2.12365
    A2        2.11010  -0.00004   0.00007  -0.00049  -0.00042   2.10968
    A3        2.04977  -0.00006  -0.00018   0.00025   0.00007   2.04984
    A4        2.13519  -0.00030   0.00028  -0.00231  -0.00204   2.13315
    A5        2.11288   0.00039  -0.00013   0.00143   0.00129   2.11417
    A6        2.02845   0.00015  -0.00020   0.00197   0.00176   2.03020
    A7        2.17098  -0.00005   0.00025  -0.00138  -0.00125   2.16973
    A8        2.02473   0.00001  -0.00023   0.00025  -0.00009   2.02463
    A9        2.08709   0.00014  -0.00005   0.00040   0.00023   2.08733
    D1       -3.07594  -0.00114   0.00021  -0.00410  -0.00389  -3.07983
    D2       -0.06290   0.00121  -0.00021   0.00648   0.00627  -0.05663
    D3        0.07093  -0.00118   0.00016  -0.00541  -0.00525   0.06568
    D4        3.08397   0.00117  -0.00027   0.00517   0.00490   3.08887
    D5       -0.69811   0.00544   0.00000   0.00000   0.00000  -0.69811
    D6        2.47364   0.00143   0.00061   0.02849   0.02909   2.50273
    D7        2.56620   0.00317   0.00040  -0.01008  -0.00968   2.55652
    D8       -0.54523  -0.00084   0.00101   0.01841   0.01942  -0.52581
         Item               Value     Threshold  Converged?
 Maximum Force            0.001054     0.000450     NO 
 RMS     Force            0.000375     0.000300     NO 
 Maximum Displacement     0.021806     0.001800     NO 
 RMS     Displacement     0.007272     0.001200     NO 
 Predicted change in Energy=-1.239829D-05
 Lowest energy point so far.  Saving SCF results.
 GradGradGradGradGradGradGradGradGradGradGradGradGradGradGradGradGradGrad

 Leave Link  103 at Wed May 12 11:58:28 2021, MaxMem=  2147483648 cpu:         0.0
 (Enter /opt/cluster/programs/g09_d.01/g09/l202.exe)
                          Input orientation:                          
 ---------------------------------------------------------------------
 Center     Atomic      Atomic             Coordinates (Angstroms)
 Number     Number       Type             X           Y           Z
 ---------------------------------------------------------------------
      1          6           0        1.513896    0.447744   -0.066121
      2          6           0        0.661115   -0.567405    0.120708
      3          6           0       -0.785057   -0.440273   -0.148111
      4          8           0       -1.459713    0.559552    0.125006
      5          1           0       -1.277677   -1.330037   -0.570071
      6          1           0        2.581960    0.328575    0.079982
      7          1           0        1.156116    1.427991   -0.368287
      8          1           0        1.018697   -1.562727    0.375846
 ---------------------------------------------------------------------
                    Distance matrix (angstroms):
                    1          2          3          4          5
     1  C    0.000000
     2  C    1.338906   0.000000
     3  C    2.465863   1.476428   0.000000
     4  O    2.981842   2.401658   1.236691   0.000000
     5  H    3.347738   2.194925   1.101092   2.021588   0.000000
     6  H    1.084578   2.119926   3.461208   4.048519   4.250925
     7  H    1.086368   2.113232   2.703154   2.800016   3.683855
     8  H    2.117204   1.087946   2.188141   3.272538   2.494441
                    6          7          8
     6  H    0.000000
     7  H    1.855450   0.000000
     8  H    2.471508   3.084966   0.000000
 Stoichiometry    C3H4O
 Framework group  C1[X(C3H4O)]
 Deg. of freedom    18
 Full point group                 C1      NOp   1
 RotChk:  IX=0 Diff= 3.97D-03
 Largest Abelian subgroup         C1      NOp   1
 Largest concise Abelian subgroup C1      NOp   1
                         Standard orientation:                         
 ---------------------------------------------------------------------
 Center     Atomic      Atomic             Coordinates (Angstroms)
 Number     Number       Type             X           Y           Z
 ---------------------------------------------------------------------
      1          6           0        1.508697   -0.449837    0.066168
      2          6           0        0.657043    0.565713   -0.123602
      3          6           0       -0.789312    0.440879    0.145307
      4          8           0       -1.464998   -0.558965   -0.125182
      5          1           0       -1.281047    1.332330    0.564732
      6          1           0        2.576915   -0.332221   -0.080072
      7          1           0        1.149807   -1.428864    0.370963
      8          1           0        1.015743    1.559945   -0.381411
 ---------------------------------------------------------------------
 Rotational constants (GHZ):     23.8069055      5.8594054      4.8219245
 Leave Link  202 at Wed May 12 11:58:28 2021, MaxMem=  2147483648 cpu:         0.0
 (Enter /opt/cluster/programs/g09_d.01/g09/l301.exe)
 Standard basis: 6-31+G (6D, 7F)
 Ernie: Thresh=  0.10000D-02 Tol=  0.10000D-05 Strict=F.
 There are    60 symmetry adapted cartesian basis functions of A   symmetry.
 There are    60 symmetry adapted basis functions of A   symmetry.
    60 basis functions,   120 primitive gaussians,    60 cartesian basis functions
    15 alpha electrons       15 beta electrons
       nuclear repulsion energy       103.6769517282 Hartrees.
 IExCor= 4639 DFT=T Ex+Corr=wB97XD ExCW=0 ScaHFX=  1.000000
 ScaDFX=  1.000000  1.000000  1.000000  1.000000 ScalE2=  1.000000  1.000000
 IRadAn=      0 IRanWt=     -1 IRanGd=            0 ICorTp=0 IEmpDi=121
  HFx wShort=  0.000000 wLong=  0.200000 cFull=  0.222036 cShort=  0.000000 cLong=  0.777964
  DFx wShort=  0.000000 wLong=  0.200000 cFull=  0.000000 cShort=  0.000000 cLong=  1.000000
 NAtoms=    8 NActive=    8 NUniq=    8 SFac= 1.00D+00 NAtFMM=   60 NAOKFM=F Big=F
 Integral buffers will be    131072 words long.
 Raffenetti 2 integral format.
 Two-electron integral symmetry is turned on.
 R6Disp:  Grimme-D2 Dispersion energy=       -0.0017889441 Hartrees.
 Nuclear repulsion after empirical dispersion term =      103.6751627841 Hartrees.
 Leave Link  301 at Wed May 12 11:58:28 2021, MaxMem=  2147483648 cpu:         0.3
 (Enter /opt/cluster/programs/g09_d.01/g09/l302.exe)
 NPDir=0 NMtPBC=     1 NCelOv=     1 NCel=       1 NClECP=     1 NCelD=      1
         NCelK=      1 NCelE2=     1 NClLst=     1 CellRange=     0.0.
 One-electron integrals computed using PRISM.
 NBasis=    60 RedAO= T EigKep=  1.37D-04  NBF=    60
 NBsUse=    60 1.00D-06 EigRej= -1.00D+00 NBFU=    60
 Precomputing XC quadrature grid using
 IXCGrd= 4 IRadAn=           0 IRanWt=          -1 IRanGd=           0 AccXCQ= 0.00D+00.
 Generated NRdTot=       0 NPtTot=           0 NUsed=           0 NTot=          32
 NSgBfM=    60    60    60    60    60 MxSgAt=     8 MxSgA2=     8.
 Leave Link  302 at Wed May 12 11:58:28 2021, MaxMem=  2147483648 cpu:         0.8
 (Enter /opt/cluster/programs/g09_d.01/g09/l303.exe)
 DipDrv:  MaxL=1.
 Leave Link  303 at Wed May 12 11:58:28 2021, MaxMem=  2147483648 cpu:         0.2
 (Enter /opt/cluster/programs/g09_d.01/g09/l401.exe)
 Initial guess from the checkpoint file:  "/home/unibas/boittier/RDKit_G2/L.pdb/SCAN_1_2_3_4_S_17_20.0/7_SCAN_1_2_3_4_F/L.pdb.chk"
 B after Tr=     0.000000    0.000000    0.000000
         Rot=    1.000000    0.000141    0.000148   -0.000357 Ang=   0.05 deg.
 Guess basis will be translated and rotated to current coordinates.
 JPrj=2 DoOrth=T DoCkMO=T.
 Generating alternative initial guess.
 ExpMin= 4.38D-02 ExpMax= 5.48D+03 ExpMxC= 8.25D+02 IAcc=2 IRadAn=         4 AccDes= 0.00D+00
 Harris functional with IExCor= 4639 and IRadAn=       4 diagonalized for initial guess.
 HarFok:  IExCor= 4639 AccDes= 0.00D+00 IRadAn=         4 IDoV= 1 UseB2=F ITyADJ=14
 ICtDFT=  3500011 ScaDFX=  1.000000  1.000000  1.000000  1.000000
 FoFCou: FMM=F IPFlag=           0 FMFlag=      100000 FMFlg1=           0
         NFxFlg=           0 DoJE=T BraDBF=F KetDBF=T FulRan=T
         wScrn=  0.000000 ICntrl=     500 IOpCl=  0 I1Cent=   200000004 NGrid=           0
         NMat0=    1 NMatS0=      1 NMatT0=    0 NMatD0=    1 NMtDS0=    0 NMtDT0=    0
 Petite list used in FoFCou.
 Harris En= -183.742655873917    
 Leave Link  401 at Wed May 12 11:58:29 2021, MaxMem=  2147483648 cpu:         1.4
 (Enter /opt/cluster/programs/g09_d.01/g09/l502.exe)
 Closed shell SCF:
 Using DIIS extrapolation, IDIIS=  1040.
 Integral symmetry usage will be decided dynamically.
 Keep R1 ints in memory in canonical form, NReq=4262490.
 IVT=       30290 IEndB=       30290 NGot=  2147483648 MDV=  2144102629
 LenX=  2144102629 LenY=  2144098588
 Requested convergence on RMS density matrix=1.00D-08 within 128 cycles.
 Requested convergence on MAX density matrix=1.00D-06.
 Requested convergence on             energy=1.00D-06.
 No special actions if energy rises.
 FoFCou: FMM=F IPFlag=           0 FMFlag=           0 FMFlg1=           0
         NFxFlg=           0 DoJE=F BraDBF=F KetDBF=F FulRan=T
         wScrn=  0.000000 ICntrl=     600 IOpCl=  0 I1Cent=           0 NGrid=           0
         NMat0=    1 NMatS0=   1830 NMatT0=    0 NMatD0=    1 NMtDS0=    0 NMtDT0=    0
 Symmetry not used in FoFCou.

 Cycle   1  Pass 1  IDiag  1:
 E= -191.790001286062    
 DIIS: error= 4.15D-04 at cycle   1 NSaved=   1.
 NSaved= 1 IEnMin= 1 EnMin= -191.790001286062     IErMin= 1 ErrMin= 4.15D-04
 ErrMax= 4.15D-04  0.00D+00 EMaxC= 1.00D-01 BMatC= 2.04D-05 BMatP= 2.04D-05
 IDIUse=3 WtCom= 9.96D-01 WtEn= 4.15D-03
 Coeff-Com:  0.100D+01
 Coeff-En:   0.100D+01
 Coeff:      0.100D+01
 Gap=     0.612 Goal=   None    Shift=    0.000
 RMSDP=2.53D-04 MaxDP=3.23D-03              OVMax= 2.88D-03

 Cycle   2  Pass 1  IDiag  1:
 E= -191.790049337289     Delta-E=       -0.000048051227 Rises=F Damp=F
 DIIS: error= 1.95D-04 at cycle   2 NSaved=   2.
 NSaved= 2 IEnMin= 2 EnMin= -191.790049337289     IErMin= 2 ErrMin= 1.95D-04
 ErrMax= 1.95D-04  0.00D+00 EMaxC= 1.00D-01 BMatC= 1.54D-06 BMatP= 2.04D-05
 IDIUse=3 WtCom= 9.98D-01 WtEn= 1.95D-03
 Coeff-Com: -0.176D+00 0.118D+01
 Coeff-En:   0.000D+00 0.100D+01
 Coeff:     -0.176D+00 0.118D+01
 Gap=     0.345 Goal=   None    Shift=    0.000
 RMSDP=7.07D-05 MaxDP=6.45D-04 DE=-4.81D-05 OVMax= 1.89D-03

 Cycle   3  Pass 1  IDiag  1:
 E= -191.790054683853     Delta-E=       -0.000005346564 Rises=F Damp=F
 DIIS: error= 1.31D-04 at cycle   3 NSaved=   3.
 NSaved= 3 IEnMin= 3 EnMin= -191.790054683853     IErMin= 3 ErrMin= 1.31D-04
 ErrMax= 1.31D-04  0.00D+00 EMaxC= 1.00D-01 BMatC= 1.34D-06 BMatP= 1.54D-06
 IDIUse=3 WtCom= 9.99D-01 WtEn= 1.31D-03
 Coeff-Com: -0.141D+00 0.653D+00 0.488D+00
 Coeff-En:   0.000D+00 0.000D+00 0.100D+01
 Coeff:     -0.141D+00 0.652D+00 0.489D+00
 Gap=     0.345 Goal=   None    Shift=    0.000
 RMSDP=2.40D-05 MaxDP=2.65D-04 DE=-5.35D-06 OVMax= 5.05D-04

 Cycle   4  Pass 1  IDiag  1:
 E= -191.790056151437     Delta-E=       -0.000001467583 Rises=F Damp=F
 DIIS: error= 7.20D-05 at cycle   4 NSaved=   4.
 NSaved= 4 IEnMin= 4 EnMin= -191.790056151437     IErMin= 4 ErrMin= 7.20D-05
 ErrMax= 7.20D-05  0.00D+00 EMaxC= 1.00D-01 BMatC= 1.16D-07 BMatP= 1.34D-06
 IDIUse=1 WtCom= 1.00D+00 WtEn= 0.00D+00
 Coeff-Com:  0.335D-01-0.271D+00 0.895D-01 0.115D+01
 Coeff:      0.335D-01-0.271D+00 0.895D-01 0.115D+01
 Gap=     0.345 Goal=   None    Shift=    0.000
 RMSDP=2.52D-05 MaxDP=2.01D-04 DE=-1.47D-06 OVMax= 8.71D-04

 Cycle   5  Pass 1  IDiag  1:
 E= -191.790056805091     Delta-E=       -0.000000653655 Rises=F Damp=F
 DIIS: error= 3.14D-05 at cycle   5 NSaved=   5.
 NSaved= 5 IEnMin= 5 EnMin= -191.790056805091     IErMin= 5 ErrMin= 3.14D-05
 ErrMax= 3.14D-05  0.00D+00 EMaxC= 1.00D-01 BMatC= 1.28D-08 BMatP= 1.16D-07
 IDIUse=1 WtCom= 1.00D+00 WtEn= 0.00D+00
 Coeff-Com:  0.152D-01-0.615D-01-0.823D-01-0.108D+00 0.124D+01
 Coeff:      0.152D-01-0.615D-01-0.823D-01-0.108D+00 0.124D+01
 Gap=     0.345 Goal=   None    Shift=    0.000
 RMSDP=1.30D-05 MaxDP=1.04D-04 DE=-6.54D-07 OVMax= 4.57D-04

 Cycle   6  Pass 1  IDiag  1:
 E= -191.790056927842     Delta-E=       -0.000000122751 Rises=F Damp=F
 DIIS: error= 9.89D-06 at cycle   6 NSaved=   6.
 NSaved= 6 IEnMin= 6 EnMin= -191.790056927842     IErMin= 6 ErrMin= 9.89D-06
 ErrMax= 9.89D-06  0.00D+00 EMaxC= 1.00D-01 BMatC= 2.99D-09 BMatP= 1.28D-08
 IDIUse=1 WtCom= 1.00D+00 WtEn= 0.00D+00
 Coeff-Com: -0.195D-02 0.335D-01-0.417D-01-0.255D+00 0.391D+00 0.874D+00
 Coeff:     -0.195D-02 0.335D-01-0.417D-01-0.255D+00 0.391D+00 0.874D+00
 Gap=     0.345 Goal=   None    Shift=    0.000
 RMSDP=4.77D-06 MaxDP=3.96D-05 DE=-1.23D-07 OVMax= 1.65D-04

 Cycle   7  Pass 1  IDiag  1:
 E= -191.790056943373     Delta-E=       -0.000000015531 Rises=F Damp=F
 DIIS: error= 2.27D-06 at cycle   7 NSaved=   7.
 NSaved= 7 IEnMin= 7 EnMin= -191.790056943373     IErMin= 7 ErrMin= 2.27D-06
 ErrMax= 2.27D-06  0.00D+00 EMaxC= 1.00D-01 BMatC= 3.46D-10 BMatP= 2.99D-09
 IDIUse=1 WtCom= 1.00D+00 WtEn= 0.00D+00
 Coeff-Com: -0.226D-02 0.138D-01 0.485D-02-0.315D-01-0.103D+00 0.170D+00
 Coeff-Com:  0.948D+00
 Coeff:     -0.226D-02 0.138D-01 0.485D-02-0.315D-01-0.103D+00 0.170D+00
 Coeff:      0.948D+00
 Gap=     0.345 Goal=   None    Shift=    0.000
 RMSDP=1.46D-06 MaxDP=1.05D-05 DE=-1.55D-08 OVMax= 4.45D-05

 Cycle   8  Pass 1  IDiag  1:
 E= -191.790056944784     Delta-E=       -0.000000001411 Rises=F Damp=F
 DIIS: error= 1.21D-06 at cycle   8 NSaved=   8.
 NSaved= 8 IEnMin= 8 EnMin= -191.790056944784     IErMin= 8 ErrMin= 1.21D-06
 ErrMax= 1.21D-06  0.00D+00 EMaxC= 1.00D-01 BMatC= 8.29D-11 BMatP= 3.46D-10
 IDIUse=1 WtCom= 1.00D+00 WtEn= 0.00D+00
 Coeff-Com: -0.632D-03 0.583D-03 0.873D-02 0.277D-01-0.109D+00-0.718D-01
 Coeff-Com:  0.405D+00 0.740D+00
 Coeff:     -0.632D-03 0.583D-03 0.873D-02 0.277D-01-0.109D+00-0.718D-01
 Coeff:      0.405D+00 0.740D+00
 Gap=     0.345 Goal=   None    Shift=    0.000
 RMSDP=4.71D-07 MaxDP=3.79D-06 DE=-1.41D-09 OVMax= 1.27D-05

 Cycle   9  Pass 1  IDiag  1:
 E= -191.790056944963     Delta-E=       -0.000000000179 Rises=F Damp=F
 DIIS: error= 1.79D-07 at cycle   9 NSaved=   9.
 NSaved= 9 IEnMin= 9 EnMin= -191.790056944963     IErMin= 9 ErrMin= 1.79D-07
 ErrMax= 1.79D-07  0.00D+00 EMaxC= 1.00D-01 BMatC= 2.69D-12 BMatP= 8.29D-11
 IDIUse=1 WtCom= 1.00D+00 WtEn= 0.00D+00
 Coeff-Com:  0.143D-03-0.120D-02 0.317D-03 0.528D-02 0.153D-03-0.202D-01
 Coeff-Com: -0.528D-01 0.696D-01 0.999D+00
 Coeff:      0.143D-03-0.120D-02 0.317D-03 0.528D-02 0.153D-03-0.202D-01
 Coeff:     -0.528D-01 0.696D-01 0.999D+00
 Gap=     0.345 Goal=   None    Shift=    0.000
 RMSDP=1.23D-07 MaxDP=1.18D-06 DE=-1.79D-10 OVMax= 1.51D-06

 Cycle  10  Pass 1  IDiag  1:
 E= -191.790056944969     Delta-E=       -0.000000000007 Rises=F Damp=F
 DIIS: error= 5.84D-08 at cycle  10 NSaved=  10.
 NSaved=10 IEnMin=10 EnMin= -191.790056944969     IErMin=10 ErrMin= 5.84D-08
 ErrMax= 5.84D-08  0.00D+00 EMaxC= 1.00D-01 BMatC= 2.75D-13 BMatP= 2.69D-12
 IDIUse=1 WtCom= 1.00D+00 WtEn= 0.00D+00
 Coeff-Com:  0.894D-04-0.365D-03-0.598D-03-0.946D-03 0.903D-02 0.113D-02
 Coeff-Com: -0.498D-01-0.357D-01 0.258D+00 0.819D+00
 Coeff:      0.894D-04-0.365D-03-0.598D-03-0.946D-03 0.903D-02 0.113D-02
 Coeff:     -0.498D-01-0.357D-01 0.258D+00 0.819D+00
 Gap=     0.345 Goal=   None    Shift=    0.000
 RMSDP=3.38D-08 MaxDP=2.73D-07 DE=-6.71D-12 OVMax= 3.56D-07

 Cycle  11  Pass 1  IDiag  1:
 E= -191.790056944970     Delta-E=       -0.000000000001 Rises=F Damp=F
 DIIS: error= 1.45D-08 at cycle  11 NSaved=  11.
 NSaved=11 IEnMin=11 EnMin= -191.790056944970     IErMin=11 ErrMin= 1.45D-08
 ErrMax= 1.45D-08  0.00D+00 EMaxC= 1.00D-01 BMatC= 1.44D-14 BMatP= 2.75D-13
 IDIUse=1 WtCom= 1.00D+00 WtEn= 0.00D+00
 Coeff-Com: -0.778D-05 0.759D-04-0.416D-04-0.392D-03 0.101D-03 0.186D-02
 Coeff-Com:  0.151D-02-0.200D-02-0.778D-01 0.294D-01 0.105D+01
 Coeff:     -0.778D-05 0.759D-04-0.416D-04-0.392D-03 0.101D-03 0.186D-02
 Coeff:      0.151D-02-0.200D-02-0.778D-01 0.294D-01 0.105D+01
 Gap=     0.345 Goal=   None    Shift=    0.000
 RMSDP=1.56D-08 MaxDP=2.07D-07 DE=-1.02D-12 OVMax= 9.95D-08

 Cycle  12  Pass 1  IDiag  1:
 E= -191.790056944970     Delta-E=        0.000000000000 Rises=F Damp=F
 DIIS: error= 3.91D-09 at cycle  12 NSaved=  12.
 NSaved=12 IEnMin=11 EnMin= -191.790056944970     IErMin=12 ErrMin= 3.91D-09
 ErrMax= 3.91D-09  0.00D+00 EMaxC= 1.00D-01 BMatC= 4.05D-16 BMatP= 1.44D-14
 IDIUse=1 WtCom= 1.00D+00 WtEn= 0.00D+00
 Coeff-Com: -0.140D-05-0.158D-05 0.228D-04 0.110D-03-0.328D-03-0.352D-03
 Coeff-Com:  0.127D-02 0.235D-02 0.352D-02-0.311D-01-0.201D+00 0.123D+01
 Coeff:     -0.140D-05-0.158D-05 0.228D-04 0.110D-03-0.328D-03-0.352D-03
 Coeff:      0.127D-02 0.235D-02 0.352D-02-0.311D-01-0.201D+00 0.123D+01
 Gap=     0.345 Goal=   None    Shift=    0.000
 RMSDP=3.91D-09 MaxDP=4.64D-08 DE= 1.14D-13 OVMax= 3.21D-08

 SCF Done:  E(RwB97XD) =  -191.790056945     A.U. after   12 cycles
            NFock= 12  Conv=0.39D-08     -V/T= 2.0058
 KE= 1.906879453416D+02 PE=-6.548383209758D+02 EE= 1.686851559051D+02
 Leave Link  502 at Wed May 12 11:58:31 2021, MaxMem=  2147483648 cpu:        15.5
 (Enter /opt/cluster/programs/g09_d.01/g09/l701.exe)
 Compute integral first derivatives.
 ... and contract with generalized density number  0.
 R6Disp: Adding Grimme-D2 dispersion energy 1st derivatives to the gradient.
 Leave Link  701 at Wed May 12 11:58:32 2021, MaxMem=  2147483648 cpu:         0.6
 (Enter /opt/cluster/programs/g09_d.01/g09/l702.exe)
 L702 exits ... SP integral derivatives will be done elsewhere.
 Leave Link  702 at Wed May 12 11:58:32 2021, MaxMem=  2147483648 cpu:         0.2
 (Enter /opt/cluster/programs/g09_d.01/g09/l703.exe)
 Compute integral first derivatives, UseDBF=F ICtDFT=           0.
 Integral derivatives from FoFJK, PRISM(SPDF).
 Calling FoFJK, ICntrl=      2127 FMM=F ISym2X=0 I1Cent= 0 IOpClX= 0 NMat=1 NMatS=1 NMatT=0.
 FoFJK:  IHMeth= 1 ICntrl=    2127 DoSepK=T KAlg= 0 I1Cent=   0 FoldK=F
 IRaf=         1 NMat=   1 IRICut=       1 DoRegI=T DoRafI=F ISym2E= 0.
 FoFCou: FMM=F IPFlag=           0 FMFlag=      100000 FMFlg1=         800
         NFxFlg=           0 DoJE=F BraDBF=F KetDBF=F FulRan=T
         wScrn=  0.000000 ICntrl=    2527 IOpCl=  0 I1Cent=           0 NGrid=           0
         NMat0=    1 NMatS0=      1 NMatT0=    0 NMatD0=    1 NMtDS0=    0 NMtDT0=    0
 Symmetry not used in FoFCou.
 Leave Link  703 at Wed May 12 11:58:32 2021, MaxMem=  2147483648 cpu:         2.5
 (Enter /opt/cluster/programs/g09_d.01/g09/l716.exe)
 Dipole        = 1.00746414D+00 7.80614342D-01 2.40294137D-01
 ***** Axes restored to original set *****
 -------------------------------------------------------------------
 Center     Atomic                   Forces (Hartrees/Bohr)
 Number     Number              X              Y              Z
 -------------------------------------------------------------------
      1        6          -0.000233462    0.001589343    0.003838299
      2        6           0.001531799   -0.001170597   -0.008202443
      3        6          -0.002098827   -0.003285527    0.010316598
      4        8           0.000649380    0.002722977   -0.004875715
      5        1           0.000107870    0.000123842   -0.000910247
      6        1           0.000085484    0.000089118    0.000069107
      7        1           0.000018924    0.000010058   -0.000050256
      8        1          -0.000061167   -0.000079215   -0.000185344
 -------------------------------------------------------------------
 Cartesian Forces:  Max     0.010316598 RMS     0.003178532
 Leave Link  716 at Wed May 12 11:58:32 2021, MaxMem=  2147483648 cpu:         0.2
 (Enter /opt/cluster/programs/g09_d.01/g09/l103.exe)

 GradGradGradGradGradGradGradGradGradGradGradGradGradGradGradGradGradGrad
 Berny optimization.
 Using GEDIIS/GDIIS optimizer.
 FormGI is forming the generalized inverse of G from B-inverse, IUseBI=4.
 Internal  Forces:  Max     0.006425360 RMS     0.001705651
 Search for a local minimum.
 Step number   3 out of a maximum of   34
 All quantities printed in internal units (Hartrees-Bohrs-Radians)
 RMS Force = .37083D-03 SwitMx=.10000D-02 MixMth= 2
 Mixed Optimization -- En-DIIS/RFO-DIIS
 Swapping is turned off.
 Update second derivatives using D2CorX and points    1    2    3
 DE=  1.34D-05 DEPred=-1.24D-05 R=-1.08D+00
 Trust test=-1.08D+00 RLast= 3.80D-02 DXMaxT set to 1.50D-01
 ITU= -1  1  0
     Eigenvalues ---    0.01525   0.02801   0.02821   0.04766   0.15628
     Eigenvalues ---    0.15957   0.16003   0.16100   0.18044   0.22056
     Eigenvalues ---    0.32477   0.34337   0.35124   0.35218   0.35752
     Eigenvalues ---    0.62127   0.673511000.000001000.000001000.00000
     Eigenvalues --- 1000.000001000.000001000.000001000.00000
 En-DIIS/RFO-DIIS IScMMF=        0 using points:     3    2
 RFO step:  Lambda=-1.19208327D-05.
 NNeg= 0 NP= 2 Switch=  2.50D-03 Rises=F DC= -1.34D-05 SmlDif=  1.00D-05
 RMS Error=  0.1277245255D-02 NUsed= 2 EDIIS=F
 DidBck=T Rises=F RFO-DIIS coefs:    0.32585    0.67415
 Iteration  1 RMS(Cart)=  0.00574473 RMS(Int)=  0.00005364
 Iteration  2 RMS(Cart)=  0.00005038 RMS(Int)=  0.00000498
 Iteration  3 RMS(Cart)=  0.00000000 RMS(Int)=  0.00000498
 Iteration  1 RMS(Cart)=  0.00000041 RMS(Int)=  0.00000036
 ITry= 1 IFail=0 DXMaxC= 1.86D-02 DCOld= 1.00D+10 DXMaxT= 1.50D-01 DXLimC= 3.00D+00 Rises=F
 Variable       Old X    -DE/DX   Delta X   Delta X   Delta X     New X
                                 (Linear)    (Quad)   (Total)
    R1        2.53017   0.00067  -0.00040   0.00116   0.00076   2.53092
    R2        2.04956   0.00008   0.00002   0.00009   0.00012   2.04967
    R3        2.05294   0.00002   0.00004  -0.00001   0.00003   2.05297
    R4        2.79004   0.00045  -0.00167   0.00255   0.00088   2.79092
    R5        2.05592   0.00001   0.00013  -0.00008   0.00004   2.05596
    R6        2.33701   0.00077   0.00134  -0.00106   0.00028   2.33729
    R7        2.08076   0.00020  -0.00001   0.00034   0.00034   2.08110
    A1        2.12365   0.00011  -0.00024   0.00057   0.00033   2.12398
    A2        2.10968  -0.00004   0.00029  -0.00037  -0.00009   2.10959
    A3        2.04984  -0.00007  -0.00005  -0.00019  -0.00024   2.04960
    A4        2.13315   0.00016   0.00138  -0.00153  -0.00015   2.13300
    A5        2.11417   0.00026  -0.00087   0.00079  -0.00007   2.11410
    A6        2.03020  -0.00020  -0.00119   0.00086  -0.00032   2.02988
    A7        2.16973   0.00024   0.00084  -0.00041   0.00044   2.17017
    A8        2.02463   0.00001   0.00006   0.00001   0.00009   2.02472
    A9        2.08733   0.00007  -0.00016   0.00051   0.00037   2.08770
    D1       -3.07983  -0.00115   0.00262  -0.00044   0.00218  -3.07765
    D2       -0.05663   0.00101  -0.00423   0.00085  -0.00338  -0.06001
[...]

 Cycle  11  Pass 1  IDiag  1:
 E= -191.790076681842     Delta-E=        0.000000000000 Rises=F Damp=F
 DIIS: error= 1.26D-08 at cycle  11 NSaved=  11.
 NSaved=11 IEnMin=10 EnMin= -191.790076681842     IErMin=11 ErrMin= 1.26D-08
 ErrMax= 1.26D-08  0.00D+00 EMaxC= 1.00D-01 BMatC= 7.57D-15 BMatP= 2.65D-13
 IDIUse=1 WtCom= 1.00D+00 WtEn= 0.00D+00
 Coeff-Com: -0.943D-05 0.837D-04-0.105D-03-0.264D-03-0.117D-03 0.723D-03
 Coeff-Com:  0.374D-02-0.852D-03-0.484D-01-0.975D-01 0.114D+01
 Coeff:     -0.943D-05 0.837D-04-0.105D-03-0.264D-03-0.117D-03 0.723D-03
 Coeff:      0.374D-02-0.852D-03-0.484D-01-0.975D-01 0.114D+01
 Gap=     0.346 Goal=   None    Shift=    0.000
 RMSDP=1.33D-08 MaxDP=1.65D-07 DE= 2.27D-13 OVMax= 1.09D-07

 Cycle  12  Pass 1  IDiag  1:
 E= -191.790076681841     Delta-E=        0.000000000000 Rises=F Damp=F
 DIIS: error= 1.89D-09 at cycle  12 NSaved=  12.
 NSaved=12 IEnMin=10 EnMin= -191.790076681842     IErMin=12 ErrMin= 1.89D-09
 ErrMax= 1.89D-09  0.00D+00 EMaxC= 1.00D-01 BMatC= 2.85D-16 BMatP= 7.57D-15
 IDIUse=1 WtCom= 1.00D+00 WtEn= 0.00D+00
 Coeff-Com: -0.174D-05-0.146D-05 0.525D-04 0.640D-04-0.153D-03-0.488D-03
 Coeff-Com:  0.246D-03 0.296D-02 0.591D-02-0.155D-01-0.232D+00 0.124D+01
 Coeff:     -0.174D-05-0.146D-05 0.525D-04 0.640D-04-0.153D-03-0.488D-03
 Coeff:      0.246D-03 0.296D-02 0.591D-02-0.155D-01-0.232D+00 0.124D+01
 Gap=     0.346 Goal=   None    Shift=    0.000
 RMSDP=2.76D-09 MaxDP=3.25D-08 DE= 3.41D-13 OVMax= 2.59D-08

 SCF Done:  E(RwB97XD) =  -191.790076682     A.U. after   12 cycles
            NFock= 12  Conv=0.28D-08     -V/T= 2.0058
 KE= 1.906844843703D+02 PE=-6.547891676971D+02 EE= 1.686622581195D+02
 Leave Link  502 at Wed May 12 11:58:33 2021, MaxMem=  2147483648 cpu:         8.1
 (Enter /opt/cluster/programs/g09_d.01/g09/l701.exe)
 Compute integral first derivatives.
 ... and contract with generalized density number  0.
 R6Disp: Adding Grimme-D2 dispersion energy 1st derivatives to the gradient.
 Leave Link  701 at Wed May 12 11:58:34 2021, MaxMem=  2147483648 cpu:         0.6
 (Enter /opt/cluster/programs/g09_d.01/g09/l702.exe)
 L702 exits ... SP integral derivatives will be done elsewhere.
 Leave Link  702 at Wed May 12 11:58:34 2021, MaxMem=  2147483648 cpu:         0.2
 (Enter /opt/cluster/programs/g09_d.01/g09/l703.exe)
 Compute integral first derivatives, UseDBF=F ICtDFT=           0.
 Integral derivatives from FoFJK, PRISM(SPDF).
 Calling FoFJK, ICntrl=      2127 FMM=F ISym2X=0 I1Cent= 0 IOpClX= 0 NMat=1 NMatS=1 NMatT=0.
 FoFJK:  IHMeth= 1 ICntrl=    2127 DoSepK=T KAlg= 0 I1Cent=   0 FoldK=F
 IRaf=         1 NMat=   1 IRICut=       1 DoRegI=T DoRafI=F ISym2E= 0.
 FoFCou: FMM=F IPFlag=           0 FMFlag=      100000 FMFlg1=         800
         NFxFlg=           0 DoJE=F BraDBF=F KetDBF=F FulRan=T
         wScrn=  0.000000 ICntrl=    2527 IOpCl=  0 I1Cent=           0 NGrid=           0
         NMat0=    1 NMatS0=      1 NMatT0=    0 NMatD0=    1 NMtDS0=    0 NMtDT0=    0
 Symmetry not used in FoFCou.
 Leave Link  703 at Wed May 12 11:58:34 2021, MaxMem=  2147483648 cpu:         2.5
 (Enter /opt/cluster/programs/g09_d.01/g09/l716.exe)
 Dipole        = 1.00792308D+00 7.80333898D-01 2.44327331D-01
 ***** Axes restored to original set *****
 -------------------------------------------------------------------
 Center     Atomic                   Forces (Hartrees/Bohr)
 Number     Number              X              Y              Z
 -------------------------------------------------------------------
      1        6          -0.000609524    0.001343830    0.003970636
      2        6           0.001452469   -0.001228662   -0.007914742
      3        6          -0.001641864   -0.002131569    0.008171531
      4        8           0.000754457    0.002113010   -0.004194645
      5        1           0.000015356   -0.000104867   -0.000031261
      6        1           0.000032093    0.000009357    0.000003666
      7        1           0.000003312    0.000018503    0.000024511
      8        1          -0.000006299   -0.000019603   -0.000029694
 -------------------------------------------------------------------
 Cartesian Forces:  Max     0.008171531 RMS     0.002745175
 Leave Link  716 at Wed May 12 11:58:34 2021, MaxMem=  2147483648 cpu:         0.2
 (Enter /opt/cluster/programs/g09_d.01/g09/l103.exe)

 GradGradGradGradGradGradGradGradGradGradGradGradGradGradGradGradGradGrad
 Berny optimization.
 Using GEDIIS/GDIIS optimizer.
 FormGI is forming the generalized inverse of G from B-inverse, IUseBI=4.
 Internal  Forces:  Max     0.005667553 RMS     0.001472703
 Search for a local minimum.
 Step number   4 out of a maximum of   34
 All quantities printed in internal units (Hartrees-Bohrs-Radians)
 RMS Force = .93666D-04 SwitMx=.10000D-02 MixMth= 2
 Mixed Optimization -- En-DIIS/RFO-DIIS
 Swapping is turned off.
 Update second derivatives using D2CorX and points    1    2    3    4
 DE= -1.97D-05 DEPred=-1.95D-05 R= 1.01D+00
 TightC=F SS=  1.41D+00  RLast= 2.86D-02 DXNew= 2.5227D-01 8.5844D-02
 Trust test= 1.01D+00 RLast= 2.86D-02 DXMaxT set to 1.50D-01
 ITU=  1 -1  1  0
     Eigenvalues ---    0.01640   0.02800   0.02837   0.04846   0.15619
     Eigenvalues ---    0.15925   0.16033   0.16080   0.19182   0.22034
     Eigenvalues ---    0.32980   0.33401   0.34994   0.35194   0.35359
     Eigenvalues ---    0.60831   0.812061000.000001000.000001000.00000
     Eigenvalues --- 1000.000001000.000001000.000001000.00000
 En-DIIS/RFO-DIIS IScMMF=        0 using points:     4    3    2
 RFO step:  Lambda=-1.90413921D-06.
 NNeg= 0 NP= 3 Switch=  2.50D-03 Rises=F DC= -1.34D-05 SmlDif=  1.00D-05
 RMS Error=  0.1401850304D-03 NUsed= 3 EDIIS=F
 DidBck=F Rises=F RFO-DIIS coefs:    1.00399   -0.00253   -0.00146
 Iteration  1 RMS(Cart)=  0.00042363 RMS(Int)=  0.00000074
 Iteration  2 RMS(Cart)=  0.00000015 RMS(Int)=  0.00000073
 Iteration  1 RMS(Cart)=  0.00000047 RMS(Int)=  0.00000041
 ITry= 1 IFail=0 DXMaxC= 8.85D-04 DCOld= 1.00D+10 DXMaxT= 1.50D-01 DXLimC= 3.00D+00 Rises=F
 Variable       Old X    -DE/DX   Delta X   Delta X   Delta X     New X
                                 (Linear)    (Quad)   (Total)
    R1        2.53092   0.00011   0.00000   0.00015   0.00016   2.53108
    R2        2.04967   0.00003   0.00000   0.00008   0.00008   2.04975
    R3        2.05297   0.00001   0.00000   0.00004   0.00004   2.05300
    R4        2.79092   0.00012   0.00001   0.00032   0.00033   2.79125
    R5        2.05596   0.00001   0.00000   0.00002   0.00002   2.05598
    R6        2.33729   0.00038   0.00000   0.00043   0.00043   2.33771
    R7        2.08110   0.00009   0.00000   0.00026   0.00027   2.08137
    A1        2.12398   0.00002   0.00000   0.00014   0.00014   2.12413
    A2        2.10959  -0.00001   0.00000  -0.00005  -0.00005   2.10955
    A3        2.04960  -0.00002   0.00000  -0.00010  -0.00010   2.04950
    A4        2.13300   0.00001   0.00000  -0.00028  -0.00029   2.13271
    A5        2.11410   0.00027   0.00000   0.00015   0.00015   2.11425
    A6        2.02988  -0.00005   0.00000   0.00004   0.00005   2.02993
    A7        2.17017   0.00008   0.00000   0.00015   0.00015   2.17032
    A8        2.02472  -0.00005   0.00000  -0.00055  -0.00055   2.02417
    A9        2.08770   0.00011   0.00000   0.00039   0.00039   2.08809
    D1       -3.07765  -0.00113   0.00000   0.00022   0.00022  -3.07742
    D2       -0.06001   0.00112   0.00000  -0.00065  -0.00065  -0.06066
    D3        0.06783  -0.00111   0.00000   0.00098   0.00098   0.06881
    D4        3.08547   0.00114  -0.00001   0.00011   0.00010   3.08557
    D5       -0.69811   0.00567   0.00000   0.00000   0.00000  -0.69811
    D6        2.48082   0.00110  -0.00005   0.00024   0.00020   2.48102
    D7        2.56181   0.00349   0.00001   0.00083   0.00083   2.56264
    D8       -0.54243  -0.00107  -0.00004   0.00106   0.00103  -0.54141
         Item               Value     Threshold  Converged?
 Maximum Force            0.000380     0.000450     YES
 RMS     Force            0.000094     0.000300     YES
 Maximum Displacement     0.000885     0.001800     YES
 RMS     Displacement     0.000423     0.001200     YES
 Predicted change in Energy=-2.112035D-07
 Optimization completed.
    -- Stationary point found.
                           ----------------------------
                           !   Optimized Parameters   !
                           ! (Angstroms and Degrees)  !
 --------------------------                            --------------------------
 ! Name  Definition              Value          Derivative Info.                !
 --------------------------------------------------------------------------------
 ! R1    R(1,2)                  1.3393         -DE/DX =    0.0001              !
 ! R2    R(1,6)                  1.0846         -DE/DX =    0.0                 !
 ! R3    R(1,7)                  1.0864         -DE/DX =    0.0                 !
 ! R4    R(2,3)                  1.4769         -DE/DX =    0.0001              !
 ! R5    R(2,8)                  1.088          -DE/DX =    0.0                 !
 ! R6    R(3,4)                  1.2368         -DE/DX =    0.0004              !
 ! R7    R(3,5)                  1.1013         -DE/DX =    0.0001              !
 ! A1    A(2,1,6)              121.6954         -DE/DX =    0.0                 !
 ! A2    A(2,1,7)              120.8707         -DE/DX =    0.0                 !
 ! A3    A(6,1,7)              117.4335         -DE/DX =    0.0                 !
 ! A4    A(1,2,3)              122.2118         -DE/DX =    0.0                 !
 ! A5    A(1,2,8)              121.1289         -DE/DX =    0.0003              !
 ! A6    A(3,2,8)              116.3036         -DE/DX =   -0.0001              !
 ! A7    A(2,3,4)              124.3416         -DE/DX =    0.0001              !
 ! A8    A(2,3,5)              116.0081         -DE/DX =    0.0                 !
 ! A9    A(4,3,5)              119.6163         -DE/DX =    0.0001              !
 ! D1    D(6,1,2,3)           -176.3361         -DE/DX =   -0.0011              !
 ! D2    D(6,1,2,8)             -3.4382         -DE/DX =    0.0011              !
 ! D3    D(7,1,2,3)              3.8864         -DE/DX =   -0.0011              !
 ! D4    D(7,1,2,8)            176.7843         -DE/DX =    0.0011              !
 ! D5    D(1,2,3,4)            -39.9989         -DE/DX =    0.0057              !
 ! D6    D(1,2,3,5)            142.1408         -DE/DX =    0.0011              !
 ! D7    D(8,2,3,4)            146.7811         -DE/DX =    0.0035              !
 ! D8    D(8,2,3,5)            -31.0792         -DE/DX =   -0.0011              !
 --------------------------------------------------------------------------------
 Lowest energy point so far.  Saving SCF results.
 GradGradGradGradGradGradGradGradGradGradGradGradGradGradGradGradGradGrad

 Largest change from initial coordinates is atom    7       0.010 Angstoms.
 Leave Link  103 at Wed May 12 11:58:34 2021, MaxMem=  2147483648 cpu:         0.0
 (Enter /opt/cluster/programs/g09_d.01/g09/l202.exe)
                          Input orientation:                          
 ---------------------------------------------------------------------
 Center     Atomic      Atomic             Coordinates (Angstroms)
 Number     Number       Type             X           Y           Z
 ---------------------------------------------------------------------
      1          6           0        1.513603    0.447170   -0.066761
      2          6           0        0.660950   -0.567598    0.125509
      3          6           0       -0.785984   -0.441593   -0.142284
      4          8           0       -1.460869    0.559261    0.127148
      5          1           0       -1.274911   -1.326028   -0.579916
      6          1           0        2.582171    0.328595    0.076574
      7          1           0        1.155020    1.426561   -0.370798
      8          1           0        1.019357   -1.562947    0.379480
 ---------------------------------------------------------------------
                    Distance matrix (angstroms):
                    1          2          3          4          5
     1  C    0.000000
     2  C    1.339306   0.000000
     3  C    2.466517   1.476891   0.000000
     4  O    2.982893   2.402484   1.236840   0.000000
     5  H    3.344155   2.195540   1.101270   2.022086   0.000000
     6  H    1.084639   2.120531   3.462016   4.049931   4.248040
     7  H    1.086383   2.113551   2.703648   2.800542   3.677641
     8  H    2.117541   1.087968   2.188362   3.273982   2.498047
                    6          7          8
     6  H    0.000000
     7  H    1.855379   0.000000
     8  H    2.472261   3.085203   0.000000
 Stoichiometry    C3H4O
 Framework group  C1[X(C3H4O)]
 Deg. of freedom    18
 Full point group                 C1      NOp   1
 RotChk:  IX=0 Diff= 8.63D-16
 Largest Abelian subgroup         C1      NOp   1
 Largest concise Abelian subgroup C1      NOp   1
                         Standard orientation:                         
 ---------------------------------------------------------------------
 Center     Atomic      Atomic             Coordinates (Angstroms)
 Number     Number       Type             X           Y           Z
 ---------------------------------------------------------------------
      1          6           0        1.508795   -0.450335    0.066989
      2          6           0        0.657484    0.565476   -0.125721
      3          6           0       -0.789468    0.441799    0.143054
      4          8           0       -1.465951   -0.558337   -0.125038
      5          1           0       -1.276864    1.327343    0.580150
      6          1           0        2.577446   -0.333429   -0.077095
      7          1           0        1.148988   -1.428926    0.372157
      8          1           0        1.017167    1.560071   -0.380838
 ---------------------------------------------------------------------
 Rotational constants (GHZ):     23.7996183      5.8548768      4.8201285
 Leave Link  202 at Wed May 12 11:58:34 2021, MaxMem=  2147483648 cpu:         0.0
 (Enter /opt/cluster/programs/g09_d.01/g09/l601.exe)
 Copying SCF densities to generalized density rwf, IOpCl= 0 IROHF=0.

 **********************************************************************

            Population analysis using the SCF density.

 **********************************************************************

 Orbital symmetries:
       Occupied  (A) (A) (A) (A) (A) (A) (A) (A) (A) (A) (A) (A)
                 (A) (A) (A)
       Virtual   (A) (A) (A) (A) (A) (A) (A) (A) (A) (A) (A) (A)
                 (A) (A) (A) (A) (A) (A) (A) (A) (A) (A) (A) (A)
                 (A) (A) (A) (A) (A) (A) (A) (A) (A) (A) (A) (A)
                 (A) (A) (A) (A) (A) (A) (A) (A) (A)
 The electronic state is 1-A.
 Alpha  occ. eigenvalues --  -19.28899 -10.40626 -10.33099 -10.32961  -1.17160
 Alpha  occ. eigenvalues --   -0.91100  -0.76946  -0.65393  -0.61427  -0.54637
 Alpha  occ. eigenvalues --   -0.53374  -0.48717  -0.47702  -0.37802  -0.35224
 Alpha virt. eigenvalues --   -0.00667   0.06703   0.08017   0.08804   0.10036
 Alpha virt. eigenvalues --    0.11423   0.12564   0.13406   0.14856   0.16235
 Alpha virt. eigenvalues --    0.17575   0.17687   0.20104   0.22356   0.26527
 Alpha virt. eigenvalues --    0.28195   0.30431   0.31838   0.32697   0.35398
 Alpha virt. eigenvalues --    0.37253   0.37850   0.42407   0.46182   0.52513
 Alpha virt. eigenvalues --    0.70907   0.72677   0.76677   0.78426   0.80726
 Alpha virt. eigenvalues --    0.83642   0.89133   0.96147   1.02114   1.04771
 Alpha virt. eigenvalues --    1.11114   1.13312   1.17916   1.23514   1.27621
 Alpha virt. eigenvalues --    1.31652   1.36963   1.38682   1.43314   1.89399
          Condensed to atoms (all electrons):
               1          2          3          4          5          6
     1  C    5.300055   0.271131   0.024984   0.045007   0.032650   0.365966
     2  C    0.271131   5.736153   0.136460  -0.198091  -0.134920  -0.026865
     3  C    0.024984   0.136460   5.085406   0.314768   0.361046   0.009123
     4  O    0.045007  -0.198091   0.314768   8.317347  -0.065482   0.000394
     5  H    0.032650  -0.134920   0.361046  -0.065482   0.625934  -0.000090
     6  H    0.365966  -0.026865   0.009123   0.000394  -0.000090   0.472505
     7  H    0.397854  -0.058886   0.004576   0.000714   0.000142  -0.022238
     8  H    0.018149   0.307456  -0.014522   0.005159   0.001702  -0.003502
               7          8
     1  C    0.397854   0.018149
     2  C   -0.058886   0.307456
     3  C    0.004576  -0.014522
     4  O    0.000714   0.005159
     5  H    0.000142   0.001702
     6  H   -0.022238  -0.003502
     7  H    0.447739   0.002503
     8  H    0.002503   0.464484
 Mulliken charges:
               1
     1  C   -0.455797
     2  C   -0.032438
     3  C    0.078159
     4  O   -0.419816
     5  H    0.179018
     6  H    0.204707
     7  H    0.227596
     8  H    0.218571
 Sum of Mulliken charges =   0.00000
 Mulliken charges with hydrogens summed into heavy atoms:
               1
     1  C   -0.023495
     2  C    0.186134
     3  C    0.257177
     4  O   -0.419816
 Electronic spatial extent (au):  <R**2>=            275.4766
 Charge=              0.0000 electrons
 Dipole moment (field-independent basis, Debye):
    X=              2.5619    Y=              1.9834    Z=              0.6210  Tot=              3.2989
 Quadrupole moment (field-independent basis, Debye-Ang):
   XX=            -25.2501   YY=            -22.5479   ZZ=            -25.1339
   XY=             -3.5466   XZ=             -1.0408   YZ=             -0.9569
 Traceless Quadrupole moment (field-independent basis, Debye-Ang):
   XX=             -0.9395   YY=              1.7627   ZZ=             -0.8233
   XY=             -3.5466   XZ=             -1.0408   YZ=             -0.9569
 Octapole moment (field-independent basis, Debye-Ang**2):
  XXX=              9.6731  YYY=              0.3025  ZZZ=             -0.1006  XYY=              0.7830
  XXY=              3.2471  XXZ=             -0.0377  XZZ=             -3.6766  YZZ=             -0.4273
  YYZ=              0.5440  XYZ=             -1.0248
 Hexadecapole moment (field-independent basis, Debye-Ang**3):
 XXXX=           -241.0083 YYYY=            -78.4271 ZZZZ=            -31.9058 XXXY=             -7.1964
 XXXZ=             -2.8483 YYYX=              0.1835 YYYZ=             -2.3011 ZZZX=              0.1456
 ZZZY=             -0.3743 XXYY=            -54.2432 XXZZ=            -48.3985 YYZZ=            -19.2766
 XXYZ=             -0.8420 YYXZ=             -1.0882 ZZXY=              0.2008
 N-N= 1.036523485255D+02 E-N=-6.547891676732D+02  KE= 1.906844843703D+02
 No NMR shielding tensors so no spin-rotation constants.
 Leave Link  601 at Wed May 12 11:58:34 2021, MaxMem=  2147483648 cpu:         0.5
 (Enter /opt/cluster/programs/g09_d.01/g09/l9999.exe)
 1\1\GINC-NODE17\FOpt\RwB97XD\6-31+G\C3H4O1\BOITTIER\12-May-2021\0\\#p 
 wB97XD/6-31+G Opt=ModRedun\\L.pdb\\0,1\C,1.5136032678,0.4471698324,-0.
 0667609673\C,0.660949655,-0.5675984017,0.1255091144\C,-0.7859837702,-0
 .4415932479,-0.1422844349\O,-1.4608691916,0.5592605532,0.1271480217\H,
 -1.2749114768,-1.3260280057,-0.5799156843\H,2.5821711617,0.3285953803,
 0.0765743392\H,1.1550196144,1.4265606482,-0.3707978653\H,1.0193567397,
 -1.5629467588,0.3794804765\\Version=ES64L-G09RevD.01\State=1-A\HF=-191
 .7900767\RMSD=2.758e-09\RMSF=2.745e-03\Dipole=1.0066555,-0.7815506,-0.
 2456603\Quadrupole=-0.6899606,1.3043082,-0.6143477,2.6385248,0.775304,
 -0.7123474\PG=C01 [X(C3H4O1)]\\@



 IN THIS SHORT LIFE

 THAT ONLY LASTS AN HOUR

 HOW MUCH, HOW LITTLE, IS WITHIN OUR POWER....


 EMILY DICKINSON BOLTS OF MELODY NO. 521
 Job cpu time:       0 days  0 hours  1 minutes 11.1 seconds.
 File lengths (MBytes):  RWF=      5 Int=      0 D2E=      0 Chk=      2 Scr=      1
 Normal termination of Gaussian 09 at Wed May 12 11:58:34 2021.
