L.pdb                                                                   
FOpt      RwB97XD                                                     6-31+G              
Number of atoms                            I                8
Info1-9                                    I   N=           9
          19          19           0           0           0         110
           2          18        -802
Charge                                     I                0
Multiplicity                               I                1
Number of electrons                        I               30
Number of alpha electrons                  I               15
Number of beta electrons                   I               15
Number of basis functions                  I               60
Number of independent functions            I               60
Number of point charges in /Mol/           I                0
Number of translation vectors              I                0
Atomic numbers                             I   N=           8
           6           6           6           8           1           1
           1           1
Nuclear charges                            R   N=           8
  6.00000000E+00  6.00000000E+00  6.00000000E+00  8.00000000E+00  1.00000000E+00
  1.00000000E+00  1.00000000E+00  1.00000000E+00
Current cartesian coordinates              R   N=          24
 -2.79686619E+00 -8.82352990E-01  7.12866460E-02 -1.25581835E+00  1.11827708E+00
 -1.23340627E-01  1.51240925E+00  8.85392516E-01  1.35174649E-01  2.69540434E+00
 -1.11631026E+00 -1.23853939E-01  2.54460339E+00  2.64175578E+00  5.54341259E-01
 -4.83298950E+00 -6.92253121E-01 -6.65526474E-02 -2.03362790E+00 -2.76463737E+00
  3.70564606E-01 -1.99956897E+00  3.01771713E+00 -3.66245716E-01
Force Field                                I                0
Int Atom Types                             I   N=           8
           0           0           0           0           0           0
           0           0
MM charges                                 R   N=           8
  0.00000000E+00  0.00000000E+00  0.00000000E+00  0.00000000E+00  0.00000000E+00
  0.00000000E+00  0.00000000E+00  0.00000000E+00
Integer atomic weights                     I   N=           8
          12          12          12          16           1           1
           1           1
Real atomic weights                        R   N=           8
  1.20000000E+01  1.20000000E+01  1.20000000E+01  1.59949146E+01  1.00782504E+00
  1.00782504E+00  1.00782504E+00  1.00782504E+00
Atom fragment info                         I   N=           8
           0           0           0           0           0           0
           0           0
Atom residue num                           I   N=           8
           0           0           0           0           0           0
           0           0
Nuclear spins                              I   N=           8
           0           0           0           0           1           1
           1           1
Nuclear ZEff                               R   N=           8
 -3.60000000E+00 -3.60000000E+00 -3.60000000E+00 -5.60000000E+00 -1.00000000E+00
 -1.00000000E+00 -1.00000000E+00 -1.00000000E+00
Nuclear ZNuc                               R   N=           8
  6.00000000E+00  6.00000000E+00  6.00000000E+00  8.00000000E+00  1.00000000E+00
  1.00000000E+00  1.00000000E+00  1.00000000E+00
Nuclear QMom                               R   N=           8
  0.00000000E+00  0.00000000E+00  0.00000000E+00  0.00000000E+00  0.00000000E+00
  0.00000000E+00  0.00000000E+00  0.00000000E+00
Nuclear GFac                               R   N=           8
  0.00000000E+00  0.00000000E+00  0.00000000E+00  0.00000000E+00  2.79284600E+00
  2.79284600E+00  2.79284600E+00  2.79284600E+00
MicOpt                                     I   N=           8
          -1          -1          -1          -1          -1          -1
          -1          -1
Number of contracted shells                I               24
Number of primitive shells                 I               60
Pure/Cartesian d shells                    I                1
Pure/Cartesian f shells                    I                0
Highest angular momentum                   I                1
Largest degree of contraction              I                6
Shell types                                I   N=          24
           0          -1          -1          -1           0          -1
          -1          -1           0          -1          -1          -1
           0          -1          -1          -1           0           0
           0           0           0           0           0           0
Number of primitives per shell             I   N=          24
           6           3           1           1           6           3
           1           1           6           3           1           1
           6           3           1           1           3           1
           3           1           3           1           3           1
Shell to atom map                          I   N=          24
           1           1           1           1           2           2
           2           2           3           3           3           3
           4           4           4           4           5           5
           6           6           7           7           8           8
Primitive exponents                        R   N=          60
  3.04752488E+03  4.57369518E+02  1.03948685E+02  2.92101553E+01  9.28666296E+00
  3.16392696E+00  7.86827235E+00  1.88128854E+00  5.44249258E-01  1.68714478E-01
  4.38000000E-02  3.04752488E+03  4.57369518E+02  1.03948685E+02  2.92101553E+01
  9.28666296E+00  3.16392696E+00  7.86827235E+00  1.88128854E+00  5.44249258E-01
  1.68714478E-01  4.38000000E-02  3.04752488E+03  4.57369518E+02  1.03948685E+02
  2.92101553E+01  9.28666296E+00  3.16392696E+00  7.86827235E+00  1.88128854E+00
  5.44249258E-01  1.68714478E-01  4.38000000E-02  5.48467166E+03  8.25234946E+02
  1.88046958E+02  5.29645000E+01  1.68975704E+01  5.79963534E+00  1.55396162E+01
  3.59993359E+00  1.01376175E+00  2.70005823E-01  8.45000000E-02  1.87311370E+01
  2.82539436E+00  6.40121692E-01  1.61277759E-01  1.87311370E+01  2.82539436E+00
  6.40121692E-01  1.61277759E-01  1.87311370E+01  2.82539436E+00  6.40121692E-01
  1.61277759E-01  1.87311370E+01  2.82539436E+00  6.40121692E-01  1.61277759E-01
Contraction coefficients                   R   N=          60
  1.83473713E-03  1.40373228E-02  6.88426223E-02  2.32184443E-01  4.67941348E-01
  3.62311985E-01 -1.19332420E-01 -1.60854152E-01  1.14345644E+00  1.00000000E+00
  1.00000000E+00  1.83473713E-03  1.40373228E-02  6.88426223E-02  2.32184443E-01
  4.67941348E-01  3.62311985E-01 -1.19332420E-01 -1.60854152E-01  1.14345644E+00
  1.00000000E+00  1.00000000E+00  1.83473713E-03  1.40373228E-02  6.88426223E-02
  2.32184443E-01  4.67941348E-01  3.62311985E-01 -1.19332420E-01 -1.60854152E-01
  1.14345644E+00  1.00000000E+00  1.00000000E+00  1.83107443E-03  1.39501722E-02
  6.84450781E-02  2.32714336E-01  4.70192898E-01  3.58520853E-01 -1.10777550E-01
 -1.48026263E-01  1.13076702E+00  1.00000000E+00  1.00000000E+00  3.34946043E-02
  2.34726953E-01  8.13757326E-01  1.00000000E+00  3.34946043E-02  2.34726953E-01
  8.13757326E-01  1.00000000E+00  3.34946043E-02  2.34726953E-01  8.13757326E-01
  1.00000000E+00  3.34946043E-02  2.34726953E-01  8.13757326E-01  1.00000000E+00
P(S=P) Contraction coefficients            R   N=          60
  0.00000000E+00  0.00000000E+00  0.00000000E+00  0.00000000E+00  0.00000000E+00
  0.00000000E+00  6.89990666E-02  3.16423961E-01  7.44308291E-01  1.00000000E+00
  1.00000000E+00  0.00000000E+00  0.00000000E+00  0.00000000E+00  0.00000000E+00
  0.00000000E+00  0.00000000E+00  6.89990666E-02  3.16423961E-01  7.44308291E-01
  1.00000000E+00  1.00000000E+00  0.00000000E+00  0.00000000E+00  0.00000000E+00
  0.00000000E+00  0.00000000E+00  0.00000000E+00  6.89990666E-02  3.16423961E-01
  7.44308291E-01  1.00000000E+00  1.00000000E+00  0.00000000E+00  0.00000000E+00
  0.00000000E+00  0.00000000E+00  0.00000000E+00  0.00000000E+00  7.08742682E-02
  3.39752839E-01  7.27158577E-01  1.00000000E+00  1.00000000E+00  0.00000000E+00
  0.00000000E+00  0.00000000E+00  0.00000000E+00  0.00000000E+00  0.00000000E+00
  0.00000000E+00  0.00000000E+00  0.00000000E+00  0.00000000E+00  0.00000000E+00
  0.00000000E+00  0.00000000E+00  0.00000000E+00  0.00000000E+00  0.00000000E+00
Coordinates of each shell                  R   N=          72
 -2.79686619E+00 -8.82352990E-01  7.12866460E-02 -2.79686619E+00 -8.82352990E-01
  7.12866460E-02 -2.79686619E+00 -8.82352990E-01  7.12866460E-02 -2.79686619E+00
 -8.82352990E-01  7.12866460E-02 -1.25581835E+00  1.11827708E+00 -1.23340627E-01
 -1.25581835E+00  1.11827708E+00 -1.23340627E-01 -1.25581835E+00  1.11827708E+00
 -1.23340627E-01 -1.25581835E+00  1.11827708E+00 -1.23340627E-01  1.51240925E+00
  8.85392516E-01  1.35174649E-01  1.51240925E+00  8.85392516E-01  1.35174649E-01
  1.51240925E+00  8.85392516E-01  1.35174649E-01  1.51240925E+00  8.85392516E-01
  1.35174649E-01  2.69540434E+00 -1.11631026E+00 -1.23853939E-01  2.69540434E+00
 -1.11631026E+00 -1.23853939E-01  2.69540434E+00 -1.11631026E+00 -1.23853939E-01
  2.69540434E+00 -1.11631026E+00 -1.23853939E-01  2.54460339E+00  2.64175578E+00
  5.54341259E-01  2.54460339E+00  2.64175578E+00  5.54341259E-01 -4.83298950E+00
 -6.92253121E-01 -6.65526474E-02 -4.83298950E+00 -6.92253121E-01 -6.65526474E-02
 -2.03362790E+00 -2.76463737E+00  3.70564606E-01 -2.03362790E+00 -2.76463737E+00
  3.70564606E-01 -1.99956897E+00  3.01771713E+00 -3.66245716E-01 -1.99956897E+00
  3.01771713E+00 -3.66245716E-01
Constraint Structure                       R   N=          24
 -2.82048276E+00 -8.81205198E-01  6.93155325E-02 -1.25548893E+00  1.11347623E+00
 -1.24804695E-01  1.51278031E+00  8.85953028E-01  1.33757083E-01  2.72094824E+00
 -1.11709250E+00 -1.20703989E-01  2.53618429E+00  2.65359523E+00  5.49116998E-01
 -4.85681195E+00 -6.73953137E-01 -6.26289256E-02 -2.07718745E+00 -2.77254142E+00
  3.65550891E-01 -1.99062252E+00  3.02029498E+00 -3.56014577E-01
Num ILSW                                   I              100
ILSW                                       I   N=         100
           0           1           0           0           2           0
           0           0           0           0        4639          -1
           0           0           0           0           2           0
           0           0           0           0           1           0
           1           0           0           0           0           0
           0           0      100000           0          -1           0
           0           0           0           0           0           0
           0           0           0           1           0           0
           0           0           1           0           0           0
           0           0         121          41           0           0
           0           0          58           0           0           0
           0           0           0           8           0           0
           0           0           0           0           0           0
           0           0           0           0           0           0
           0           0           0           0           0           0
           0           0           0           0           0           0
           0           0           0           0
Num RLSW                                   I               41
RLSW                                       R   N=          41
  1.00000000E+00  1.00000000E+00  1.00000000E+00  1.00000000E+00  1.00000000E+00
  0.00000000E+00  2.00000000E-01  2.22036000E-01  0.00000000E+00  7.77964000E-01
  0.00000000E+00  2.00000000E-01  0.00000000E+00  0.00000000E+00  1.00000000E+00
  0.00000000E+00  0.00000000E+00  1.00000000E+00  0.00000000E+00  0.00000000E+00
  0.00000000E+00  0.00000000E+00  1.00000000E+00  0.00000000E+00  0.00000000E+00
  0.00000000E+00  0.00000000E+00  1.00000000E+00  0.00000000E+00  0.00000000E+00
  0.00000000E+00  0.00000000E+00  1.00000000E+00  0.00000000E+00  0.00000000E+00
  0.00000000E+00  0.00000000E+00  0.00000000E+00  1.00000000E+00  1.00000000E+00
  0.00000000E+00
MxBond                                     I                3
NBond                                      I   N=           8
           3           3           3           1           1           1
           1           1
IBond                                      I   N=          24
           2           6           7           1           3           8
           2           4           5           3           0           0
           3           0           0           1           0           0
           1           0           0           2           0           0
RBond                                      R   N=          24
  2.00000000E+00  1.00000000E+00  1.00000000E+00  2.00000000E+00  1.00000000E+00
  1.00000000E+00  1.00000000E+00  2.00000000E+00  1.00000000E+00  2.00000000E+00
  0.00000000E+00  0.00000000E+00  1.00000000E+00  0.00000000E+00  0.00000000E+00
  1.00000000E+00  0.00000000E+00  0.00000000E+00  1.00000000E+00  0.00000000E+00
  0.00000000E+00  1.00000000E+00  0.00000000E+00  0.00000000E+00
Virial Ratio                               R      2.005804668158710E+00
SCF Energy                                 R     -1.917925023558358E+02
Total Energy                               R     -1.917925023558358E+02
RMS Force                                  R      1.405984039177011E-03
RMS Density                                R      2.681190624901572E-09
External E-field                           R   N=          35
  0.00000000E+00  0.00000000E+00  0.00000000E+00  0.00000000E+00  0.00000000E+00
  0.00000000E+00  0.00000000E+00  0.00000000E+00  0.00000000E+00  0.00000000E+00
  0.00000000E+00  0.00000000E+00  0.00000000E+00  0.00000000E+00  0.00000000E+00
  0.00000000E+00  0.00000000E+00  0.00000000E+00  0.00000000E+00  0.00000000E+00
  0.00000000E+00  0.00000000E+00  0.00000000E+00  0.00000000E+00  0.00000000E+00
  0.00000000E+00  0.00000000E+00  0.00000000E+00  0.00000000E+00  0.00000000E+00
  0.00000000E+00  0.00000000E+00  0.00000000E+00  0.00000000E+00  0.00000000E+00
IOpCl                                      I                0
IROHF                                      I                0
Alpha Orbital Energies                     R   N=          60
 -1.92868582E+01 -1.04044973E+01 -1.03319665E+01 -1.03285048E+01 -1.16950672E+00
 -9.10033806E-01 -7.69773983E-01 -6.51415324E-01 -6.15299739E-01 -5.44949978E-01
 -5.26621652E-01 -4.91487616E-01 -4.77211386E-01 -3.76777639E-01 -3.52367405E-01
 -1.42336911E-02  6.97801011E-02  8.17035440E-02  9.56355173E-02  1.03374412E-01
  1.17013840E-01  1.26219824E-01  1.31989965E-01  1.50254355E-01  1.60433850E-01
  1.75972791E-01  1.80146501E-01  2.02623241E-01  2.22182712E-01  2.61125532E-01
  2.81505091E-01  3.14370098E-01  3.24363002E-01  3.27190005E-01  3.45609441E-01
  3.67352933E-01  3.91600792E-01  4.16914405E-01  4.62599461E-01  5.38727802E-01
  7.14213064E-01  7.29947650E-01  7.70375415E-01  7.90057671E-01  8.06483807E-01
  8.29553348E-01  8.88911890E-01  9.87578679E-01  1.02510925E+00  1.05256199E+00
  1.10750480E+00  1.14049789E+00  1.22773071E+00  1.23491904E+00  1.28913346E+00
  1.31372043E+00  1.39463256E+00  1.41585174E+00  1.42771872E+00  1.91759890E+00
Alpha MO coefficients                      R   N=        3600
  2.98191681E-06  5.40573808E-05  1.25281623E-04  1.11653620E-04  2.49870996E-05
  3.81747339E-03  8.48861225E-04  1.00295705E-03 -3.60818449E-04  3.58154248E-03
  4.06490187E-04  3.27740683E-04  2.39380443E-04  5.35058549E-05  2.53228105E-04
 -2.67525144E-04 -1.92812816E-04 -2.81143837E-05 -2.65463851E-03  7.59927016E-04
  4.93441499E-03  1.09438992E-04  6.94622816E-03  3.37600839E-03  4.00961092E-04
 -3.73064633E-04  2.06283789E-04  1.63067225E-04  1.62099318E-04  1.08654072E-04
  9.59856598E-06  7.01449729E-03  1.77584333E-03 -7.72964501E-03 -9.64687837E-04
 -1.45672683E-02  2.09062182E-03  2.04017676E-03  9.03504677E-04  9.95227992E-01
  2.94954265E-02 -1.17771008E-03  1.80791082E-03  2.46505043E-04 -2.20101294E-02
  3.04547195E-03 -4.09934926E-03 -5.29311244E-04  8.24185413E-03 -6.90500656E-04
  3.37854391E-04 -1.45492684E-04 -6.85244346E-06  1.84852792E-03 -7.28081954E-05
 -2.92420942E-04 -6.87010065E-05 -4.39519208E-04 -2.86966389E-04 -1.74280299E-03
 -5.99481194E-05 -3.59659778E-04 -6.13457021E-05 -8.92787327E-05 -2.18864938E-05
  2.42279314E-04 -1.88160359E-04  1.57057386E-04  8.69769040E-05 -1.09266410E-02
 -2.50557597E-03 -2.25882392E-03 -2.64226393E-05  1.69857846E-03 -7.18216907E-04
 -5.64374660E-04  7.48264622E-06 -6.48619464E-05  5.67254289E-03  3.32318109E-03
 -5.03001346E-04  2.93584904E-04  5.94659871E-03 -1.97665581E-03 -1.08324929E-03
  6.44153672E-04  9.95441275E-01  3.61610204E-02  6.04342501E-04 -1.25745105E-03
 -1.72839186E-04 -3.23284789E-02  6.94359609E-04  2.47172474E-03  5.34841435E-04
  2.57138310E-03 -2.87876694E-03 -9.75900100E-04 -6.08566527E-04 -1.21672434E-04
 -4.28659153E-05  3.28079701E-04 -4.99435628E-04 -4.57206925E-05  1.26600126E-03
 -4.22973906E-04  5.22621595E-05 -1.10085355E-04  1.12251095E-02 -2.99625754E-03
  5.18972833E-03  9.10967426E-04 -5.75004871E-04  3.40722011E-03 -5.12413801E-05
  4.57868475E-04 -8.21249811E-05 -1.72366367E-04 -9.10965077E-05 -1.08293887E-04
  9.87975912E-01  3.48639084E-02  1.89571131E-04  3.01667463E-04 -6.35336730E-06
 -2.91458035E-02 -1.74415284E-03 -2.76014646E-03  2.68300663E-04  2.07176072E-02
  3.68991936E-03  6.09484291E-03 -5.92516865E-04  1.20532756E-01  3.18780240E-03
  6.94870601E-04  9.08872370E-04 -8.40644633E-05  3.93578285E-03 -4.23325324E-03
 -3.87323156E-03  3.32270751E-04  1.53896468E-02  1.40477484E-02 -2.41665840E-05
  8.92116957E-04 -2.15067143E-04 -4.46547941E-04  2.66058484E-04  3.52479160E-05
  2.69817119E-05  1.51779911E-03 -1.88378294E-03 -1.56658076E-05 -3.18236529E-04
 -3.60114457E-02  8.66813029E-03  1.13557867E-03  7.41704599E-04  9.44090140E-06
  7.71997372E-05  5.82482685E-05 -2.06573927E-05 -7.08601671E-06 -4.91872436E-04
  1.39139505E-04  1.52486095E-04  6.24779481E-05  2.72874986E-03  3.02640929E-04
  5.74226282E-04  2.21699572E-04 -5.56303473E-05  1.07040681E-03 -7.38794367E-04
  4.35631416E-03 -6.73199635E-04  3.63979851E-03 -2.20949062E-04  6.18342658E-04
 -1.20766158E-01 -5.60331392E-03 -6.27211187E-04 -8.02262685E-04  8.13955706E-05
  1.40725877E-02  4.94155551E-03  3.56507030E-03 -2.31666786E-04 -4.55914207E-02
 -7.34718751E-03 -8.31130460E-03  7.23892351E-04  9.88072366E-01  3.62313719E-02
 -3.23571175E-05 -5.91249284E-04  1.75493718E-04 -3.61329040E-02 -1.09957559E-03
  5.68644947E-03 -9.81541780E-04  6.83258536E-02 -5.97547933E-04 -1.42960965E-02
  2.20716585E-03 -1.68571263E-03 -9.29233216E-04  5.98736969E-04 -8.78165222E-05
  1.00329159E-04  8.05554665E-03 -4.65303797E-03 -1.34646869E-03 -5.81284216E-04
 -2.15416070E-02  5.22001703E-03  2.09104053E-03 -4.61704934E-05  8.25219197E-06
  2.36188402E-05  6.33239082E-05 -9.41952413E-05  3.84681590E-05 -1.18716913E-03
  3.54918863E-04  5.47558744E-05 -1.68854096E-04  8.41643994E-04  5.36510653E-04
 -2.34225689E-04  4.31551481E-04 -9.99151747E-05  8.40444625E-04 -4.23132116E-05
  6.23978841E-04 -2.76424148E-04 -1.12972810E-03 -7.44695908E-04  2.67624493E-03
 -7.25169255E-03  1.15493657E-02  7.42075332E-03  3.64745804E-03 -4.73807035E-04
 -1.27999533E-02  2.33982434E-03 -8.43409914E-03  2.80518434E-03  1.63702419E-02
  9.39705451E-03  1.91654582E-03 -2.81126748E-04 -2.03499497E-02  3.81781868E-02
  2.66702585E-02 -1.08986833E-02  1.92105283E-03  1.61305167E-02 -1.31629940E-02
 -2.90216273E-02 -2.42740929E-03 -7.59053096E-02 -2.49980887E-02  6.80016893E-03
 -1.47141325E-03 -1.15991693E-01  2.36754349E-01  8.72478799E-02 -1.61455966E-01
 -2.13873940E-02  4.98347043E-02 -2.87085402E-02  6.76371691E-02  8.29210067E-03
  6.77763018E-02 -4.09893982E-03 -5.32370682E-03 -2.78989802E-03 -1.92296002E-01
  4.23800141E-01 -9.35418917E-02  1.52695869E-01  1.99964690E-02  4.24042219E-01
 -4.15018832E-02  6.24852187E-02  8.71898404E-03  2.50302948E-03 -3.72828135E-03
  7.08305173E-03  9.55932918E-04  2.82904117E-02 -2.30032868E-02  2.07789737E-03
  4.46983204E-03  3.67207063E-03 -1.17584283E-03  5.94488313E-03  8.66537097E-03
 -1.40292758E-01  2.72719849E-01  6.78474594E-02  8.31210638E-02 -6.43632166E-03
  2.21253307E-01  9.44732762E-03  6.68754883E-03 -4.99504369E-04  2.89350687E-02
  7.88406325E-03  8.77138145E-04  1.01531904E-03 -1.64117078E-01  3.19955687E-01
 -2.59260164E-02 -7.32716651E-02  1.42341717E-02  2.21386877E-01  2.69063192E-03
  2.54556142E-02  1.38632906E-03 -8.18778008E-02 -2.26122784E-02  1.74721177E-02
 -4.74685578E-03 -4.91577227E-02  9.61463330E-02 -1.26021036E-01  5.28374749E-02
 -1.44434266E-04  1.01981431E-01 -1.69033953E-02 -2.53404448E-02 -3.17090882E-03
  5.78682787E-02 -1.10491876E-02 -1.50064844E-03 -2.68393918E-04  4.43048541E-02
 -9.98353947E-02 -1.18503861E-02 -1.95992243E-02 -3.69724864E-03 -1.27768976E-01
  3.38522805E-03 -1.29608891E-02 -2.01724703E-03 -1.80266227E-02  2.90581048E-04
 -7.51983669E-03 -1.73760857E-03  2.65910951E-02  1.72662023E-02  6.97493678E-02
  8.74998621E-03  6.95343929E-02  5.65922620E-03  8.33107575E-02  1.48629766E-03
  1.26718985E-01 -2.52022282E-01  3.39510835E-02  1.35066383E-02  2.12938660E-03
 -2.29560492E-01  1.70542474E-02  1.15148337E-02 -5.21037725E-04  1.20464598E-01
  1.83060015E-02  2.66742717E-02 -1.82775363E-03 -5.01661627E-02  1.00963395E-01
  1.94420890E-01  1.21285392E-01  3.85697272E-03  9.59563123E-02  4.05551327E-02
  2.77036214E-02  6.29683183E-04 -7.00117782E-02  4.37841626E-02  2.40378715E-02
 -3.40894977E-03 -1.20890530E-01  2.53720435E-01 -1.01455513E-01  1.47558337E-01
  8.68085866E-03  2.49521303E-01 -1.22290865E-02  4.37688395E-02  4.12951525E-03
 -4.97608040E-02  1.11899322E-02  5.83107177E-03  4.50631876E-03  5.95310783E-02
 -1.38593416E-01 -1.59224425E-02  3.78179411E-02  1.13572468E-03 -1.66444916E-01
 -4.65963190E-03  1.24836645E-02  1.20265211E-05 -2.44124792E-02  6.58297342E-03
 -1.01425459E-02 -2.51425722E-03  1.24461663E-01  3.66813913E-02 -1.12581826E-01
 -3.60219000E-02 -9.85809313E-02 -2.89082261E-02  5.61864672E-02  2.09039807E-02
 -7.03542191E-02  1.42441917E-01 -1.03671445E-01 -1.89875481E-01  2.56413851E-02
  1.64113452E-01 -4.07967917E-02 -5.79488043E-02  9.50371861E-03 -7.23141491E-02
 -1.99725101E-02 -1.94232452E-02  3.18095424E-03  9.44165802E-02 -1.93028774E-01
  8.30266423E-02 -6.04106268E-02  2.30313665E-02 -1.94269575E-01  2.68779995E-02
 -4.86943056E-02  9.74833319E-03  9.01307326E-02 -2.06402122E-03 -2.64804831E-02
  9.44103877E-04 -8.75201123E-02  1.90014502E-01  1.51482287E-01  1.43574575E-01
  5.15815502E-02  2.19839541E-01  5.69512924E-02  6.61659309E-02  2.08696954E-02
 -7.44371582E-03  7.85652908E-03  1.15079406E-02  3.17879361E-03  5.40681707E-02
 -1.25840452E-01  2.04874717E-02  1.31130139E-01  3.32068281E-02 -1.75470577E-01
  1.16290622E-02  4.84049953E-02  1.39099453E-02 -3.21217898E-02  1.56957058E-03
 -6.65454067E-03 -7.28638337E-04  1.82141853E-01  7.69274987E-02  1.11555892E-01
  4.85221593E-02  1.32633667E-01  6.12704500E-02 -1.34750149E-01 -5.10582037E-02
 -2.72859930E-03  6.04920337E-03 -2.05566530E-01  1.34972627E-01 -2.65218794E-02
  1.08865757E-02 -8.79008392E-02  6.03863952E-02 -1.17912561E-02  3.10583099E-02
 -2.28633671E-03  1.01860077E-02 -1.39146299E-03 -1.32781710E-02  2.12230059E-02
 -2.18633536E-01  2.21193359E-01 -3.31623657E-02  5.95182276E-02 -5.51726816E-02
  7.55198842E-02 -1.02358836E-02 -4.84976016E-03  3.82716074E-03  1.28664375E-02
 -5.04331003E-04  1.75446608E-02 -4.16661726E-02  2.32312584E-01  1.61480076E-01
  3.10773749E-02 -5.78111841E-02  8.82394445E-02  8.69793517E-02  1.47469445E-02
 -1.97645442E-02  1.80996241E-02  2.40542491E-03  2.57004719E-03 -2.38205427E-02
  5.37432951E-02  1.75155633E-01  3.90851325E-02  8.00624252E-03  9.74771918E-02
  8.01497732E-02  3.26585726E-02  5.05062994E-03  2.89746545E-02 -7.13422585E-03
  1.23302339E-03 -8.58412856E-04  1.08052197E-01  4.57138347E-02  1.16839173E-01
  5.50619895E-02 -1.02297859E-01 -4.64545772E-02  1.66166485E-01  9.58048936E-02
 -2.69357286E-03  1.08056229E-02  1.55122071E-01  2.84261215E-01 -2.85510339E-02
 -3.44581624E-02  3.92213252E-02  1.00060733E-01 -1.04332713E-02 -6.10679898E-02
  4.88129357E-03  4.87381411E-03  1.16475006E-03 -8.62562380E-03  2.06628841E-02
 -2.09523537E-01 -2.44318456E-01  2.40077540E-02  7.38471310E-03 -5.63328287E-02
 -8.04150659E-02  1.10633314E-02  6.15977201E-02 -2.37957289E-02 -3.34196635E-02
  6.75725389E-04 -2.31795491E-02  6.88927062E-02  2.25562691E-01 -1.48789933E-01
  3.79446976E-02  7.90600946E-02  9.01079157E-02 -5.96491607E-02  1.86622012E-02
 -7.38658489E-04  1.51374311E-02  7.22756401E-03  1.95524963E-03  6.16945630E-02
 -1.34144640E-01 -7.89459003E-02  3.05741015E-01  8.31912221E-02 -2.64176807E-01
 -1.45936009E-02  1.17880656E-01  3.86572459E-02 -8.45282653E-02 -1.45354249E-04
  4.55404579E-03  1.72563888E-03  2.42595287E-02  1.41288866E-02 -7.67795807E-02
 -5.68551354E-02 -1.26524460E-01 -7.82700582E-02 -8.54337481E-02 -6.13960220E-02
 -8.94523646E-03  2.23724645E-02  2.90369988E-01  2.30023554E-02  4.19640386E-02
  1.81174658E-02  1.13026961E-01  1.00661066E-03  2.07030282E-02  5.05032561E-02
  1.62242596E-02  1.30461733E-02  8.61714385E-04 -1.37890912E-02  2.71376230E-02
 -8.95025691E-02 -1.38349669E-01  7.36141812E-02  4.26149217E-02 -4.15497396E-04
 -3.05124153E-02  3.52656107E-02  4.15184866E-02  3.47786999E-02  9.37958781E-03
  2.98894634E-03  3.12237524E-02 -9.11699095E-02  6.57254953E-02  2.60261416E-01
  1.51934910E-01 -7.83809244E-02  6.88598737E-02  7.15230236E-02  7.01655145E-02
 -9.21835190E-02  3.49499119E-02  1.39282665E-04  9.53874155E-03 -5.19587769E-02
  1.13950890E-01  2.81972514E-01 -2.19258512E-01  8.40813433E-02  1.99775175E-01
  1.31119432E-01 -9.08579250E-02  5.24484159E-02  5.43784882E-02  4.53241795E-03
 -1.30898823E-02 -5.92004535E-05  1.27861725E-01  8.75413536E-02 -1.76098429E-01
 -1.23248091E-01  6.57539766E-02  3.80462096E-02 -4.82746955E-02 -4.01477648E-02
  8.43971137E-03 -2.21824138E-02 -1.39512955E-01  4.05766704E-02  8.04919215E-02
 -1.09339898E-02 -4.42399136E-02  2.94533901E-02  4.59765108E-02  1.12672941E-01
  1.14585060E-02  2.17736143E-02  5.42794723E-03  5.17738791E-03 -8.92533755E-03
  4.10621113E-02  4.80547513E-02  1.60153179E-01 -3.54747417E-02  1.62123221E-03
  2.65522392E-02  7.68893317E-02 -1.48053270E-01  1.41265468E-02  3.85749964E-02
 -6.57795283E-03 -7.92455428E-03  1.85006316E-02 -1.06093203E-01 -9.42082474E-02
  3.30536801E-01  2.74811035E-02 -6.62610198E-02 -4.45034256E-02  1.77937481E-01
  3.25478566E-02 -1.81765522E-02 -1.43709285E-02  2.63468702E-02 -7.29616376E-05
  4.06122389E-04 -9.95721246E-02 -9.68591179E-02  4.01822385E-01  4.32601249E-03
 -5.61391560E-02 -5.62472542E-02  2.44310796E-01  3.56241764E-03 -2.11146015E-03
  2.65657184E-03  9.24588251E-03 -3.09149505E-02 -2.08335518E-02  8.42620787E-02
  7.03086430E-02 -5.76867649E-02 -3.47348681E-02 -6.44105617E-04 -1.51494711E-03
 -6.83004081E-03  1.87969121E-02 -1.64605900E-01  2.61904270E-01 -6.20297380E-02
 -1.76855671E-02 -1.04702447E-01  1.26167147E-01 -3.36975349E-02 -4.65882317E-02
 -2.39624963E-02  1.42690379E-02 -6.56077738E-03  9.46631446E-03 -1.33880374E-02
  1.06315108E-01 -2.41130125E-01  1.45037330E-02 -5.81521322E-02  5.45793196E-02
 -1.33144807E-01  8.43676952E-03  8.56411084E-02  2.61987297E-02 -3.85866615E-02
  9.78381405E-03 -1.81774315E-02  2.76748571E-02 -1.72617405E-01  1.49267740E-01
 -4.80756233E-02  6.25567244E-02 -5.76719181E-02  5.32708563E-02 -3.13171098E-02
 -5.26044920E-02  1.12102635E-02  8.00111042E-03 -5.21366381E-03 -2.72617969E-02
  5.78034032E-02  5.83202151E-02 -2.26427137E-01 -1.27240558E-01  1.15707917E-01
  1.94663712E-02 -1.03272966E-01 -7.42173504E-02  4.48241469E-02  5.03826489E-04
 -1.55359153E-02 -4.04282892E-03  4.84414213E-02  3.57930607E-02  1.49945158E-01
  1.02500819E-01 -2.07250364E-01 -1.34429930E-01 -2.08220832E-01 -1.43887681E-01
 -2.97863662E-04  2.23622672E-03 -2.06636211E-02  4.50123736E-02  3.68943575E-01
 -2.67268269E-02 -3.02619879E-02  1.63500535E-02  2.32032159E-01 -1.49754172E-01
 -2.46040389E-02 -2.00580195E-02  2.85711492E-02 -8.15506451E-04 -2.09465607E-03
 -5.71330471E-03  4.40629530E-02  3.69262805E-01  3.41525189E-02 -1.04094589E-02
  2.43499171E-03  2.61400858E-01  1.52528716E-01 -2.78913307E-02 -4.29390544E-02
  6.64772037E-02  1.78993607E-03 -3.87098228E-05 -1.12186108E-02 -1.75941420E-02
 -5.36783938E-02 -2.43794840E-02  2.36722776E-03  1.14990150E-02 -4.27644107E-02
  3.57932369E-03 -4.26773251E-04  4.13256490E-03 -3.76371507E-02 -1.70830843E-03
  5.17456801E-03  4.00623318E-02  9.04819358E-02 -2.59904997E-01  1.39118135E-02
  3.05552123E-02  6.15171867E-02 -1.77448581E-01 -9.48725639E-03  5.56654759E-03
  6.84222099E-03 -1.53393158E-02 -3.58920572E-02 -4.43267121E-02  9.19594162E-04
 -4.67170953E-03  9.54224818E-05 -4.41977255E-03 -2.03610758E-03  1.73291878E-03
  3.02443136E-03 -4.39154774E-03 -4.03826874E-02 -4.77673842E-02 -2.42025654E-02
 -1.18539269E-02 -8.10402198E-02 -1.80884526E-02 -1.68988276E-02 -1.49619853E-01
 -5.31539556E-02 -1.67032022E-02  3.99828627E-03 -3.67128457E-02  6.97141162E-02
  2.20798282E-01 -3.36897426E-02 -1.72396529E-02  3.03867559E-01  2.02848542E-01
 -4.71816977E-02 -3.44996930E-03  2.91664149E-01  3.63725455E-02 -4.72376350E-02
 -3.92068239E-03  1.69910933E-03  1.44313376E-02 -1.29276421E-01 -7.15492701E-02
 -2.46778688E-02 -8.97027666E-02  9.60513814E-02 -1.35579129E-02  1.01871614E-02
 -1.38679134E-01  5.26368593E-02 -1.96672827E-02  7.85615371E-03 -2.06793232E-03
  6.66178961E-03  5.01001655E-01  2.79549393E-01  1.30136963E-01 -7.32538363E-04
  3.40913038E-01  1.85093402E-01  8.65572083E-02 -2.98787593E-02  5.12770421E-02