N.pdb                                                                   
FOpt      RwB97XD                                                     6-31+G              
Number of atoms                            I               13
Info1-9                                    I   N=           9
          24          24           0           0           0         100
           2          18        -802
Charge                                     I                0
Multiplicity                               I                1
Number of electrons                        I               64
Number of alpha electrons                  I               32
Number of beta electrons                   I               32
Number of basis functions                  I              114
Number of independent functions            I              114
Number of point charges in /Mol/           I                0
Number of translation vectors              I                0
Atomic numbers                             I   N=          13
           6           6           1           1           1           6
           8           6           1           1           9           9
           9
Nuclear charges                            R   N=          13
  6.00000000E+00  6.00000000E+00  1.00000000E+00  1.00000000E+00  1.00000000E+00
  6.00000000E+00  8.00000000E+00  6.00000000E+00  1.00000000E+00  1.00000000E+00
  9.00000000E+00  9.00000000E+00  9.00000000E+00
Current cartesian coordinates              R   N=          39
 -5.05483592E+00 -1.39142995E+00  2.11806351E-01 -2.78771064E+00  2.47355590E-01
 -2.78141053E-01 -5.37993311E+00 -2.69988199E+00 -1.36061398E+00 -6.72360768E+00
 -2.17773909E-01  4.99983917E-01 -4.72589700E+00 -2.53477475E+00  1.90997473E+00
 -3.99618416E-01 -1.13681219E+00 -1.13252592E+00 -2.83132544E+00  2.56149721E+00
 -4.15567902E-02  2.01714670E+00 -1.50643573E-01 -6.67622527E-03 -2.49232115E-01
 -9.85475369E-01 -3.19250882E+00 -5.25084961E-01 -3.14345946E+00 -6.61849945E-01
  2.67764197E+00  2.23523391E+00 -8.32252219E-01  4.02745053E+00 -1.74604115E+00
 -6.35856762E-01  1.91762616E+00 -8.04629206E-02  2.62040782E+00
Force Field                                I                0
Int Atom Types                             I   N=          13
           0           0           0           0           0           0
           0           0           0           0           0           0
           0
MM charges                                 R   N=          13
  0.00000000E+00  0.00000000E+00  0.00000000E+00  0.00000000E+00  0.00000000E+00
  0.00000000E+00  0.00000000E+00  0.00000000E+00  0.00000000E+00  0.00000000E+00
  0.00000000E+00  0.00000000E+00  0.00000000E+00
Integer atomic weights                     I   N=          13
          12          12           1           1           1          12
          16          12           1           1          19          19
          19
Real atomic weights                        R   N=          13
  1.20000000E+01  1.20000000E+01  1.00782504E+00  1.00782504E+00  1.00782504E+00
  1.20000000E+01  1.59949146E+01  1.20000000E+01  1.00782504E+00  1.00782504E+00
  1.89984032E+01  1.89984032E+01  1.89984032E+01
Atom fragment info                         I   N=          13
           0           0           0           0           0           0
           0           0           0           0           0           0
           0
Atom residue num                           I   N=          13
           0           0           0           0           0           0
           0           0           0           0           0           0
           0
Nuclear spins                              I   N=          13
           0           0           1           1           1           0
           0           0           1           1           1           1
           1
Nuclear ZEff                               R   N=          13
 -3.60000000E+00 -3.60000000E+00 -1.00000000E+00 -1.00000000E+00 -1.00000000E+00
 -3.60000000E+00 -5.60000000E+00 -3.60000000E+00 -1.00000000E+00 -1.00000000E+00
 -6.75000000E+00 -6.75000000E+00 -6.75000000E+00
Nuclear ZNuc                               R   N=          13
  6.00000000E+00  6.00000000E+00  1.00000000E+00  1.00000000E+00  1.00000000E+00
  6.00000000E+00  8.00000000E+00  6.00000000E+00  1.00000000E+00  1.00000000E+00
  9.00000000E+00  9.00000000E+00  9.00000000E+00
Nuclear QMom                               R   N=          13
  0.00000000E+00  0.00000000E+00  0.00000000E+00  0.00000000E+00  0.00000000E+00
  0.00000000E+00  0.00000000E+00  0.00000000E+00  0.00000000E+00  0.00000000E+00
  0.00000000E+00  0.00000000E+00  0.00000000E+00
Nuclear GFac                               R   N=          13
  0.00000000E+00  0.00000000E+00  2.79284600E+00  2.79284600E+00  2.79284600E+00
  0.00000000E+00  0.00000000E+00  0.00000000E+00  2.79284600E+00  2.79284600E+00
  2.62886700E+00  2.62886700E+00  2.62886700E+00
MicOpt                                     I   N=          13
          -1          -1          -1          -1          -1          -1
          -1          -1          -1          -1          -1          -1
          -1
Number of contracted shells                I               42
Number of primitive shells                 I              108
Pure/Cartesian d shells                    I                1
Pure/Cartesian f shells                    I                0
Highest angular momentum                   I                1
Largest degree of contraction              I                6
Shell types                                I   N=          42
           0          -1          -1          -1           0          -1
          -1          -1           0           0           0           0
           0           0           0          -1          -1          -1
           0          -1          -1          -1           0          -1
          -1          -1           0           0           0           0
           0          -1          -1          -1           0          -1
          -1          -1           0          -1          -1          -1
Number of primitives per shell             I   N=          42
           6           3           1           1           6           3
           1           1           3           1           3           1
           3           1           6           3           1           1
           6           3           1           1           6           3
           1           1           3           1           3           1
           6           3           1           1           6           3
           1           1           6           3           1           1
Shell to atom map                          I   N=          42
           1           1           1           1           2           2
           2           2           3           3           4           4
           5           5           6           6           6           6
           7           7           7           7           8           8
           8           8           9           9          10          10
          11          11          11          11          12          12
          12          12          13          13          13          13
Primitive exponents                        R   N=         108
  3.04752488E+03  4.57369518E+02  1.03948685E+02  2.92101553E+01  9.28666296E+00
  3.16392696E+00  7.86827235E+00  1.88128854E+00  5.44249258E-01  1.68714478E-01
  4.38000000E-02  3.04752488E+03  4.57369518E+02  1.03948685E+02  2.92101553E+01
  9.28666296E+00  3.16392696E+00  7.86827235E+00  1.88128854E+00  5.44249258E-01
  1.68714478E-01  4.38000000E-02  1.87311370E+01  2.82539436E+00  6.40121692E-01
  1.61277759E-01  1.87311370E+01  2.82539436E+00  6.40121692E-01  1.61277759E-01
  1.87311370E+01  2.82539436E+00  6.40121692E-01  1.61277759E-01  3.04752488E+03
  4.57369518E+02  1.03948685E+02  2.92101553E+01  9.28666296E+00  3.16392696E+00
  7.86827235E+00  1.88128854E+00  5.44249258E-01  1.68714478E-01  4.38000000E-02
  5.48467166E+03  8.25234946E+02  1.88046958E+02  5.29645000E+01  1.68975704E+01
  5.79963534E+00  1.55396162E+01  3.59993359E+00  1.01376175E+00  2.70005823E-01
  8.45000000E-02  3.04752488E+03  4.57369518E+02  1.03948685E+02  2.92101553E+01
  9.28666296E+00  3.16392696E+00  7.86827235E+00  1.88128854E+00  5.44249258E-01
  1.68714478E-01  4.38000000E-02  1.87311370E+01  2.82539436E+00  6.40121692E-01
  1.61277759E-01  1.87311370E+01  2.82539436E+00  6.40121692E-01  1.61277759E-01
  7.00171309E+03  1.05136609E+03  2.39285690E+02  6.73974453E+01  2.15199573E+01
  7.40310130E+00  2.08479528E+01  4.80830834E+00  1.34406986E+00  3.58151393E-01
  1.07600000E-01  7.00171309E+03  1.05136609E+03  2.39285690E+02  6.73974453E+01
  2.15199573E+01  7.40310130E+00  2.08479528E+01  4.80830834E+00  1.34406986E+00
  3.58151393E-01  1.07600000E-01  7.00171309E+03  1.05136609E+03  2.39285690E+02
  6.73974453E+01  2.15199573E+01  7.40310130E+00  2.08479528E+01  4.80830834E+00
  1.34406986E+00  3.58151393E-01  1.07600000E-01
Contraction coefficients                   R   N=         108
  1.83473713E-03  1.40373228E-02  6.88426223E-02  2.32184443E-01  4.67941348E-01
  3.62311985E-01 -1.19332420E-01 -1.60854152E-01  1.14345644E+00  1.00000000E+00
  1.00000000E+00  1.83473713E-03  1.40373228E-02  6.88426223E-02  2.32184443E-01
  4.67941348E-01  3.62311985E-01 -1.19332420E-01 -1.60854152E-01  1.14345644E+00
  1.00000000E+00  1.00000000E+00  3.34946043E-02  2.34726953E-01  8.13757326E-01
  1.00000000E+00  3.34946043E-02  2.34726953E-01  8.13757326E-01  1.00000000E+00
  3.34946043E-02  2.34726953E-01  8.13757326E-01  1.00000000E+00  1.83473713E-03
  1.40373228E-02  6.88426223E-02  2.32184443E-01  4.67941348E-01  3.62311985E-01
 -1.19332420E-01 -1.60854152E-01  1.14345644E+00  1.00000000E+00  1.00000000E+00
  1.83107443E-03  1.39501722E-02  6.84450781E-02  2.32714336E-01  4.70192898E-01
  3.58520853E-01 -1.10777550E-01 -1.48026263E-01  1.13076702E+00  1.00000000E+00
  1.00000000E+00  1.83473713E-03  1.40373228E-02  6.88426223E-02  2.32184443E-01
  4.67941348E-01  3.62311985E-01 -1.19332420E-01 -1.60854152E-01  1.14345644E+00
  1.00000000E+00  1.00000000E+00  3.34946043E-02  2.34726953E-01  8.13757326E-01
  1.00000000E+00  3.34946043E-02  2.34726953E-01  8.13757326E-01  1.00000000E+00
  1.81961690E-03  1.39160796E-02  6.84053245E-02  2.33185760E-01  4.71267439E-01
  3.56618546E-01 -1.08506975E-01 -1.46451658E-01  1.12868858E+00  1.00000000E+00
  1.00000000E+00  1.81961690E-03  1.39160796E-02  6.84053245E-02  2.33185760E-01
  4.71267439E-01  3.56618546E-01 -1.08506975E-01 -1.46451658E-01  1.12868858E+00
  1.00000000E+00  1.00000000E+00  1.81961690E-03  1.39160796E-02  6.84053245E-02
  2.33185760E-01  4.71267439E-01  3.56618546E-01 -1.08506975E-01 -1.46451658E-01
  1.12868858E+00  1.00000000E+00  1.00000000E+00
P(S=P) Contraction coefficients            R   N=         108
  0.00000000E+00  0.00000000E+00  0.00000000E+00  0.00000000E+00  0.00000000E+00
  0.00000000E+00  6.89990666E-02  3.16423961E-01  7.44308291E-01  1.00000000E+00
  1.00000000E+00  0.00000000E+00  0.00000000E+00  0.00000000E+00  0.00000000E+00
  0.00000000E+00  0.00000000E+00  6.89990666E-02  3.16423961E-01  7.44308291E-01
  1.00000000E+00  1.00000000E+00  0.00000000E+00  0.00000000E+00  0.00000000E+00
  0.00000000E+00  0.00000000E+00  0.00000000E+00  0.00000000E+00  0.00000000E+00
  0.00000000E+00  0.00000000E+00  0.00000000E+00  0.00000000E+00  0.00000000E+00
  0.00000000E+00  0.00000000E+00  0.00000000E+00  0.00000000E+00  0.00000000E+00
  6.89990666E-02  3.16423961E-01  7.44308291E-01  1.00000000E+00  1.00000000E+00
  0.00000000E+00  0.00000000E+00  0.00000000E+00  0.00000000E+00  0.00000000E+00
  0.00000000E+00  7.08742682E-02  3.39752839E-01  7.27158577E-01  1.00000000E+00
  1.00000000E+00  0.00000000E+00  0.00000000E+00  0.00000000E+00  0.00000000E+00
  0.00000000E+00  0.00000000E+00  6.89990666E-02  3.16423961E-01  7.44308291E-01
  1.00000000E+00  1.00000000E+00  0.00000000E+00  0.00000000E+00  0.00000000E+00
  0.00000000E+00  0.00000000E+00  0.00000000E+00  0.00000000E+00  0.00000000E+00
  0.00000000E+00  0.00000000E+00  0.00000000E+00  0.00000000E+00  0.00000000E+00
  0.00000000E+00  7.16287242E-02  3.45912103E-01  7.22469956E-01  1.00000000E+00
  1.00000000E+00  0.00000000E+00  0.00000000E+00  0.00000000E+00  0.00000000E+00
  0.00000000E+00  0.00000000E+00  7.16287242E-02  3.45912103E-01  7.22469956E-01
  1.00000000E+00  1.00000000E+00  0.00000000E+00  0.00000000E+00  0.00000000E+00
  0.00000000E+00  0.00000000E+00  0.00000000E+00  7.16287242E-02  3.45912103E-01
  7.22469956E-01  1.00000000E+00  1.00000000E+00
Coordinates of each shell                  R   N=         126
 -5.05483592E+00 -1.39142995E+00  2.11806351E-01 -5.05483592E+00 -1.39142995E+00
  2.11806351E-01 -5.05483592E+00 -1.39142995E+00  2.11806351E-01 -5.05483592E+00
 -1.39142995E+00  2.11806351E-01 -2.78771064E+00  2.47355590E-01 -2.78141053E-01
 -2.78771064E+00  2.47355590E-01 -2.78141053E-01 -2.78771064E+00  2.47355590E-01
 -2.78141053E-01 -2.78771064E+00  2.47355590E-01 -2.78141053E-01 -5.37993311E+00
 -2.69988199E+00 -1.36061398E+00 -5.37993311E+00 -2.69988199E+00 -1.36061398E+00
 -6.72360768E+00 -2.17773909E-01  4.99983917E-01 -6.72360768E+00 -2.17773909E-01
  4.99983917E-01 -4.72589700E+00 -2.53477475E+00  1.90997473E+00 -4.72589700E+00
 -2.53477475E+00  1.90997473E+00 -3.99618416E-01 -1.13681219E+00 -1.13252592E+00
 -3.99618416E-01 -1.13681219E+00 -1.13252592E+00 -3.99618416E-01 -1.13681219E+00
 -1.13252592E+00 -3.99618416E-01 -1.13681219E+00 -1.13252592E+00 -2.83132544E+00
  2.56149721E+00 -4.15567902E-02 -2.83132544E+00  2.56149721E+00 -4.15567902E-02
 -2.83132544E+00  2.56149721E+00 -4.15567902E-02 -2.83132544E+00  2.56149721E+00
 -4.15567902E-02  2.01714670E+00 -1.50643573E-01 -6.67622527E-03  2.01714670E+00
 -1.50643573E-01 -6.67622527E-03  2.01714670E+00 -1.50643573E-01 -6.67622527E-03
  2.01714670E+00 -1.50643573E-01 -6.67622527E-03 -2.49232115E-01 -9.85475369E-01
 -3.19250882E+00 -2.49232115E-01 -9.85475369E-01 -3.19250882E+00 -5.25084961E-01
 -3.14345946E+00 -6.61849945E-01 -5.25084961E-01 -3.14345946E+00 -6.61849945E-01
  2.67764197E+00  2.23523391E+00 -8.32252219E-01  2.67764197E+00  2.23523391E+00
 -8.32252219E-01  2.67764197E+00  2.23523391E+00 -8.32252219E-01  2.67764197E+00
  2.23523391E+00 -8.32252219E-01  4.02745053E+00 -1.74604115E+00 -6.35856762E-01
  4.02745053E+00 -1.74604115E+00 -6.35856762E-01  4.02745053E+00 -1.74604115E+00
 -6.35856762E-01  4.02745053E+00 -1.74604115E+00 -6.35856762E-01  1.91762616E+00
 -8.04629206E-02  2.62040782E+00  1.91762616E+00 -8.04629206E-02  2.62040782E+00
  1.91762616E+00 -8.04629206E-02  2.62040782E+00  1.91762616E+00 -8.04629206E-02
  2.62040782E+00
Constraint Structure                       R   N=          39
 -5.05483592E+00 -1.39142995E+00  2.11806351E-01 -2.78771064E+00  2.47355590E-01
 -2.78141053E-01 -5.37993311E+00 -2.69988199E+00 -1.36061398E+00 -6.72360768E+00
 -2.17773909E-01  4.99983917E-01 -4.72589700E+00 -2.53477475E+00  1.90997473E+00
 -3.99618416E-01 -1.13681219E+00 -1.13252592E+00 -2.83132544E+00  2.56149721E+00
 -4.15567902E-02  2.01714670E+00 -1.50643573E-01 -6.67622527E-03 -2.49232115E-01
 -9.85475369E-01 -3.19250882E+00 -5.25084961E-01 -3.14345946E+00 -6.61849945E-01
  2.67764197E+00  2.23523391E+00 -8.32252219E-01  4.02745053E+00 -1.74604115E+00
 -6.35856762E-01  1.91762616E+00 -8.04629206E-02  2.62040782E+00
Num ILSW                                   I              100
ILSW                                       I   N=         100
           0           1           0           0           2           0
           0           0           0           0        4639          -1
           0           0           0           0           2           0
           0           0           0           0           1           0
           1           0           0           0           0           0
           0           0      100000           0          -1           0
           0           0           0           0           0           0
           0           0           0           1           0           0
           0           0           1           0           0           0
           0           0         121          41           0           0
           0           0          58           0           0           0
           0           0           0          13           0           0
           0           0           0           0           0           0
           0           0           0           0           0           0
           0           0           0           0           0           0
           0           0           0           0           0           0
           0           0           0           0
Num RLSW                                   I               41
RLSW                                       R   N=          41
  1.00000000E+00  1.00000000E+00  1.00000000E+00  1.00000000E+00  1.00000000E+00
  0.00000000E+00  2.00000000E-01  2.22036000E-01  0.00000000E+00  7.77964000E-01
  0.00000000E+00  2.00000000E-01  0.00000000E+00  0.00000000E+00  1.00000000E+00
  0.00000000E+00  0.00000000E+00  1.00000000E+00  0.00000000E+00  0.00000000E+00
  0.00000000E+00  0.00000000E+00  1.00000000E+00  0.00000000E+00  0.00000000E+00
  0.00000000E+00  0.00000000E+00  1.00000000E+00  0.00000000E+00  0.00000000E+00
  0.00000000E+00  0.00000000E+00  1.00000000E+00  0.00000000E+00  0.00000000E+00
  0.00000000E+00  0.00000000E+00  0.00000000E+00  1.00000000E+00  1.00000000E+00
  0.00000000E+00
MxBond                                     I                4
NBond                                      I   N=          13
           4           3           1           1           1           4
           1           4           1           1           1           1
           1
IBond                                      I   N=          52
           2           3           4           5           1           6
           7           0           1           0           0           0
           1           0           0           0           1           0
           0           0           2           8           9          10
           2           0           0           0           6          11
          12          13           6           0           0           0
           6           0           0           0           8           0
           0           0           8           0           0           0
           8           0           0           0
RBond                                      R   N=          52
  1.00000000E+00  1.00000000E+00  1.00000000E+00  1.00000000E+00  1.00000000E+00
  1.00000000E+00  2.00000000E+00  0.00000000E+00  1.00000000E+00  0.00000000E+00
  0.00000000E+00  0.00000000E+00  1.00000000E+00  0.00000000E+00  0.00000000E+00
  0.00000000E+00  1.00000000E+00  0.00000000E+00  0.00000000E+00  0.00000000E+00
  1.00000000E+00  1.00000000E+00  1.00000000E+00  1.00000000E+00  2.00000000E+00
  0.00000000E+00  0.00000000E+00  0.00000000E+00  1.00000000E+00  1.00000000E+00
  1.00000000E+00  1.00000000E+00  1.00000000E+00  0.00000000E+00  0.00000000E+00
  0.00000000E+00  1.00000000E+00  0.00000000E+00  0.00000000E+00  0.00000000E+00
  1.00000000E+00  0.00000000E+00  0.00000000E+00  0.00000000E+00  1.00000000E+00
  0.00000000E+00  0.00000000E+00  0.00000000E+00  1.00000000E+00  0.00000000E+00
  0.00000000E+00  0.00000000E+00
Virial Ratio                               R      2.005196684237493E+00
SCF Energy                                 R     -5.299239969481394E+02
Total Energy                               R     -5.299239969481394E+02
RMS Force                                  R      1.329106903702145E-04
RMS Density                                R      5.833409488771659E-09
External E-field                           R   N=          35
  0.00000000E+00  0.00000000E+00  0.00000000E+00  0.00000000E+00  0.00000000E+00
  0.00000000E+00  0.00000000E+00  0.00000000E+00  0.00000000E+00  0.00000000E+00
  0.00000000E+00  0.00000000E+00  0.00000000E+00  0.00000000E+00  0.00000000E+00
  0.00000000E+00  0.00000000E+00  0.00000000E+00  0.00000000E+00  0.00000000E+00
  0.00000000E+00  0.00000000E+00  0.00000000E+00  0.00000000E+00  0.00000000E+00
  0.00000000E+00  0.00000000E+00  0.00000000E+00  0.00000000E+00  0.00000000E+00
  0.00000000E+00  0.00000000E+00  0.00000000E+00  0.00000000E+00  0.00000000E+00
IOpCl                                      I                0
IROHF                                      I                0
Alpha Orbital Energies                     R   N=         114
 -2.48815087E+01 -2.48803735E+01 -2.48793162E+01 -1.93028834E+01 -1.05871026E+01
 -1.04388974E+01 -1.03641767E+01 -1.03271115E+01 -1.42956029E+00 -1.34524718E+00
 -1.34289700E+00 -1.19564147E+00 -9.49191849E-01 -8.79075430E-01 -7.92384691E-01
 -7.04806414E-01 -6.93613496E-01 -6.85621137E-01 -6.35416723E-01 -5.93234943E-01
 -5.88866563E-01 -5.62833874E-01 -5.62156708E-01 -5.54738123E-01 -5.37011129E-01
 -5.30612934E-01 -5.17387136E-01 -5.14778368E-01 -5.05975279E-01 -4.92565772E-01
 -4.64277643E-01 -3.68173623E-01  1.34846959E-02  5.30715152E-02  7.87957879E-02
  9.18243600E-02  9.78722355E-02  1.02034745E-01  1.15872832E-01  1.21817436E-01
  1.22731073E-01  1.29981999E-01  1.46873183E-01  1.53844377E-01  1.63244150E-01
  1.72086212E-01  1.80584700E-01  1.85653760E-01  1.89264070E-01  2.03505886E-01
  2.24384497E-01  2.33529726E-01  2.51395944E-01  2.68193957E-01  2.81206850E-01
  2.98686354E-01  3.19741147E-01  3.30456836E-01  3.36011724E-01  3.49745501E-01
  3.56809959E-01  3.72273110E-01  3.76029297E-01  3.90026848E-01  4.01150326E-01
  4.06761446E-01  4.29631423E-01  4.40760109E-01  4.45373214E-01  4.49521889E-01
  4.53232149E-01  4.62684091E-01  4.72099034E-01  5.12003776E-01  5.26862851E-01
  5.31523023E-01  5.74262630E-01  7.02746316E-01  7.09081765E-01  7.31576363E-01
  7.52567151E-01  7.93552691E-01  8.33475082E-01  8.48846576E-01  8.67901388E-01
  8.88701223E-01  9.07477116E-01  9.38973629E-01  1.05890538E+00  1.09507839E+00
  1.15499147E+00  1.16363311E+00  1.19248627E+00  1.21750621E+00  1.24710114E+00
  1.34108006E+00  1.39541024E+00  1.44747565E+00  1.45954879E+00  1.51872094E+00
  1.57216903E+00  1.60298084E+00  1.65144968E+00  1.68149533E+00  1.69153931E+00
  1.74185283E+00  1.79193435E+00  1.82258100E+00  1.84290904E+00  1.85664276E+00
  2.00647621E+00  2.31453824E+00  2.33557934E+00  2.66918562E+00
Alpha MO coefficients                      R   N=       12996
 -6.95092014E-06 -1.15205966E-04 -1.07174973E-04 -1.90475137E-05 -1.30042234E-06
 -4.44252773E-04 -8.49100476E-06 -8.92694535E-05  2.24276436E-04  1.33981347E-02
  2.93058512E-03  1.74986425E-03 -7.24770096E-04  1.93593574E-05  2.36293645E-04
  2.32312068E-04  2.34145651E-05  3.87865788E-05 -4.45495484E-04 -8.02031545E-04
 -1.65818420E-03 -9.75245677E-05 -8.58360978E-03  4.72941345E-03  2.94528065E-03
 -8.80810415E-04  4.92725341E-05 -1.37891207E-04  3.28825681E-05 -1.31660395E-04
 -8.03373347E-06 -2.13001447E-04  5.77715679E-05  2.43876998E-04 -2.63246619E-04
 -1.46401357E-04 -2.72713113E-05 -1.80965182E-03  3.19696790E-05  8.82117409E-04
 -1.78298360E-03  9.01633976E-03  3.98705181E-03  4.50640002E-04  6.43482137E-04
 -1.53915034E-05 -1.86077482E-04  3.92383191E-05 -1.91531328E-07  5.16472155E-05
  1.38484127E-03  9.36179075E-05 -4.09322425E-04 -1.98490955E-04  4.19408606E-04
  1.72657550E-05 -9.80602353E-05  2.51229438E-05 -1.76360141E-04 -8.24271812E-04
  1.17303660E-04  4.20889395E-05  7.56988885E-04  6.43371195E-03  3.65050154E-04
  1.93715763E-04  1.92768254E-03 -1.77432131E-02  4.61212213E-03  8.92859850E-04
  1.18383549E-03 -1.74889103E-04  3.03283499E-05  2.65877348E-04  1.09425268E-03
  4.64696729E-03  4.68430757E-04 -1.12987333E-05 -2.61576153E-05  2.77915657E-05
 -1.42889014E-03  1.86640348E-04  6.42440520E-04 -6.42033170E-04 -6.16416741E-04
  1.71956743E-04  6.26147499E-04 -1.14528400E-03  6.07377146E-03  4.55283812E-04
 -2.32967621E-05  1.59227726E-05  3.36012241E-05 -1.30734190E-03  5.56101044E-04
 -4.62237539E-04 -6.13704564E-04 -8.26661411E-04  2.74056612E-04 -3.67236923E-04
 -9.73792569E-04  9.95011572E-01  2.79486779E-02  2.10809394E-05 -5.73232927E-05
 -1.45167505E-03 -1.66094798E-02 -3.31353887E-05  7.06066630E-05  2.88280777E-03
  1.02176082E-02 -4.94127283E-04 -1.10145799E-04 -2.69292293E-03 -1.06987962E-05
 -7.31576272E-05  7.58393982E-05  4.28123152E-06 -1.42438056E-07  1.30829041E-03
  1.53572850E-04  3.83138752E-04 -3.15951786E-04  7.08667444E-04  2.73713169E-04
 -2.76874484E-05 -1.13345765E-04  3.19785299E-06  1.63599566E-05 -1.55401472E-04
 -9.40620988E-06 -1.92261932E-05 -6.99505719E-04  1.05823307E-03  1.36986332E-03
  3.59541393E-04 -7.75467045E-03 -2.06741009E-03  6.01149027E-04  3.40589517E-04
 -3.96156017E-07 -3.17242648E-04 -4.73199042E-05 -2.58275698E-04 -5.25914125E-06
  4.24116098E-05  7.31936586E-05  2.97416784E-04 -9.45904093E-05 -3.86541378E-05
 -1.02334549E-04 -2.58868843E-03 -2.58471717E-03 -2.18473721E-04  4.60078351E-06
  1.90771896E-02  1.54337427E-03  2.38074340E-03  2.09827013E-03  1.04314057E-05
  1.42008294E-04  1.01696090E-05 -1.31333515E-05  1.11554743E-05 -9.30833543E-04
 -2.16154436E-04  2.90863125E-04 -3.60349301E-05  4.10836345E-04  1.59469596E-04
 -8.47761783E-05  5.67006394E-05 -2.12140219E-04 -1.04003819E-03  5.57476736E-04
 -3.72616231E-04 -1.29929821E-04  8.93115341E-03  1.69256377E-03 -1.05892326E-03
 -6.31430748E-04 -1.41406744E-02  2.28355515E-03  2.18831434E-03  1.80958118E-03
  3.05899212E-04 -2.18649635E-04  2.10789376E-04 -5.94188067E-04  7.65010880E-03
  5.26977046E-04  1.88150390E-05 -5.28434660E-05 -3.09652458E-06 -1.49341100E-03
 -1.89536386E-04  1.06724429E-03 -1.25056004E-04 -1.63613852E-03 -3.16011595E-04
  1.12104389E-03 -5.68169044E-05  9.94991747E-01  2.79113424E-02 -1.11116707E-03
  8.64060937E-04  3.29556947E-04 -1.65011048E-02  2.27532299E-03 -1.85826829E-03
 -6.94750485E-04  8.66078637E-03 -1.66085928E-03  1.21258172E-03  5.11614195E-04
 -6.06425454E-03  1.11542623E-04  2.00998453E-05 -2.28896302E-05 -1.80262250E-05
 -1.06645776E-03 -4.07749159E-04  3.08184298E-04  8.43835550E-04 -1.81519874E-03
 -5.15687339E-04  3.89640438E-04  1.15806140E-03  2.08452557E-05  2.11859740E-04
  2.62159448E-05 -2.27720228E-06 -2.80188728E-05 -5.59243726E-04 -1.19768333E-04
 -8.90317407E-05  2.00567425E-04  5.71791540E-04 -3.94811533E-04  1.71314841E-05
 -3.86906547E-04 -1.69094375E-05 -3.28671489E-05  1.05455450E-04  4.20972318E-05
  3.48864789E-05  2.48000190E-03  4.28157748E-04  8.47581817E-04 -3.73812160E-04
  1.40874109E-02  5.07052210E-03 -3.15680693E-04 -4.07755267E-04  6.81194443E-05
  9.39092093E-05  1.08562867E-05  1.62537089E-04  1.32180425E-05  1.45683974E-05
  8.62184273E-05  4.64857926E-04 -1.56396237E-04 -2.50915127E-05 -1.40870326E-04
 -3.05983974E-03 -7.55710665E-04 -1.99858802E-03  4.58916476E-04  3.16931221E-04
  5.02543626E-03 -8.45663989E-04  6.03821058E-05  9.28066893E-06  1.56934258E-04
  8.24698277E-05 -5.40481117E-05 -5.47760437E-06 -6.09434705E-04 -2.68335060E-04
  6.55263794E-04  1.24027352E-04 -3.22854817E-03 -6.90591004E-04  4.06391260E-04
  2.49253785E-04 -1.68367481E-04 -7.58007024E-04  2.72816087E-04  7.19228026E-04
 -2.15444241E-04  6.93575631E-03  5.46720246E-04  1.25334862E-03 -2.63167067E-04
 -1.68491426E-02  4.33248136E-03  6.40466144E-05  1.80010912E-03  3.05353506E-04
  5.84702864E-04 -1.10028757E-04 -1.09450560E-04  9.95000377E-01  2.79653632E-02
 -3.77005215E-04 -1.36084584E-03  4.59154639E-04 -1.66393557E-02  7.88725053E-04
  2.60275755E-03 -9.34784251E-04  1.06056244E-02 -1.23254899E-03 -2.49001772E-03
  8.79189853E-04 -7.62972494E-03  9.62248099E-05 -1.57810629E-05  2.94566055E-05
 -1.46355507E-06 -1.19471475E-03  5.14252787E-04 -8.37503693E-04 -7.61614361E-05
 -1.13918611E-03  5.82853156E-05 -9.88004725E-04  4.41988098E-05 -4.55188946E-03
  2.09566246E-04  6.23635789E-06  1.42987094E-05 -3.02069458E-05 -1.29595854E-03
 -1.59407442E-04 -3.17760479E-04  8.86232564E-04 -1.04205018E-03 -2.12639494E-04
 -8.33370885E-04  9.90078453E-04 -1.62188232E-05 -2.92530367E-04  7.56343429E-06
 -1.08665551E-04 -3.23036691E-06  3.03203125E-03  2.02037323E-03 -9.34962515E-04
 -7.65571416E-04  1.73310090E-03  3.35198380E-04  7.92141542E-04  2.81835552E-04
  2.46741840E-04  4.60782834E-04 -1.79332412E-04 -1.26104903E-04 -1.80706761E-05
  6.12202074E-03  9.64008784E-04  1.08662103E-02  8.20114271E-04 -1.70321500E-02
 -3.63105649E-03 -1.45829787E-03  2.06421740E-04 -1.66970334E-04 -4.18638259E-04
  1.26763462E-04  2.33641757E-04 -7.79016370E-05 -1.99641845E-04 -1.90117735E-06
 -2.86702897E-04  1.90811843E-04 -5.80752038E-05 -1.66110730E-04  1.20024374E-03
 -2.75470219E-03 -2.59443765E-03  1.40731719E-03  4.54140065E-03 -2.77607476E-03
  1.38703207E-03  1.37587284E-04  9.95248849E-01  2.99386714E-02  1.15975738E-04
 -2.26956171E-03 -2.45047645E-04 -2.42844814E-02 -5.79339196E-04  5.96768094E-03
  6.86720524E-04  7.90889103E-03  6.84636520E-04 -5.91812930E-04 -9.40663454E-05
 -7.11779727E-06  4.73564424E-06 -1.06187700E-04  2.37765867E-05  9.69912734E-05
  2.11600083E-03  9.20392657E-04 -4.16476834E-04 -2.18953231E-03  8.06709420E-03
 -2.35273491E-03 -4.21407544E-05 -4.59058625E-04  2.89505065E-04  1.39258738E-04
 -3.30627275E-04 -1.34036433E-03  5.71968286E-06  1.63513607E-04 -3.11763390E-05
 -4.45174915E-05 -2.08818967E-05 -5.47888377E-04  9.91974314E-05  3.73729146E-04
  1.29980930E-04 -7.51452615E-04  4.93086904E-06 -2.28123166E-04  2.56470447E-04
  6.17712031E-06  1.24518555E-04 -2.10245289E-05  4.99143170E-05 -3.34125896E-05
 -5.75644317E-04  2.65615323E-04 -3.72141995E-04  1.70532107E-04 -1.59517810E-03
  4.49102155E-04 -4.45344545E-04 -1.72610637E-05 -1.10880442E-05 -1.79258911E-04
 -5.88436300E-05  1.71411365E-05 -1.04167700E-05  1.05473645E-03  8.08150604E-05
 -2.63831264E-05 -1.78143670E-04 -9.96169151E-04  1.82274947E-04 -1.31646678E-04