N.pdb                                                                   
FOpt      RwB97XD                                                     6-31+G              
Number of atoms                            I               13
Info1-9                                    I   N=           9
          24          24           0           0           0         100
           2          18        -802
Charge                                     I                0
Multiplicity                               I                1
Number of electrons                        I               64
Number of alpha electrons                  I               32
Number of beta electrons                   I               32
Number of basis functions                  I              114
Number of independent functions            I              114
Number of point charges in /Mol/           I                0
Number of translation vectors              I                0
Atomic numbers                             I   N=          13
           6           6           1           1           1           6
           8           6           1           1           9           9
           9
Nuclear charges                            R   N=          13
  6.00000000E+00  6.00000000E+00  1.00000000E+00  1.00000000E+00  1.00000000E+00
  6.00000000E+00  8.00000000E+00  6.00000000E+00  1.00000000E+00  1.00000000E+00
  9.00000000E+00  9.00000000E+00  9.00000000E+00
Current cartesian coordinates              R   N=          39
  4.75154230E+00 -1.62253164E+00  2.36019176E-01  2.77122444E+00  3.21463497E-01
 -3.53671753E-01  4.00818273E+00 -2.99489428E+00  1.60000271E+00  6.42598321E+00
 -7.11577698E-01  1.01801809E+00  5.26673653E+00 -2.67022790E+00 -1.47642986E+00
  3.28519163E-01 -6.50912274E-01 -1.56752978E+00  3.06880134E+00  2.59481918E+00
  4.65193292E-02 -1.99511648E+00 -1.18854385E-01 -1.73968778E-02  4.13834781E-01
 -2.69105871E+00 -1.86368955E+00  8.49220579E-02  2.68499943E-01 -3.40359903E+00
 -1.76950389E+00 -1.10416324E+00  2.41948056E+00 -4.11229374E+00 -1.26205382E+00
 -1.09513793E+00 -2.55010088E+00  2.41796307E+00  2.27770521E-01
Force Field                                I                0
Int Atom Types                             I   N=          13
           0           0           0           0           0           0
           0           0           0           0           0           0
           0
MM charges                                 R   N=          13
  0.00000000E+00  0.00000000E+00  0.00000000E+00  0.00000000E+00  0.00000000E+00
  0.00000000E+00  0.00000000E+00  0.00000000E+00  0.00000000E+00  0.00000000E+00
  0.00000000E+00  0.00000000E+00  0.00000000E+00
Integer atomic weights                     I   N=          13
          12          12           1           1           1          12
          16          12           1           1          19          19
          19
Real atomic weights                        R   N=          13
  1.20000000E+01  1.20000000E+01  1.00782504E+00  1.00782504E+00  1.00782504E+00
  1.20000000E+01  1.59949146E+01  1.20000000E+01  1.00782504E+00  1.00782504E+00
  1.89984032E+01  1.89984032E+01  1.89984032E+01
Atom fragment info                         I   N=          13
           0           0           0           0           0           0
           0           0           0           0           0           0
           0
Atom residue num                           I   N=          13
           0           0           0           0           0           0
           0           0           0           0           0           0
           0
Nuclear spins                              I   N=          13
           0           0           1           1           1           0
           0           0           1           1           1           1
           1
Nuclear ZEff                               R   N=          13
 -3.60000000E+00 -3.60000000E+00 -1.00000000E+00 -1.00000000E+00 -1.00000000E+00
 -3.60000000E+00 -5.60000000E+00 -3.60000000E+00 -1.00000000E+00 -1.00000000E+00
 -6.75000000E+00 -6.75000000E+00 -6.75000000E+00
Nuclear ZNuc                               R   N=          13
  6.00000000E+00  6.00000000E+00  1.00000000E+00  1.00000000E+00  1.00000000E+00
  6.00000000E+00  8.00000000E+00  6.00000000E+00  1.00000000E+00  1.00000000E+00
  9.00000000E+00  9.00000000E+00  9.00000000E+00
Nuclear QMom                               R   N=          13
  0.00000000E+00  0.00000000E+00  0.00000000E+00  0.00000000E+00  0.00000000E+00
  0.00000000E+00  0.00000000E+00  0.00000000E+00  0.00000000E+00  0.00000000E+00
  0.00000000E+00  0.00000000E+00  0.00000000E+00
Nuclear GFac                               R   N=          13
  0.00000000E+00  0.00000000E+00  2.79284600E+00  2.79284600E+00  2.79284600E+00
  0.00000000E+00  0.00000000E+00  0.00000000E+00  2.79284600E+00  2.79284600E+00
  2.62886700E+00  2.62886700E+00  2.62886700E+00
MicOpt                                     I   N=          13
          -1          -1          -1          -1          -1          -1
          -1          -1          -1          -1          -1          -1
          -1
Number of contracted shells                I               42
Number of primitive shells                 I              108
Pure/Cartesian d shells                    I                1
Pure/Cartesian f shells                    I                0
Highest angular momentum                   I                1
Largest degree of contraction              I                6
Shell types                                I   N=          42
           0          -1          -1          -1           0          -1
          -1          -1           0           0           0           0
           0           0           0          -1          -1          -1
           0          -1          -1          -1           0          -1
          -1          -1           0           0           0           0
           0          -1          -1          -1           0          -1
          -1          -1           0          -1          -1          -1
Number of primitives per shell             I   N=          42
           6           3           1           1           6           3
           1           1           3           1           3           1
           3           1           6           3           1           1
           6           3           1           1           6           3
           1           1           3           1           3           1
           6           3           1           1           6           3
           1           1           6           3           1           1
Shell to atom map                          I   N=          42
           1           1           1           1           2           2
           2           2           3           3           4           4
           5           5           6           6           6           6
           7           7           7           7           8           8
           8           8           9           9          10          10
          11          11          11          11          12          12
          12          12          13          13          13          13
Primitive exponents                        R   N=         108
  3.04752488E+03  4.57369518E+02  1.03948685E+02  2.92101553E+01  9.28666296E+00
  3.16392696E+00  7.86827235E+00  1.88128854E+00  5.44249258E-01  1.68714478E-01
  4.38000000E-02  3.04752488E+03  4.57369518E+02  1.03948685E+02  2.92101553E+01
  9.28666296E+00  3.16392696E+00  7.86827235E+00  1.88128854E+00  5.44249258E-01
  1.68714478E-01  4.38000000E-02  1.87311370E+01  2.82539436E+00  6.40121692E-01
  1.61277759E-01  1.87311370E+01  2.82539436E+00  6.40121692E-01  1.61277759E-01
  1.87311370E+01  2.82539436E+00  6.40121692E-01  1.61277759E-01  3.04752488E+03
  4.57369518E+02  1.03948685E+02  2.92101553E+01  9.28666296E+00  3.16392696E+00
  7.86827235E+00  1.88128854E+00  5.44249258E-01  1.68714478E-01  4.38000000E-02
  5.48467166E+03  8.25234946E+02  1.88046958E+02  5.29645000E+01  1.68975704E+01
  5.79963534E+00  1.55396162E+01  3.59993359E+00  1.01376175E+00  2.70005823E-01
  8.45000000E-02  3.04752488E+03  4.57369518E+02  1.03948685E+02  2.92101553E+01
  9.28666296E+00  3.16392696E+00  7.86827235E+00  1.88128854E+00  5.44249258E-01
  1.68714478E-01  4.38000000E-02  1.87311370E+01  2.82539436E+00  6.40121692E-01
  1.61277759E-01  1.87311370E+01  2.82539436E+00  6.40121692E-01  1.61277759E-01
  7.00171309E+03  1.05136609E+03  2.39285690E+02  6.73974453E+01  2.15199573E+01
  7.40310130E+00  2.08479528E+01  4.80830834E+00  1.34406986E+00  3.58151393E-01
  1.07600000E-01  7.00171309E+03  1.05136609E+03  2.39285690E+02  6.73974453E+01
  2.15199573E+01  7.40310130E+00  2.08479528E+01  4.80830834E+00  1.34406986E+00
  3.58151393E-01  1.07600000E-01  7.00171309E+03  1.05136609E+03  2.39285690E+02
  6.73974453E+01  2.15199573E+01  7.40310130E+00  2.08479528E+01  4.80830834E+00
  1.34406986E+00  3.58151393E-01  1.07600000E-01
Contraction coefficients                   R   N=         108
  1.83473713E-03  1.40373228E-02  6.88426223E-02  2.32184443E-01  4.67941348E-01
  3.62311985E-01 -1.19332420E-01 -1.60854152E-01  1.14345644E+00  1.00000000E+00
  1.00000000E+00  1.83473713E-03  1.40373228E-02  6.88426223E-02  2.32184443E-01
  4.67941348E-01  3.62311985E-01 -1.19332420E-01 -1.60854152E-01  1.14345644E+00
  1.00000000E+00  1.00000000E+00  3.34946043E-02  2.34726953E-01  8.13757326E-01
  1.00000000E+00  3.34946043E-02  2.34726953E-01  8.13757326E-01  1.00000000E+00
  3.34946043E-02  2.34726953E-01  8.13757326E-01  1.00000000E+00  1.83473713E-03
  1.40373228E-02  6.88426223E-02  2.32184443E-01  4.67941348E-01  3.62311985E-01
 -1.19332420E-01 -1.60854152E-01  1.14345644E+00  1.00000000E+00  1.00000000E+00
  1.83107443E-03  1.39501722E-02  6.84450781E-02  2.32714336E-01  4.70192898E-01
  3.58520853E-01 -1.10777550E-01 -1.48026263E-01  1.13076702E+00  1.00000000E+00
  1.00000000E+00  1.83473713E-03  1.40373228E-02  6.88426223E-02  2.32184443E-01
  4.67941348E-01  3.62311985E-01 -1.19332420E-01 -1.60854152E-01  1.14345644E+00
  1.00000000E+00  1.00000000E+00  3.34946043E-02  2.34726953E-01  8.13757326E-01
  1.00000000E+00  3.34946043E-02  2.34726953E-01  8.13757326E-01  1.00000000E+00
  1.81961690E-03  1.39160796E-02  6.84053245E-02  2.33185760E-01  4.71267439E-01
  3.56618546E-01 -1.08506975E-01 -1.46451658E-01  1.12868858E+00  1.00000000E+00
  1.00000000E+00  1.81961690E-03  1.39160796E-02  6.84053245E-02  2.33185760E-01
  4.71267439E-01  3.56618546E-01 -1.08506975E-01 -1.46451658E-01  1.12868858E+00
  1.00000000E+00  1.00000000E+00  1.81961690E-03  1.39160796E-02  6.84053245E-02
  2.33185760E-01  4.71267439E-01  3.56618546E-01 -1.08506975E-01 -1.46451658E-01
  1.12868858E+00  1.00000000E+00  1.00000000E+00
P(S=P) Contraction coefficients            R   N=         108
  0.00000000E+00  0.00000000E+00  0.00000000E+00  0.00000000E+00  0.00000000E+00
  0.00000000E+00  6.89990666E-02  3.16423961E-01  7.44308291E-01  1.00000000E+00
  1.00000000E+00  0.00000000E+00  0.00000000E+00  0.00000000E+00  0.00000000E+00
  0.00000000E+00  0.00000000E+00  6.89990666E-02  3.16423961E-01  7.44308291E-01
  1.00000000E+00  1.00000000E+00  0.00000000E+00  0.00000000E+00  0.00000000E+00
  0.00000000E+00  0.00000000E+00  0.00000000E+00  0.00000000E+00  0.00000000E+00
  0.00000000E+00  0.00000000E+00  0.00000000E+00  0.00000000E+00  0.00000000E+00
  0.00000000E+00  0.00000000E+00  0.00000000E+00  0.00000000E+00  0.00000000E+00
  6.89990666E-02  3.16423961E-01  7.44308291E-01  1.00000000E+00  1.00000000E+00
  0.00000000E+00  0.00000000E+00  0.00000000E+00  0.00000000E+00  0.00000000E+00
  0.00000000E+00  7.08742682E-02  3.39752839E-01  7.27158577E-01  1.00000000E+00
  1.00000000E+00  0.00000000E+00  0.00000000E+00  0.00000000E+00  0.00000000E+00
  0.00000000E+00  0.00000000E+00  6.89990666E-02  3.16423961E-01  7.44308291E-01
  1.00000000E+00  1.00000000E+00  0.00000000E+00  0.00000000E+00  0.00000000E+00
  0.00000000E+00  0.00000000E+00  0.00000000E+00  0.00000000E+00  0.00000000E+00
  0.00000000E+00  0.00000000E+00  0.00000000E+00  0.00000000E+00  0.00000000E+00
  0.00000000E+00  7.16287242E-02  3.45912103E-01  7.22469956E-01  1.00000000E+00
  1.00000000E+00  0.00000000E+00  0.00000000E+00  0.00000000E+00  0.00000000E+00
  0.00000000E+00  0.00000000E+00  7.16287242E-02  3.45912103E-01  7.22469956E-01
  1.00000000E+00  1.00000000E+00  0.00000000E+00  0.00000000E+00  0.00000000E+00
  0.00000000E+00  0.00000000E+00  0.00000000E+00  7.16287242E-02  3.45912103E-01
  7.22469956E-01  1.00000000E+00  1.00000000E+00
Coordinates of each shell                  R   N=         126
  4.75154230E+00 -1.62253164E+00  2.36019176E-01  4.75154230E+00 -1.62253164E+00
  2.36019176E-01  4.75154230E+00 -1.62253164E+00  2.36019176E-01  4.75154230E+00
 -1.62253164E+00  2.36019176E-01  2.77122444E+00  3.21463497E-01 -3.53671753E-01
  2.77122444E+00  3.21463497E-01 -3.53671753E-01  2.77122444E+00  3.21463497E-01
 -3.53671753E-01  2.77122444E+00  3.21463497E-01 -3.53671753E-01  4.00818273E+00
 -2.99489428E+00  1.60000271E+00  4.00818273E+00 -2.99489428E+00  1.60000271E+00
  6.42598321E+00 -7.11577698E-01  1.01801809E+00  6.42598321E+00 -7.11577698E-01
  1.01801809E+00  5.26673653E+00 -2.67022790E+00 -1.47642986E+00  5.26673653E+00
 -2.67022790E+00 -1.47642986E+00  3.28519163E-01 -6.50912274E-01 -1.56752978E+00
  3.28519163E-01 -6.50912274E-01 -1.56752978E+00  3.28519163E-01 -6.50912274E-01
 -1.56752978E+00  3.28519163E-01 -6.50912274E-01 -1.56752978E+00  3.06880134E+00
  2.59481918E+00  4.65193292E-02  3.06880134E+00  2.59481918E+00  4.65193292E-02
  3.06880134E+00  2.59481918E+00  4.65193292E-02  3.06880134E+00  2.59481918E+00
  4.65193292E-02 -1.99511648E+00 -1.18854385E-01 -1.73968778E-02 -1.99511648E+00
 -1.18854385E-01 -1.73968778E-02 -1.99511648E+00 -1.18854385E-01 -1.73968778E-02
 -1.99511648E+00 -1.18854385E-01 -1.73968778E-02  4.13834781E-01 -2.69105871E+00
 -1.86368955E+00  4.13834781E-01 -2.69105871E+00 -1.86368955E+00  8.49220579E-02
  2.68499943E-01 -3.40359903E+00  8.49220579E-02  2.68499943E-01 -3.40359903E+00
 -1.76950389E+00 -1.10416324E+00  2.41948056E+00 -1.76950389E+00 -1.10416324E+00
  2.41948056E+00 -1.76950389E+00 -1.10416324E+00  2.41948056E+00 -1.76950389E+00
 -1.10416324E+00  2.41948056E+00 -4.11229374E+00 -1.26205382E+00 -1.09513793E+00
 -4.11229374E+00 -1.26205382E+00 -1.09513793E+00 -4.11229374E+00 -1.26205382E+00
 -1.09513793E+00 -4.11229374E+00 -1.26205382E+00 -1.09513793E+00 -2.55010088E+00
  2.41796307E+00  2.27770521E-01 -2.55010088E+00  2.41796307E+00  2.27770521E-01
 -2.55010088E+00  2.41796307E+00  2.27770521E-01 -2.55010088E+00  2.41796307E+00
  2.27770521E-01
Constraint Structure                       R   N=          39
  4.75154230E+00 -1.62253164E+00  2.36019176E-01  2.77122444E+00  3.21463497E-01
 -3.53671753E-01  4.00818273E+00 -2.99489428E+00  1.60000271E+00  6.42598321E+00
 -7.11577698E-01  1.01801809E+00  5.26673653E+00 -2.67022790E+00 -1.47642986E+00
  3.28519163E-01 -6.50912274E-01 -1.56752978E+00  3.06880134E+00  2.59481918E+00
  4.65193292E-02 -1.99511648E+00 -1.18854385E-01 -1.73968778E-02  4.13834781E-01
 -2.69105871E+00 -1.86368955E+00  8.49220579E-02  2.68499943E-01 -3.40359903E+00
 -1.76950389E+00 -1.10416324E+00  2.41948056E+00 -4.11229374E+00 -1.26205382E+00
 -1.09513793E+00 -2.55010088E+00  2.41796307E+00  2.27770521E-01
Num ILSW                                   I              100
ILSW                                       I   N=         100
           0           1           0           0           2           0
           0           0           0           0        4639          -1
           0           0           0           0           2           0
           0           0           0           0           1           0
           1           0           0           0           0           0
           0           0      100000           0          -1           0
           0           0           0           0           0           0
           0           0           0           1           0           0
           0           0           1           0           0           0
           0           0         121          41           0           0
           0           0          58           0           0           0
           0           0           0          13           0           0
           0           0           0           0           0           0
           0           0           0           0           0           0
           0           0           0           0           0           0
           0           0           0           0           0           0
           0           0           0           0
Num RLSW                                   I               41
RLSW                                       R   N=          41
  1.00000000E+00  1.00000000E+00  1.00000000E+00  1.00000000E+00  1.00000000E+00
  0.00000000E+00  2.00000000E-01  2.22036000E-01  0.00000000E+00  7.77964000E-01
  0.00000000E+00  2.00000000E-01  0.00000000E+00  0.00000000E+00  1.00000000E+00
  0.00000000E+00  0.00000000E+00  1.00000000E+00  0.00000000E+00  0.00000000E+00
  0.00000000E+00  0.00000000E+00  1.00000000E+00  0.00000000E+00  0.00000000E+00
  0.00000000E+00  0.00000000E+00  1.00000000E+00  0.00000000E+00  0.00000000E+00
  0.00000000E+00  0.00000000E+00  1.00000000E+00  0.00000000E+00  0.00000000E+00
  0.00000000E+00  0.00000000E+00  0.00000000E+00  1.00000000E+00  1.00000000E+00
  0.00000000E+00
MxBond                                     I                4
NBond                                      I   N=          13
           4           3           1           1           1           4
           1           4           1           1           1           1
           1
IBond                                      I   N=          52
           2           3           4           5           1           6
           7           0           1           0           0           0
           1           0           0           0           1           0
           0           0           2           8           9          10
           2           0           0           0           6          11
          12          13           6           0           0           0
           6           0           0           0           8           0
           0           0           8           0           0           0
           8           0           0           0
RBond                                      R   N=          52
  1.00000000E+00  1.00000000E+00  1.00000000E+00  1.00000000E+00  1.00000000E+00
  1.00000000E+00  2.00000000E+00  0.00000000E+00  1.00000000E+00  0.00000000E+00
  0.00000000E+00  0.00000000E+00  1.00000000E+00  0.00000000E+00  0.00000000E+00
  0.00000000E+00  1.00000000E+00  0.00000000E+00  0.00000000E+00  0.00000000E+00
  1.00000000E+00  1.00000000E+00  1.00000000E+00  1.00000000E+00  2.00000000E+00
  0.00000000E+00  0.00000000E+00  0.00000000E+00  1.00000000E+00  1.00000000E+00
  1.00000000E+00  1.00000000E+00  1.00000000E+00  0.00000000E+00  0.00000000E+00
  0.00000000E+00  1.00000000E+00  0.00000000E+00  0.00000000E+00  0.00000000E+00
  1.00000000E+00  0.00000000E+00  0.00000000E+00  0.00000000E+00  1.00000000E+00
  0.00000000E+00  0.00000000E+00  0.00000000E+00  1.00000000E+00  0.00000000E+00
  0.00000000E+00  0.00000000E+00
Virial Ratio                               R      2.005195533237868E+00
SCF Energy                                 R     -5.299242485684288E+02
Total Energy                               R     -5.299242485684288E+02
RMS Force                                  R      2.926612511976061E-04
RMS Density                                R      4.253789791957239E-09
External E-field                           R   N=          35
  0.00000000E+00  0.00000000E+00  0.00000000E+00  0.00000000E+00  0.00000000E+00
  0.00000000E+00  0.00000000E+00  0.00000000E+00  0.00000000E+00  0.00000000E+00
  0.00000000E+00  0.00000000E+00  0.00000000E+00  0.00000000E+00  0.00000000E+00
  0.00000000E+00  0.00000000E+00  0.00000000E+00  0.00000000E+00  0.00000000E+00
  0.00000000E+00  0.00000000E+00  0.00000000E+00  0.00000000E+00  0.00000000E+00
  0.00000000E+00  0.00000000E+00  0.00000000E+00  0.00000000E+00  0.00000000E+00
  0.00000000E+00  0.00000000E+00  0.00000000E+00  0.00000000E+00  0.00000000E+00
IOpCl                                      I                0
IROHF                                      I                0
Alpha Orbital Energies                     R   N=         114
 -2.48841612E+01 -2.48835197E+01 -2.48822802E+01 -1.93037075E+01 -1.05899310E+01
 -1.04386599E+01 -1.03632096E+01 -1.03258706E+01 -1.43244126E+00 -1.34751698E+00
 -1.34647577E+00 -1.19584293E+00 -9.49599899E-01 -8.77825912E-01 -7.93820619E-01
 -7.06221966E-01 -6.95904568E-01 -6.86963814E-01 -6.38056675E-01 -5.93187873E-01
 -5.85696426E-01 -5.65623862E-01 -5.64747520E-01 -5.56839858E-01 -5.36661006E-01
 -5.32876731E-01 -5.17905868E-01 -5.16772278E-01 -5.07079084E-01 -4.94465623E-01
 -4.63989797E-01 -3.68423966E-01  1.05213893E-02  5.28169999E-02  7.84756813E-02
  9.33422330E-02  9.76662448E-02  1.02484799E-01  1.14447792E-01  1.22931440E-01
  1.24007057E-01  1.28675770E-01  1.49197778E-01  1.56277155E-01  1.62800016E-01
  1.69050697E-01  1.77274031E-01  1.81206668E-01  1.89860647E-01  1.99943176E-01
  2.26269048E-01  2.28331573E-01  2.59280195E-01  2.66736054E-01  2.76741229E-01
  2.98876729E-01  3.14625119E-01  3.26630956E-01  3.37840569E-01  3.50911708E-01
  3.63658444E-01  3.79488662E-01  3.82450571E-01  3.92666769E-01  3.98852688E-01
  4.12696947E-01  4.26600267E-01  4.29001694E-01  4.43188837E-01  4.45654765E-01
  4.48353644E-01  4.56543508E-01  4.67746091E-01  5.03842505E-01  5.22361341E-01
  5.27090388E-01  5.84243029E-01  6.94525027E-01  7.26857826E-01  7.38033325E-01
  7.50812249E-01  7.97489548E-01  8.30544755E-01  8.55316550E-01  8.74155693E-01
  8.79341940E-01  9.06202297E-01  9.51539719E-01  1.03144890E+00  1.09850661E+00
  1.15730581E+00  1.17695254E+00  1.20396194E+00  1.21651870E+00  1.28153382E+00
  1.34391204E+00  1.38765708E+00  1.43252150E+00  1.46377652E+00  1.51091057E+00
  1.56414315E+00  1.59487440E+00  1.66223007E+00  1.68691924E+00  1.69472391E+00
  1.73585205E+00  1.79718280E+00  1.82190668E+00  1.84258049E+00  1.85221898E+00
  2.02388285E+00  2.30887821E+00  2.36112793E+00  2.66194924E+00
Alpha MO coefficients                      R   N=       12996
 -1.58537122E-05 -1.78210990E-04  8.50293116E-05 -1.96537541E-06  2.78860537E-05
 -1.23250418E-04 -1.10313638E-04 -1.62040322E-04  2.67198470E-04  1.38291927E-02
 -2.91077032E-03  2.02445146E-03 -6.45126554E-04  3.81965858E-05  4.14381285E-04
 -2.64319880E-04 -5.16231362E-06  6.29483922E-05 -1.83455277E-03  8.42666239E-04
 -2.26466041E-03 -5.28589658E-04 -1.11846231E-02 -3.18398670E-03  4.00457026E-03
 -1.31591064E-03  1.83618605E-05 -3.21028483E-04  2.71719742E-05 -2.06446240E-04
  1.64762279E-05 -7.26566831E-05  5.55199646E-05  2.38228248E-04  2.69513914E-04
 -1.11699728E-04 -8.06617759E-05 -1.77140852E-03  2.27584190E-04  1.66565766E-03
 -1.46878488E-03  2.47248304E-03 -2.20483061E-03 -6.41941963E-04 -5.54935104E-04
 -2.29920760E-05 -3.24642589E-04  2.48350352E-05  4.31871882E-05  2.69651550E-05
  1.89641337E-03 -4.15004955E-04 -8.18189010E-04 -1.80056926E-04  2.22408032E-03
 -3.85932226E-04 -7.44691426E-04  1.78890200E-04 -1.91358749E-04 -9.26214153E-04
 -1.11899702E-04 -2.70110853E-04  7.16003676E-04  6.87093588E-03  3.63634538E-06
 -4.20405901E-04  1.82380122E-03 -1.00906664E-02 -2.80063425E-03  4.43254556E-04
  1.12434542E-03  2.53358984E-04  1.43871094E-03 -2.32835370E-04  2.57964734E-04
  9.94965499E-01  2.79904698E-02 -7.04110478E-05  5.34032879E-04 -1.33859675E-03
 -1.67940899E-02  9.45370063E-05 -1.13751852E-03  2.68452904E-03  1.06049352E-02
  6.49292372E-04  1.12843385E-03 -2.71516217E-03  1.14937045E-02  6.15884957E-04
  3.08992381E-05  3.23017792E-06  3.80991079E-05 -1.42239598E-03 -6.15665458E-04
 -1.65709794E-04 -7.07301263E-04 -6.16131453E-04 -2.04792946E-04  1.13063162E-04
 -1.02662908E-03  4.82702726E-03  4.54358501E-04  1.36309952E-05 -4.70103449E-05
  1.23544104E-05 -1.37584046E-03 -2.06010964E-04  9.35580266E-04 -3.09600438E-04
 -1.21542747E-03 -2.33111261E-04  1.14747860E-03 -8.61094024E-04 -1.09257909E-05
 -9.23046131E-05 -3.55375661E-05  7.67371073E-06  1.08621328E-05  1.05383194E-03
 -5.48787071E-05  4.02144797E-04 -3.72702218E-04  3.53193760E-03 -7.61068200E-04
  5.03801395E-04 -2.10654150E-04  7.73851608E-08 -1.89339628E-05  1.47213385E-04
  3.35064537E-06 -2.53039867E-05 -6.82537501E-04 -9.73693488E-04  8.66803304E-04
  4.57409429E-04 -9.09372903E-03  8.56123795E-04  1.25437195E-03 -5.22673891E-07
 -1.63621475E-05  1.74296578E-04 -2.90695709E-05 -2.25894863E-04 -1.15635757E-05
 -3.27613152E-04  7.31478879E-05  3.06046878E-04  9.35023296E-05 -3.27004632E-06
 -1.10364954E-04 -2.58898122E-03  2.28922798E-03 -1.85335241E-04 -1.04420682E-04
  1.57220482E-02 -1.23596247E-03  9.88923691E-04  2.20856599E-03  7.54208223E-06
  1.01983661E-04 -1.28184182E-05 -8.52897658E-06  2.05759520E-05 -6.32882625E-04
  2.36656080E-04  1.65038878E-04 -8.32356758E-05  7.05009101E-04 -9.13813505E-05
 -3.40560217E-04  8.17538138E-05 -2.02459926E-04 -9.83182245E-04 -5.93987375E-04
 -2.68531537E-04 -2.48483041E-04  8.53143547E-03 -1.76336666E-03 -6.55559836E-04
 -7.53806085E-04 -1.26355977E-02 -1.82446795E-03  1.30016537E-03  2.54004425E-03
  2.09473592E-04 -3.86555371E-04  2.99082698E-04 -9.55877172E-05 -1.14778045E-02
 -2.91303227E-05 -2.51469353E-05 -1.74633221E-05 -1.45348019E-05 -1.03927012E-03
  4.60635490E-04 -5.64842845E-05  8.41639455E-04 -1.60723743E-03  6.71353798E-04
 -1.12132251E-04  1.10473708E-03  9.94952732E-01  2.78989437E-02  1.17695234E-03
  6.25657121E-04  5.79929487E-04 -1.64361527E-02 -2.38514157E-03 -1.33055767E-03
 -1.22779811E-03  8.72496519E-03  1.78277433E-03  8.66649142E-04  8.40429024E-04
  6.23454284E-03  4.77229269E-04 -1.98742325E-05 -4.33308991E-05 -2.17779024E-05
 -1.41700584E-03  2.39098550E-04  9.90247004E-04  2.90999708E-04 -1.60500522E-03
  3.94486554E-04  1.02918844E-03  3.24919438E-04  4.38448322E-06  5.00486735E-05
 -1.11086465E-05  1.50179192E-06 -4.69270863E-05  1.89124633E-04 -1.78127280E-04
  3.92759950E-06  1.83870694E-04 -1.42859123E-03  6.90966066E-04 -2.64739972E-04
 -5.27196712E-04  1.15359450E-06  1.26354732E-04 -1.02744824E-04 -1.05845777E-05
  2.59308657E-05  1.47559226E-03 -2.38899489E-04  1.22323275E-03 -2.20234649E-04
  1.46933567E-02 -3.83717110E-03 -6.86346672E-04  3.27057329E-04 -2.40613340E-05
 -1.80341357E-04 -3.91201616E-06  2.69570287E-05  5.95604214E-05 -9.07356885E-05
  7.06944858E-05  3.48213618E-04  1.72597719E-04  1.18667395E-05 -1.47229531E-04
 -2.20136117E-03  6.02208076E-04 -1.84922155E-03 -1.13007088E-04  3.84240431E-03
 -5.09403275E-03  5.86977890E-09  4.49353773E-04  5.28424483E-06  8.62878860E-05
 -6.32115647E-05 -4.44243081E-05 -1.36835517E-06 -3.92303363E-04  2.38371618E-04
  5.24589632E-04  1.53864506E-04 -3.53049806E-03  7.02856299E-04  6.00115902E-04
 -1.16183783E-04 -1.58520650E-04 -6.95884811E-04 -2.27706941E-04  7.63842265E-04
  9.46590621E-05  6.51715011E-03 -7.87579339E-04  1.21038209E-03  4.84867378E-04
 -1.86029111E-02 -4.61686944E-03 -6.96136945E-04  2.15255350E-03 -1.19071041E-04
 -2.15294137E-04  2.77461071E-04  5.01053204E-04 -4.70780191E-03  1.85178767E-04
 -1.28804367E-05  1.32904876E-05 -2.11979004E-05 -1.22527038E-03  2.13257016E-04
 -5.93988508E-04  6.65219961E-04 -1.17588987E-03  1.56184525E-04 -1.23682000E-03
  6.02972595E-04 -6.24236338E-03  1.27183737E-04  1.66064879E-05  2.70572033E-05
  1.27246158E-05 -1.18921391E-03 -5.40114171E-04 -7.11658982E-04 -3.85027439E-04
 -1.17617330E-03 -1.35703313E-04 -9.33312792E-04 -4.04504626E-04  9.95007980E-01
  2.79418603E-02  3.11603434E-04 -1.44176955E-03 -1.42689670E-04 -1.65346878E-02
 -6.13601079E-04  2.73294913E-03  2.30291124E-04  1.06191435E-02  1.01860660E-03
 -2.57571046E-03 -2.75993555E-04 -1.69730213E-05 -3.03453288E-04  2.14193409E-07
 -1.17726346E-04 -6.87198651E-06  3.03598154E-03 -2.16880104E-03 -5.08190827E-04
 -1.04808531E-03  4.84931632E-03 -1.03646903E-03  1.22589152E-03  3.93275502E-04
  2.33509001E-04  2.99728462E-04  2.19308024E-04 -9.78708401E-05 -3.49693154E-06
  6.51726075E-03  4.24033686E-05  1.07855482E-02  1.48725632E-03 -2.25103787E-02
  3.60670102E-03 -5.53628982E-04  1.11496065E-04 -1.19461440E-04 -4.47679717E-05
  1.36229959E-04  3.27552420E-04 -1.68275720E-04 -9.09334056E-05 -4.14305650E-05
 -6.18175955E-04 -2.40471186E-04  5.42686162E-07 -1.36807523E-04  2.88425435E-03
  1.67386240E-03 -3.22482566E-03  1.66156527E-03  4.33684481E-04  4.37636100E-03
  5.20131838E-04 -1.21529555E-03  9.95252681E-01  2.99999561E-02 -3.70353133E-04
 -2.21413548E-03 -4.05814164E-04 -2.45694829E-02  1.29816921E-03  5.83691211E-03
  1.12718808E-03  9.18498206E-03 -1.06581387E-03 -8.08163780E-04 -2.19915780E-04
  5.32263170E-05  4.68817781E-04  2.11667243E-04 -1.85440143E-06  1.01355873E-04
 -7.15871547E-04 -2.17006675E-03  1.08055117E-03 -2.33894561E-03  1.28921759E-02
  3.29677785E-03  2.42712327E-04 -8.67588832E-04 -4.86105812E-04 -1.08464335E-03
  2.75540919E-04  6.70543465E-04 -1.52200003E-05 -3.15589086E-04  9.05588415E-06
 -2.50587251E-05  4.94648922E-05  1.44027564E-03  7.59291651E-05  2.91632079E-04
 -5.86677952E-04  6.62830578E-04  1.87746147E-04 -9.84247014E-05 -2.46980644E-04
  3.34696046E-06  7.77537045E-05  1.04263171E-05  6.22889438E-05 -2.11541811E-05
 -3.86205283E-04 -1.22447908E-04 -4.07834684E-04  1.05332660E-04 -1.62751443E-03
 -5.41509831E-04 -4.76386612E-04 -2.75788334E-04  1.08947389E-06  7.54480646E-05
  2.06478700E-05 -2.72816852E-05 -5.66211997E-05 -1.66038762E-04  4.50551440E-05
  1.66557922E-04  3.65843706E-04 -1.15384793E-03  5.00444078E-06 -9.86245343E-05