B.pdb                                                                   
FOpt      RwB97XD                                                     6-31+G              
Number of atoms                            I               10
Info1-9                                    I   N=           9
          21          21           0           0           0         110
           2          18        -802
Charge                                     I                0
Multiplicity                               I                1
Number of electrons                        I               38
Number of alpha electrons                  I               19
Number of beta electrons                   I               19
Number of basis functions                  I               75
Number of independent functions            I               75
Number of point charges in /Mol/           I                0
Number of translation vectors              I                0
Atomic numbers                             I   N=          10
           6           6           6           6           1           1
           9           1           1           1
Nuclear charges                            R   N=          10
  6.00000000E+00  6.00000000E+00  6.00000000E+00  6.00000000E+00  1.00000000E+00
  1.00000000E+00  9.00000000E+00  1.00000000E+00  1.00000000E+00  1.00000000E+00
Current cartesian coordinates              R   N=          30
 -2.91472414E+00 -1.61723242E+00 -4.38841603E-01 -9.67656100E-01 -1.69017158E-01
  2.04216099E-01  1.66948790E+00 -8.98691590E-01  7.30089022E-01  3.64214409E+00
 -2.63218638E-02 -5.86093180E-01 -4.74661403E+00 -8.08942586E-01 -8.57208161E-01
 -2.69374243E+00 -3.64944375E+00 -5.32997935E-01 -1.33776525E+00  2.48158803E+00
  2.21776207E-01  1.94027009E+00 -2.31789647E+00  2.19171814E+00  3.41538042E+00
  1.36811724E+00 -2.07373674E+00  5.54908263E+00 -6.58548485E-01 -1.79983194E-01
Force Field                                I                0
Int Atom Types                             I   N=          10
           0           0           0           0           0           0
           0           0           0           0
MM charges                                 R   N=          10
  0.00000000E+00  0.00000000E+00  0.00000000E+00  0.00000000E+00  0.00000000E+00
  0.00000000E+00  0.00000000E+00  0.00000000E+00  0.00000000E+00  0.00000000E+00
Integer atomic weights                     I   N=          10
          12          12          12          12           1           1
          19           1           1           1
Real atomic weights                        R   N=          10
  1.20000000E+01  1.20000000E+01  1.20000000E+01  1.20000000E+01  1.00782504E+00
  1.00782504E+00  1.89984032E+01  1.00782504E+00  1.00782504E+00  1.00782504E+00
Atom fragment info                         I   N=          10
           0           0           0           0           0           0
           0           0           0           0
Atom residue num                           I   N=          10
           0           0           0           0           0           0
           0           0           0           0
Nuclear spins                              I   N=          10
           0           0           0           0           1           1
           1           1           1           1
Nuclear ZEff                               R   N=          10
 -3.60000000E+00 -3.60000000E+00 -3.60000000E+00 -3.60000000E+00 -1.00000000E+00
 -1.00000000E+00 -6.75000000E+00 -1.00000000E+00 -1.00000000E+00 -1.00000000E+00
Nuclear ZNuc                               R   N=          10
  6.00000000E+00  6.00000000E+00  6.00000000E+00  6.00000000E+00  1.00000000E+00
  1.00000000E+00  9.00000000E+00  1.00000000E+00  1.00000000E+00  1.00000000E+00
Nuclear QMom                               R   N=          10
  0.00000000E+00  0.00000000E+00  0.00000000E+00  0.00000000E+00  0.00000000E+00
  0.00000000E+00  0.00000000E+00  0.00000000E+00  0.00000000E+00  0.00000000E+00
Nuclear GFac                               R   N=          10
  0.00000000E+00  0.00000000E+00  0.00000000E+00  0.00000000E+00  2.79284600E+00
  2.79284600E+00  2.62886700E+00  2.79284600E+00  2.79284600E+00  2.79284600E+00
MicOpt                                     I   N=          10
          -1          -1          -1          -1          -1          -1
          -1          -1          -1          -1
Number of contracted shells                I               30
Number of primitive shells                 I               75
Pure/Cartesian d shells                    I                1
Pure/Cartesian f shells                    I                0
Highest angular momentum                   I                1
Largest degree of contraction              I                6
Shell types                                I   N=          30
           0          -1          -1          -1           0          -1
          -1          -1           0          -1          -1          -1
           0          -1          -1          -1           0           0
           0           0           0          -1          -1          -1
           0           0           0           0           0           0
Number of primitives per shell             I   N=          30
           6           3           1           1           6           3
           1           1           6           3           1           1
           6           3           1           1           3           1
           3           1           6           3           1           1
           3           1           3           1           3           1
Shell to atom map                          I   N=          30
           1           1           1           1           2           2
           2           2           3           3           3           3
           4           4           4           4           5           5
           6           6           7           7           7           7
           8           8           9           9          10          10
Primitive exponents                        R   N=          75
  3.04752488E+03  4.57369518E+02  1.03948685E+02  2.92101553E+01  9.28666296E+00
  3.16392696E+00  7.86827235E+00  1.88128854E+00  5.44249258E-01  1.68714478E-01
  4.38000000E-02  3.04752488E+03  4.57369518E+02  1.03948685E+02  2.92101553E+01
  9.28666296E+00  3.16392696E+00  7.86827235E+00  1.88128854E+00  5.44249258E-01
  1.68714478E-01  4.38000000E-02  3.04752488E+03  4.57369518E+02  1.03948685E+02
  2.92101553E+01  9.28666296E+00  3.16392696E+00  7.86827235E+00  1.88128854E+00
  5.44249258E-01  1.68714478E-01  4.38000000E-02  3.04752488E+03  4.57369518E+02
  1.03948685E+02  2.92101553E+01  9.28666296E+00  3.16392696E+00  7.86827235E+00
  1.88128854E+00  5.44249258E-01  1.68714478E-01  4.38000000E-02  1.87311370E+01
  2.82539436E+00  6.40121692E-01  1.61277759E-01  1.87311370E+01  2.82539436E+00
  6.40121692E-01  1.61277759E-01  7.00171309E+03  1.05136609E+03  2.39285690E+02
  6.73974453E+01  2.15199573E+01  7.40310130E+00  2.08479528E+01  4.80830834E+00
  1.34406986E+00  3.58151393E-01  1.07600000E-01  1.87311370E+01  2.82539436E+00
  6.40121692E-01  1.61277759E-01  1.87311370E+01  2.82539436E+00  6.40121692E-01
  1.61277759E-01  1.87311370E+01  2.82539436E+00  6.40121692E-01  1.61277759E-01
Contraction coefficients                   R   N=          75
  1.83473713E-03  1.40373228E-02  6.88426223E-02  2.32184443E-01  4.67941348E-01
  3.62311985E-01 -1.19332420E-01 -1.60854152E-01  1.14345644E+00  1.00000000E+00
  1.00000000E+00  1.83473713E-03  1.40373228E-02  6.88426223E-02  2.32184443E-01
  4.67941348E-01  3.62311985E-01 -1.19332420E-01 -1.60854152E-01  1.14345644E+00
  1.00000000E+00  1.00000000E+00  1.83473713E-03  1.40373228E-02  6.88426223E-02
  2.32184443E-01  4.67941348E-01  3.62311985E-01 -1.19332420E-01 -1.60854152E-01
  1.14345644E+00  1.00000000E+00  1.00000000E+00  1.83473713E-03  1.40373228E-02
  6.88426223E-02  2.32184443E-01  4.67941348E-01  3.62311985E-01 -1.19332420E-01
 -1.60854152E-01  1.14345644E+00  1.00000000E+00  1.00000000E+00  3.34946043E-02
  2.34726953E-01  8.13757326E-01  1.00000000E+00  3.34946043E-02  2.34726953E-01
  8.13757326E-01  1.00000000E+00  1.81961690E-03  1.39160796E-02  6.84053245E-02
  2.33185760E-01  4.71267439E-01  3.56618546E-01 -1.08506975E-01 -1.46451658E-01
  1.12868858E+00  1.00000000E+00  1.00000000E+00  3.34946043E-02  2.34726953E-01
  8.13757326E-01  1.00000000E+00  3.34946043E-02  2.34726953E-01  8.13757326E-01
  1.00000000E+00  3.34946043E-02  2.34726953E-01  8.13757326E-01  1.00000000E+00
P(S=P) Contraction coefficients            R   N=          75
  0.00000000E+00  0.00000000E+00  0.00000000E+00  0.00000000E+00  0.00000000E+00
  0.00000000E+00  6.89990666E-02  3.16423961E-01  7.44308291E-01  1.00000000E+00
  1.00000000E+00  0.00000000E+00  0.00000000E+00  0.00000000E+00  0.00000000E+00
  0.00000000E+00  0.00000000E+00  6.89990666E-02  3.16423961E-01  7.44308291E-01
  1.00000000E+00  1.00000000E+00  0.00000000E+00  0.00000000E+00  0.00000000E+00
  0.00000000E+00  0.00000000E+00  0.00000000E+00  6.89990666E-02  3.16423961E-01
  7.44308291E-01  1.00000000E+00  1.00000000E+00  0.00000000E+00  0.00000000E+00
  0.00000000E+00  0.00000000E+00  0.00000000E+00  0.00000000E+00  6.89990666E-02
  3.16423961E-01  7.44308291E-01  1.00000000E+00  1.00000000E+00  0.00000000E+00
  0.00000000E+00  0.00000000E+00  0.00000000E+00  0.00000000E+00  0.00000000E+00
  0.00000000E+00  0.00000000E+00  0.00000000E+00  0.00000000E+00  0.00000000E+00
  0.00000000E+00  0.00000000E+00  0.00000000E+00  7.16287242E-02  3.45912103E-01
  7.22469956E-01  1.00000000E+00  1.00000000E+00  0.00000000E+00  0.00000000E+00
  0.00000000E+00  0.00000000E+00  0.00000000E+00  0.00000000E+00  0.00000000E+00
  0.00000000E+00  0.00000000E+00  0.00000000E+00  0.00000000E+00  0.00000000E+00
Coordinates of each shell                  R   N=          90
 -2.91472414E+00 -1.61723242E+00 -4.38841603E-01 -2.91472414E+00 -1.61723242E+00
 -4.38841603E-01 -2.91472414E+00 -1.61723242E+00 -4.38841603E-01 -2.91472414E+00
 -1.61723242E+00 -4.38841603E-01 -9.67656100E-01 -1.69017158E-01  2.04216099E-01
 -9.67656100E-01 -1.69017158E-01  2.04216099E-01 -9.67656100E-01 -1.69017158E-01
  2.04216099E-01 -9.67656100E-01 -1.69017158E-01  2.04216099E-01  1.66948790E+00
 -8.98691590E-01  7.30089022E-01  1.66948790E+00 -8.98691590E-01  7.30089022E-01
  1.66948790E+00 -8.98691590E-01  7.30089022E-01  1.66948790E+00 -8.98691590E-01
  7.30089022E-01  3.64214409E+00 -2.63218638E-02 -5.86093180E-01  3.64214409E+00
 -2.63218638E-02 -5.86093180E-01  3.64214409E+00 -2.63218638E-02 -5.86093180E-01
  3.64214409E+00 -2.63218638E-02 -5.86093180E-01 -4.74661403E+00 -8.08942586E-01
 -8.57208161E-01 -4.74661403E+00 -8.08942586E-01 -8.57208161E-01 -2.69374243E+00
 -3.64944375E+00 -5.32997935E-01 -2.69374243E+00 -3.64944375E+00 -5.32997935E-01
 -1.33776525E+00  2.48158803E+00  2.21776207E-01 -1.33776525E+00  2.48158803E+00
  2.21776207E-01 -1.33776525E+00  2.48158803E+00  2.21776207E-01 -1.33776525E+00
  2.48158803E+00  2.21776207E-01  1.94027009E+00 -2.31789647E+00  2.19171814E+00
  1.94027009E+00 -2.31789647E+00  2.19171814E+00  3.41538042E+00  1.36811724E+00
 -2.07373674E+00  3.41538042E+00  1.36811724E+00 -2.07373674E+00  5.54908263E+00
 -6.58548485E-01 -1.79983194E-01  5.54908263E+00 -6.58548485E-01 -1.79983194E-01
Constraint Structure                       R   N=          30
 -2.93735064E+00 -1.60712522E+00 -4.43179020E-01 -9.68951276E-01 -1.81217469E-01
  2.18417878E-01  1.66853185E+00 -9.15296992E-01  7.21476203E-01  3.65467946E+00
 -2.64323979E-02 -5.82187275E-01 -4.75996873E+00 -7.76119847E-01 -8.64442439E-01
 -2.75113725E+00 -3.64421789E+00 -5.41677215E-01 -1.32594482E+00  2.49557586E+00
  2.23357622E-01  1.94003242E+00 -2.38375029E+00  2.13687730E+00  3.44473861E+00
  1.40777905E+00 -2.03550383E+00  5.55838194E+00 -6.83441250E-01 -1.92639130E-01
Num ILSW                                   I              100
ILSW                                       I   N=         100
           0           1           0           0           2           0
           0           0           0           0        4639          -1
           0           0           0           0           2           0
           0           0           0           0           1           0
           1           0           0           0           0           0
           0           0      100000           0          -1           0
           0           0           0           0           0           0
           0           0           0           1           0           0
           0           0           1           0           0           0
           0           0         121          41           0           0
           0           0          58           0           0           0
           0           0           0          10           0           0
           0           0           0           0           0           0
           0           0           0           0           0           0
           0           0           0           0           0           0
           0           0           0           0           0           0
           0           0           0           0
Num RLSW                                   I               41
RLSW                                       R   N=          41
  1.00000000E+00  1.00000000E+00  1.00000000E+00  1.00000000E+00  1.00000000E+00
  0.00000000E+00  2.00000000E-01  2.22036000E-01  0.00000000E+00  7.77964000E-01
  0.00000000E+00  2.00000000E-01  0.00000000E+00  0.00000000E+00  1.00000000E+00
  0.00000000E+00  0.00000000E+00  1.00000000E+00  0.00000000E+00  0.00000000E+00
  0.00000000E+00  0.00000000E+00  1.00000000E+00  0.00000000E+00  0.00000000E+00
  0.00000000E+00  0.00000000E+00  1.00000000E+00  0.00000000E+00  0.00000000E+00
  0.00000000E+00  0.00000000E+00  1.00000000E+00  0.00000000E+00  0.00000000E+00
  0.00000000E+00  0.00000000E+00  0.00000000E+00  1.00000000E+00  1.00000000E+00
  0.00000000E+00
MxBond                                     I                3
NBond                                      I   N=          10
           3           3           3           3           1           1
           1           1           1           1
IBond                                      I   N=          30
           2           5           6           1           3           7
           2           4           8           3           9          10
           1           0           0           1           0           0
           2           0           0           3           0           0
           4           0           0           4           0           0
RBond                                      R   N=          30
  2.00000000E+00  1.00000000E+00  1.00000000E+00  2.00000000E+00  1.00000000E+00
  1.00000000E+00  1.00000000E+00  2.00000000E+00  1.00000000E+00  2.00000000E+00
  1.00000000E+00  1.00000000E+00  1.00000000E+00  0.00000000E+00  0.00000000E+00
  1.00000000E+00  0.00000000E+00  0.00000000E+00  1.00000000E+00  0.00000000E+00
  0.00000000E+00  1.00000000E+00  0.00000000E+00  0.00000000E+00  1.00000000E+00
  0.00000000E+00  0.00000000E+00  1.00000000E+00  0.00000000E+00  0.00000000E+00
Virial Ratio                               R      2.005639320609740E+00
SCF Energy                                 R     -2.550938244552694E+02
Total Energy                               R     -2.550938244552694E+02
RMS Force                                  R      1.963624906241471E-03
RMS Density                                R      7.809971151472767E-09
External E-field                           R   N=          35
  0.00000000E+00  0.00000000E+00  0.00000000E+00  0.00000000E+00  0.00000000E+00
  0.00000000E+00  0.00000000E+00  0.00000000E+00  0.00000000E+00  0.00000000E+00
  0.00000000E+00  0.00000000E+00  0.00000000E+00  0.00000000E+00  0.00000000E+00
  0.00000000E+00  0.00000000E+00  0.00000000E+00  0.00000000E+00  0.00000000E+00
  0.00000000E+00  0.00000000E+00  0.00000000E+00  0.00000000E+00  0.00000000E+00
  0.00000000E+00  0.00000000E+00  0.00000000E+00  0.00000000E+00  0.00000000E+00
  0.00000000E+00  0.00000000E+00  0.00000000E+00  0.00000000E+00  0.00000000E+00
IOpCl                                      I                0
IROHF                                      I                0
Alpha Orbital Energies                     R   N=          75
 -2.48282357E+01 -1.04013385E+01 -1.03296496E+01 -1.03183143E+01 -1.03081841E+01
 -1.30687995E+00 -9.26862936E-01 -8.63201663E-01 -7.32041705E-01 -6.60972267E-01
 -6.01657495E-01 -5.82031366E-01 -5.55980911E-01 -5.23534878E-01 -5.06875555E-01
 -4.84594588E-01 -4.51778459E-01 -3.92501957E-01 -3.38557221E-01  2.66828977E-02
  6.64006651E-02  8.08582123E-02  8.92659658E-02  9.96352304E-02  1.15062138E-01
  1.18491527E-01  1.33298509E-01  1.37604836E-01  1.43656717E-01  1.57733027E-01
  1.72482638E-01  1.80884907E-01  1.88849657E-01  2.00915100E-01  2.06113990E-01
  2.34887011E-01  2.46201484E-01  2.62069167E-01  2.79668578E-01  2.92229324E-01
  3.08231712E-01  3.27138074E-01  3.91514020E-01  4.17401597E-01  4.27585534E-01
  4.32100018E-01  4.67179775E-01  4.83364383E-01  5.00880516E-01  5.08751254E-01
  6.81319721E-01  7.42629370E-01  7.79761164E-01  7.84030273E-01  8.01599367E-01
  8.28220454E-01  8.56812206E-01  8.94768733E-01  9.33867364E-01  9.48372531E-01
  1.02117865E+00  1.04825062E+00  1.08338709E+00  1.12395122E+00  1.13927232E+00
  1.16552246E+00  1.22036561E+00  1.27267852E+00  1.32476540E+00  1.38557054E+00
  1.42669293E+00  1.67198616E+00  1.82581940E+00  1.85249070E+00  2.36668033E+00
Alpha MO coefficients                      R   N=        5625
  1.16091671E-05 -6.18801741E-05 -1.21968844E-04  1.71269347E-05 -2.70379159E-05
  4.16057489E-04  1.82166602E-03 -2.68345451E-03  4.23268034E-04  6.66778443E-03
  1.79184273E-03  1.19292507E-03  2.15425920E-05 -1.99435032E-05  3.93131648E-04
 -7.01496744E-05  5.34642151E-04  7.23909373E-05 -2.61062625E-04 -1.71069057E-03
  3.83538006E-03 -6.36483354E-04 -1.60363856E-02 -1.49257873E-03 -1.57649232E-03
  2.77382878E-04 -3.51058723E-06 -1.98996206E-04  1.04255919E-04 -4.80405857E-05
 -5.82576725E-06  1.61539244E-03 -1.82297007E-03 -1.03957429E-03  1.41913092E-04
 -2.99148687E-03 -2.16294003E-03  5.09814338E-04  1.97694603E-03  1.14706993E-05
  1.54767767E-04 -8.41024739E-05  5.12476521E-05  8.90635778E-06  8.78251183E-04
  1.85717246E-04 -4.06839737E-04  5.34801288E-04  9.25010850E-03 -2.38703822E-03
 -6.82693099E-04  3.71704881E-04  3.29549413E-04  1.07879003E-03 -2.79740176E-04
 -1.64545069E-03  9.95027467E-01  2.76086452E-02  1.76675996E-04 -1.27323454E-03
 -2.73673017E-05 -1.54093959E-02 -2.72549489E-04  2.15956203E-03  8.30966543E-05
  8.54905106E-03  3.38415719E-04 -1.01418421E-03  4.87961707E-06 -1.38137010E-04
 -2.17621421E-04  1.41459502E-04 -3.30308968E-05 -5.71858540E-05 -4.39660649E-04
  4.72937651E-03 -1.15509252E-03 -7.39820544E-04 -4.33176224E-04 -2.43659605E-04
  8.54153585E-03  3.89214282E-03  9.03970875E-04  1.09551912E-03 -2.32705018E-02
 -5.50427107E-03 -3.15466005E-03 -1.28783392E-03  9.95502986E-01  3.63213354E-02
 -2.16360769E-04  1.10099055E-03 -1.10327509E-04 -3.56972987E-02 -3.38675963E-04
  6.26089785E-04  3.18341683E-04  5.07253596E-02  3.69520153E-03 -6.87630054E-03
  1.37555330E-05  1.91604662E-03 -4.13756281E-04  5.27740127E-04 -1.56118069E-04
  7.82259077E-05  4.69308302E-03 -4.35326861E-03  4.25636381E-04 -3.29140934E-04
 -9.17870817E-03  1.06147780E-02 -1.06788332E-04 -1.93091145E-03 -1.32434981E-04
 -5.33718113E-04  1.30659360E-04  4.46151950E-05  5.31448227E-05  1.95466546E-03
 -6.56869980E-04 -3.75956928E-04  2.30503361E-04 -1.71338641E-02  3.37524641E-03
  1.98319154E-03 -1.78711546E-03 -5.51658928E-05  4.52669566E-04 -2.85955354E-04
 -1.07450549E-03  3.91167020E-05  6.64043772E-04 -1.97830749E-05 -8.50536875E-05
 -6.33555272E-06 -6.64972475E-04  4.47826499E-05  8.24458694E-04  2.15232968E-05
  6.63719955E-03  2.44259551E-04 -4.71067651E-03 -1.55527915E-04 -2.18973265E-04
  2.94610893E-04 -1.31994362E-04 -2.70518533E-04 -6.00302374E-05  5.54317059E-04
 -5.17332942E-04 -4.96495496E-04 -1.38456312E-04  3.49210243E-05  1.01061944E-05
  2.71377130E-03  4.15979990E-04  1.38487844E-03  2.64522927E-04 -2.44839077E-02
 -4.82302816E-03 -3.45734885E-03 -6.64632432E-04 -1.83044980E-03 -4.97478444E-04
 -6.82974234E-04  1.52193632E-04 -2.32493125E-04  5.07032092E-03  6.86482591E-03
 -1.32718146E-03  1.20932343E-03 -6.34050573E-03 -1.34930471E-02 -3.78027687E-03
 -3.28867465E-03  9.94705505E-01  3.63683588E-02 -1.94551294E-04  2.63537784E-04
 -4.03190770E-04 -3.56860389E-02  1.91784409E-03 -3.10111173E-03  3.54630700E-03
  7.42441700E-02 -3.08004764E-04  9.65382597E-03 -1.04718922E-02  3.73970420E-02
  2.80386917E-05  7.17443971E-04  3.24887318E-04 -4.89885763E-04  8.40395929E-03
 -4.62592371E-03 -5.55117129E-04  1.36951164E-03 -4.13796182E-02  8.84380052E-03
  2.79151787E-03 -4.10426995E-03 -1.26632210E-04  1.29010169E-04 -1.08570510E-04
  4.58625920E-04 -2.46000171E-07 -1.72717900E-04 -7.08284133E-05  1.52550444E-04
 -2.21863846E-05  4.21569999E-05 -4.79075929E-05 -5.50080971E-04 -2.52616786E-06
  1.21969236E-03 -2.05344005E-04 -4.33574185E-04  3.00596537E-05 -6.30231938E-04
  2.67393245E-03 -3.46903071E-04 -7.98906926E-04 -1.20664452E-04  1.06542367E-03
 -2.96075480E-04 -1.52824923E-04  1.21771149E-04 -2.93256566E-05 -3.04533319E-06
  7.73784387E-04 -9.21401644E-04  8.34266361E-04 -1.01121627E-04 -2.89044101E-02
 -4.19794999E-03 -3.89830680E-03 -2.14301125E-03  1.00118235E-04 -5.34643191E-04
 -1.79874306E-04  5.53783653E-05  1.00718251E-05  1.72617223E-03  1.41721998E-03
 -9.07868988E-04  5.65842874E-04 -1.51226128E-02 -2.07115057E-02 -4.09199659E-03
 -3.41458751E-03 -3.76396676E-02 -2.54601442E-03 -8.71517292E-04 -4.61380800E-04
  6.78014418E-04  9.01497377E-03  5.52451240E-03  1.92448939E-03 -3.05875914E-03
  1.60133958E-02 -1.63373960E-02  3.61206076E-03 -4.03607020E-04  9.94628991E-01
  3.54564045E-02 -4.00690199E-04 -1.61170545E-04  3.09113525E-04 -3.14458984E-02
  3.19590488E-03  1.53928421E-03 -2.34893784E-03  2.87932882E-02 -6.76145801E-03
 -3.23604612E-03  5.16461225E-03 -1.21833770E-04 -6.12005500E-04  5.03886272E-05
  6.93487582E-04  7.30668306E-06  1.33408276E-04  5.96686192E-05  2.22733724E-05
  1.20074330E-05 -4.22644605E-04 -4.44626156E-04 -7.07801036E-05 -3.78324068E-05
  1.49061577E-03  5.20638001E-04  9.87435440E-05 -1.60831264E-04 -4.48590925E-05
 -8.65426243E-05 -6.17216846E-04  3.65829508E-03 -6.84094662E-04  4.19802096E-03
  9.95292856E-01  3.56517597E-02  5.80568806E-04  3.29793643E-04  2.19430127E-04
 -3.25913825E-02 -4.05270071E-03 -2.54834792E-03 -1.39166216E-03  2.29629370E-02
  5.01754957E-03  5.61572306E-03  1.95848957E-03 -5.01010206E-03 -1.52081500E-03
  1.01477091E-03  7.49747780E-04  3.28286685E-04  9.25878078E-03 -6.00146853E-03
 -4.69798083E-03 -1.69716594E-03  1.78100253E-02  1.49517823E-02 -3.94133831E-03
  4.25935708E-03  4.20641315E-04 -4.24419114E-04  1.38675613E-04 -5.16417437E-06
  9.72129761E-05  2.02016025E-03 -4.11989812E-04  1.56956781E-03 -9.13211690E-04
 -1.55963435E-02  1.75182988E-02  1.11665415E-03 -2.07443878E-03  2.88178761E-04
 -1.22841207E-04 -9.50972446E-05  1.47953185E-05 -5.40746968E-05 -3.07231141E-04
  1.22668796E-03 -2.83474585E-04  1.52728322E-04 -2.41116361E-02  3.81544963E-03
  2.15123002E-03 -3.26245266E-03 -7.08911309E-04  3.93614526E-03 -5.97630626E-04
  3.94031867E-03 -4.29458565E-07 -1.24193673E-04  1.34024784E-05  1.41488802E-04
 -1.05137268E-06  8.69677843E-05  1.83372674E-04 -5.00737359E-04  8.52065331E-05
  1.10216082E-03  3.08404574E-04  1.35840462E-04 -1.63082184E-04 -2.22576353E-05
  9.14735494E-04  6.56357422E-05  4.90849443E-04 -9.09343754E-05 -5.05428822E-04
 -9.94068716E-03  1.91223415E-02  1.00424327E-02  1.28855541E-02  3.54020685E-03
 -1.49223267E-06 -2.14541632E-02  2.90857387E-02 -4.69791395E-03 -5.50050209E-02
 -1.61462546E-02 -5.04861847E-03 -3.14090377E-03 -5.88595050E-02  1.14735216E-01
 -1.40606504E-02  9.42815786E-02 -6.94598068E-04  3.95936914E-02  2.31175338E-02
 -5.14672566E-02  5.56323244E-03  1.35578734E-01  1.46452925E-02 -2.67630657E-03
  2.26248379E-03 -8.56019625E-03  1.71583376E-02 -1.14454527E-02  8.42529160E-03
 -2.64756382E-03 -1.26102049E-02  2.16531935E-02  1.08964300E-02  6.73818969E-04
 -1.35360291E-02  2.41645209E-02 -5.95390112E-03 -9.62389937E-03 -2.30139182E-03
  2.30344856E-03 -2.12202958E-03 -2.66381562E-04  8.26661765E-04 -7.59659888E-03
 -3.78739579E-03  4.89897517E-03 -6.16983321E-03 -5.42539974E-02  1.17642713E-02
  5.50601979E-03 -3.80841674E-03  8.46897839E-04 -1.34927807E-02  3.51913409E-03
  1.69736535E-02 -2.25799554E-01  4.79025356E-01  1.36540527E-02 -9.63919205E-02
 -1.34786381E-03  5.44336990E-01  1.02067687E-02 -7.66195044E-02 -1.65119043E-03
 -1.02543542E-02 -2.75557892E-03  1.07739874E-02 -3.40849840E-04  2.60306573E-03
  4.18335746E-04 -9.52531810E-05 -5.15912614E-04  8.80312542E-04  5.34768117E-03
 -8.71058645E-02  1.68064521E-01  6.89023480E-02  3.33845982E-02  2.04069721E-02
  1.33378211E-01  6.30143854E-03  7.98909387E-03  5.15971582E-03  7.74088047E-02
  1.43522904E-02  1.33068370E-02  1.89560732E-03 -1.22785695E-01  2.47047239E-01
  2.65335023E-02 -8.14549169E-02 -8.15409296E-03  1.72322351E-01  3.11396531E-02
  4.88590787E-03 -9.65725413E-06 -3.33177317E-02  2.79841335E-02  7.64860224E-03
  8.97897469E-03 -1.39737474E-01  2.72669335E-01 -1.14778430E-02  2.83137947E-02
 -4.51068240E-02  1.76552152E-01 -7.64954993E-03 -1.47335375E-02  6.49254844E-03
 -1.07863456E-01  4.96740406E-03 -1.73892777E-02  1.91422430E-02 -9.59010867E-02
  1.85761721E-01 -6.94881964E-02 -2.57850955E-02  3.86411586E-02  1.39813181E-01
 -6.93813359E-03 -1.54816703E-04  3.54353457E-03  6.48206256E-02 -1.66098109E-02
 -2.51004270E-03  3.57292876E-03  3.62515501E-02 -2.33134933E-04  4.51692591E-02
  9.16342617E-03  4.75178005E-02 -1.06566722E-01  1.46635378E-02 -5.81847750E-02
 -1.64436931E-03 -1.36379971E-01  4.36575284E-03 -2.48308208E-02 -4.99804079E-04
 -2.16138710E-02 -2.80924598E-03  8.27221714E-03 -5.15516042E-04  6.84239285E-02
  2.13323382E-03  4.60580589E-02  5.01466259E-03  4.32683742E-02  3.91600865E-03
 -1.37941697E-01  2.65833239E-01  6.31153091E-02  5.08193419E-02  2.36449131E-02
  2.00712900E-01  1.52869406E-03 -3.09966782E-03 -1.61694741E-04 -6.83894219E-02
 -1.11952001E-02 -9.37934691E-03 -3.65988773E-03 -8.57921116E-02  1.78280398E-01
 -1.52391825E-01 -7.93966836E-02 -3.74024161E-02  1.15901215E-01 -3.26489186E-02
 -1.23568239E-02 -4.05444652E-03 -7.13885007E-02 -5.43092955E-02 -6.18407091E-03
 -1.55941375E-02  8.46818570E-02 -1.67296126E-01 -1.11805716E-01 -3.22040755E-02
  3.97141034E-02 -1.13921105E-01 -2.33386116E-02  3.28182355E-03 -3.79962836E-03
  8.31003954E-02 -6.13686645E-02  1.11763134E-02 -1.50395475E-03  1.18614483E-01
 -2.29695289E-01  5.00181724E-02  2.47936428E-02 -4.04769331E-02 -1.83161210E-01
  6.53771447E-03 -4.30003648E-03  3.63093632E-03  5.60899100E-02 -5.47157578E-03
 -7.70852938E-03  1.15067177E-02  7.73011867E-02  1.56032757E-02  7.61983945E-02
  1.22625345E-02  2.61366656E-02 -6.01630951E-02 -2.97161035E-02 -5.65813786E-02
 -6.85438455E-03 -7.31861563E-02 -1.44594008E-02 -3.06145774E-02 -3.79200935E-03
 -1.22592137E-02 -3.39935416E-03  4.61815893E-03  3.79823631E-05 -4.40600342E-02
 -6.47805443E-03 -6.40211927E-02 -5.72883744E-03 -6.86084159E-02 -1.77668550E-02
 -9.53165848E-02  1.86861880E-01 -5.73763376E-02 -2.47982856E-03 -1.81290842E-02
  1.78628004E-01 -1.95980184E-02 -4.96195155E-03 -5.58119974E-03 -5.63997356E-02
 -1.25701837E-02 -1.47230520E-02 -1.14941966E-03  6.83101849E-02 -1.46724571E-01
 -2.04535663E-01 -2.69164293E-02 -6.91144797E-02 -1.44512962E-01 -5.19510803E-02
 -2.01805474E-03 -1.97234103E-02  3.82080395E-02 -2.35188896E-02  2.12600062E-03
 -1.08343934E-02  7.05682164E-02 -1.44588987E-01  1.96497839E-01  1.21294085E-02
 -5.52124992E-02 -1.31954912E-01  3.61383049E-02  5.71160203E-03 -1.92529182E-02
  1.23818695E-01  1.76314915E-02  9.66265990E-03 -1.74487498E-02 -1.19409852E-01
  2.38488708E-01  7.25601299E-02  9.12996564E-03 -2.33183197E-02  2.29215815E-01
  3.11894523E-02  1.87704341E-04 -6.86796920E-03 -9.61510725E-02  2.42062496E-02
  8.46721904E-03 -1.23726755E-02  1.01091038E-01  3.63026914E-02  7.75712903E-02
  2.69197409E-02 -2.33619578E-02  5.46452089E-02 -7.94826571E-02  9.22897134E-02
 -2.58630178E-02  6.77217274E-02 -4.45419706E-02  5.15505223E-02 -1.47365553E-02
  2.33568485E-02 -2.80366877E-05 -8.18313021E-03 -3.61713704E-04 -6.76184381E-02
 -2.18779438E-02  1.04809711E-01  3.78749961E-02  1.23542213E-01  4.13603037E-02
 -5.07570121E-02  9.81793431E-02 -5.55100883E-02 -1.33045152E-01 -1.54873009E-02
  1.19676347E-01 -7.28998881E-04 -5.40053616E-02 -2.97300628E-04  4.86603510E-02
  9.78227041E-03 -7.55903136E-03  2.60500215E-03  7.63422295E-02 -1.68594934E-01
  4.89158280E-02 -1.66853580E-01  3.33896277E-02 -1.79083508E-01 -5.69213008E-03
 -2.88514231E-02  6.58917559E-03 -1.44960547E-01 -1.82255595E-02  3.65399304E-02
 -3.86538889E-03 -7.47430350E-02  1.48740925E-01  4.45672990E-02 -1.21425505E-01
  9.69165184E-02  1.73609416E-01 -1.05734101E-02 -5.27529836E-02  3.93547370E-02
 -1.55238643E-02 -5.31787881E-02 -1.65892594E-02  1.45365308E-02  4.86821659E-02
 -9.70681791E-02 -4.75523319E-02 -8.60145816E-02  9.43152878E-02 -9.73839286E-02
 -1.41902187E-02 -2.99473961E-02  3.49311818E-02  1.15099374E-01 -2.40803296E-02
 -1.20236249E-02  1.86087097E-02  5.08804437E-02  3.05601181E-02  1.10192603E-01
  4.69503377E-02 -5.16766003E-02  1.21049033E-01 -4.66293530E-02  3.31993023E-01
  2.26477607E-02  1.53043124E-01 -2.62209560E-02  1.90886111E-01  1.40125523E-02
  5.91040389E-02  4.96414163E-04 -2.55741493E-03  1.24024865E-03  1.46069001E-01
  6.34658408E-02 -1.02612256E-01 -4.78739427E-02 -4.66653232E-02 -2.35338394E-02