 Entering Gaussian System, Link 0=/opt/cluster/programs/g09_d.01/g09//g09
 Input=/home/unibas/boittier/RDKit_G2/N.pdb/SCAN_1_2_6_8_S_17_20.0/1_SCAN_1_2_6_8_F/1_SCAN_N.pdb.com
 Output=/scratch/boittier/1_SCAN_N.pdb/1_SCAN_N.pdb.out
 Initial command:
 /opt/cluster/programs/g09_d.01/g09/l1.exe "/scratch/boittier/1_SCAN_N.pdb/Gau-182576.inp" -scrdir="/scratch/boittier/1_SCAN_N.pdb/"
 Entering Link 1 = /opt/cluster/programs/g09_d.01/g09/l1.exe PID=    182577.
  
 Copyright (c) 1988,1990,1992,1993,1995,1998,2003,2009,2013,
            Gaussian, Inc.  All Rights Reserved.
  
 This is part of the Gaussian(R) 09 program.  It is based on
 the Gaussian(R) 03 system (copyright 2003, Gaussian, Inc.),
 the Gaussian(R) 98 system (copyright 1998, Gaussian, Inc.),
 the Gaussian(R) 94 system (copyright 1995, Gaussian, Inc.),
 the Gaussian 92(TM) system (copyright 1992, Gaussian, Inc.),
 the Gaussian 90(TM) system (copyright 1990, Gaussian, Inc.),
 the Gaussian 88(TM) system (copyright 1988, Gaussian, Inc.),
 the Gaussian 86(TM) system (copyright 1986, Carnegie Mellon
 University), and the Gaussian 82(TM) system (copyright 1983,
 Carnegie Mellon University). Gaussian is a federally registered
 trademark of Gaussian, Inc.
  
 This software contains proprietary and confidential information,
 including trade secrets, belonging to Gaussian, Inc.
  
 This software is provided under written license and may be
 used, copied, transmitted, or stored only in accord with that
 written license.
  
 The following legend is applicable only to US Government
 contracts under FAR:
  
                    RESTRICTED RIGHTS LEGEND
  
 Use, reproduction and disclosure by the US Government is
 subject to restrictions as set forth in subparagraphs (a)
 and (c) of the Commercial Computer Software - Restricted
 Rights clause in FAR 52.227-19.
  
 Gaussian, Inc.
 340 Quinnipiac St., Bldg. 40, Wallingford CT 06492
  
  
 ---------------------------------------------------------------
 Warning -- This program may not be used in any manner that
 competes with the business of Gaussian, Inc. or will provide
 assistance to any competitor of Gaussian, Inc.  The licensee
 of this program is prohibited from giving any competitor of
 Gaussian, Inc. access to this program.  By using this program,
 the user acknowledges that Gaussian, Inc. is engaged in the
 business of creating and licensing software in the field of
 computational chemistry and represents and warrants to the
 licensee that it is not a competitor of Gaussian, Inc. and that
 it will not use this program in any manner prohibited above.
 ---------------------------------------------------------------
  

 Cite this work as:
 Gaussian 09, Revision D.01,
 M. J. Frisch, G. W. Trucks, H. B. Schlegel, G. E. Scuseria, 
 M. A. Robb, J. R. Cheeseman, G. Scalmani, V. Barone, B. Mennucci, 
 G. A. Petersson, H. Nakatsuji, M. Caricato, X. Li, H. P. Hratchian, 
 A. F. Izmaylov, J. Bloino, G. Zheng, J. L. Sonnenberg, M. Hada, 
 M. Ehara, K. Toyota, R. Fukuda, J. Hasegawa, M. Ishida, T. Nakajima, 
 Y. Honda, O. Kitao, H. Nakai, T. Vreven, J. A. Montgomery, Jr., 
 J. E. Peralta, F. Ogliaro, M. Bearpark, J. J. Heyd, E. Brothers, 
 K. N. Kudin, V. N. Staroverov, T. Keith, R. Kobayashi, J. Normand, 
 K. Raghavachari, A. Rendell, J. C. Burant, S. S. Iyengar, J. Tomasi, 
 M. Cossi, N. Rega, J. M. Millam, M. Klene, J. E. Knox, J. B. Cross, 
 V. Bakken, C. Adamo, J. Jaramillo, R. Gomperts, R. E. Stratmann, 
 O. Yazyev, A. J. Austin, R. Cammi, C. Pomelli, J. W. Ochterski, 
 R. L. Martin, K. Morokuma, V. G. Zakrzewski, G. A. Voth, 
 P. Salvador, J. J. Dannenberg, S. Dapprich, A. D. Daniels, 
 O. Farkas, J. B. Foresman, J. V. Ortiz, J. Cioslowski, 
 and D. J. Fox, Gaussian, Inc., Wallingford CT, 2013.
 
 ******************************************
 Gaussian 09:  ES64L-G09RevD.01 24-Apr-2013
                26-May-2021 
 ******************************************
 %chk=/home/unibas/boittier/RDKit_G2/N.pdb/SCAN_1_2_6_8_S_17_20.0/1_SCAN_1_2_6_8_
 F/N.pdb.chk
 %nproc=8
 Will use up to    8 processors via shared memory.
 %mem=16GB
 -----------------------------
 #p wB97XD/6-31+G Opt=ModRedun
 -----------------------------
 1/14=-1,18=120,19=15,26=3,38=1/1,3;
 2/9=110,12=2,17=6,18=5,40=1/2;
 3/5=1,6=6,7=10,11=2,16=1,25=1,30=1,71=1,74=-58/1,2,3;
 4//1;
 5/5=2,38=5/2;
 6/7=2,8=2,9=2,10=2,28=1/1;
 7//1,2,3,16;
 1/14=-1,18=20,19=15,26=3/3(2);
 2/9=110/2;
 99//99;
 2/9=110/2;
 3/5=1,6=6,7=10,11=2,16=1,25=1,30=1,71=1,74=-58/1,2,3;
 4/5=5,16=3,69=1/1;
 5/5=2,38=5/2;
 7//1,2,3,16;
 1/14=-1,18=20,19=15,26=3/3(-5);
 2/9=110/2;
 6/7=2,8=2,9=2,10=2,19=2,28=1/1;
 99/9=1/99;
 Leave Link    1 at Wed May 26 09:20:45 2021, MaxMem=  2147483648 cpu:         0.7
 (Enter /opt/cluster/programs/g09_d.01/g09/l101.exe)
 -----
 N.pdb
 -----
 Symbolic Z-matrix:
 Charge =  0 Multiplicity = 1
 C                     2.30456   1.00779  -0.09523 
 C                     1.46883  -0.20452   0.19728 
 H                     1.72096   1.74578  -0.65694 
 H                     3.18887   0.72346  -0.66617 
 H                     2.616     1.4826    0.84341 
 C                     0.14488   0.02519   0.93416 
 O                     1.8174   -1.34873  -0.09828 
 C                    -1.04497   0.03392   0.01261 
 H                     0.15263   0.98067   1.46343 
 H                    -0.00185  -0.78263   1.65531 
 F                    -0.92355   1.01423  -0.97563 
 F                    -2.21636   0.31718   0.71047 
 F                    -1.24404  -1.16856  -0.63991 
 
 The following ModRedundant input section has been read:
 D       1       2       6       8 F                                           
 
 NAtoms=     13 NQM=       13 NQMF=       0 NMMI=      0 NMMIF=      0
                NMic=       0 NMicF=      0.
                    Isotopes and Nuclear Properties:
 (Nuclear quadrupole moments (NQMom) in fm**2, nuclear magnetic moments (NMagM)
  in nuclear magnetons)

  Atom         1           2           3           4           5           6           7           8           9          10
 IAtWgt=          12          12           1           1           1          12          16          12           1           1
 AtmWgt=  12.0000000  12.0000000   1.0078250   1.0078250   1.0078250  12.0000000  15.9949146  12.0000000   1.0078250   1.0078250
 NucSpn=           0           0           1           1           1           0           0           0           1           1
 AtZEff=   0.0000000   0.0000000   0.0000000   0.0000000   0.0000000   0.0000000   0.0000000   0.0000000   0.0000000   0.0000000
 NQMom=    0.0000000   0.0000000   0.0000000   0.0000000   0.0000000   0.0000000   0.0000000   0.0000000   0.0000000   0.0000000
 NMagM=    0.0000000   0.0000000   2.7928460   2.7928460   2.7928460   0.0000000   0.0000000   0.0000000   2.7928460   2.7928460
 AtZNuc=   6.0000000   6.0000000   1.0000000   1.0000000   1.0000000   6.0000000   8.0000000   6.0000000   1.0000000   1.0000000

  Atom        11          12          13
 IAtWgt=          19          19          19
 AtmWgt=  18.9984033  18.9984033  18.9984033
 NucSpn=           1           1           1
 AtZEff=   0.0000000   0.0000000   0.0000000
 NQMom=    0.0000000   0.0000000   0.0000000
 NMagM=    2.6288670   2.6288670   2.6288670
 AtZNuc=   9.0000000   9.0000000   9.0000000
 Leave Link  101 at Wed May 26 09:20:47 2021, MaxMem=  2147483648 cpu:         5.8
 (Enter /opt/cluster/programs/g09_d.01/g09/l103.exe)

 GradGradGradGradGradGradGradGradGradGradGradGradGradGradGradGradGradGrad
 Berny optimization.
 Initialization pass.
                           ----------------------------
                           !    Initial Parameters    !
                           ! (Angstroms and Degrees)  !
 --------------------------                            --------------------------
 ! Name  Definition              Value          Derivative Info.                !
 --------------------------------------------------------------------------------
 ! R1    R(1,2)                  1.5012         estimate D2E/DX2                !
 ! R2    R(1,3)                  1.0958         estimate D2E/DX2                !
 ! R3    R(1,4)                  1.0903         estimate D2E/DX2                !
 ! R4    R(1,5)                  1.097          estimate D2E/DX2                !
 ! R5    R(2,6)                  1.5325         estimate D2E/DX2                !
 ! R6    R(2,7)                  1.2321         estimate D2E/DX2                !
 ! R7    R(6,8)                  1.505          estimate D2E/DX2                !
 ! R8    R(6,9)                  1.0923         estimate D2E/DX2                !
 ! R9    R(6,10)                 1.0928         estimate D2E/DX2                !
 ! R10   R(8,11)                 1.3973         estimate D2E/DX2                !
 ! R11   R(8,12)                 1.3926         estimate D2E/DX2                !
 ! R12   R(8,13)                 1.3825         estimate D2E/DX2                !
 ! A1    A(2,1,3)              110.3196         estimate D2E/DX2                !
 ! A2    A(2,1,4)              110.0566         estimate D2E/DX2                !
 ! A3    A(2,1,5)              109.9286         estimate D2E/DX2                !
 ! A4    A(3,1,4)              109.8253         estimate D2E/DX2                !
 ! A5    A(3,1,5)              107.3562         estimate D2E/DX2                !
 ! A6    A(4,1,5)              109.308          estimate D2E/DX2                !
 ! A7    A(1,2,6)              116.9731         estimate D2E/DX2                !
 ! A8    A(1,2,7)              123.0731         estimate D2E/DX2                !
 ! A9    A(6,2,7)              119.9303         estimate D2E/DX2                !
 ! A10   A(2,6,8)              112.9195         estimate D2E/DX2                !
 ! A11   A(2,6,9)              110.9754         estimate D2E/DX2                !
 ! A12   A(2,6,10)             108.8145         estimate D2E/DX2                !
 ! A13   A(8,6,9)              107.2916         estimate D2E/DX2                !
 ! A14   A(8,6,10)             107.591          estimate D2E/DX2                !
 ! A15   A(9,6,10)             109.1371         estimate D2E/DX2                !
 ! A16   A(6,8,11)             111.6196         estimate D2E/DX2                !
 ! A17   A(6,8,12)             111.0591         estimate D2E/DX2                !
 ! A18   A(6,8,13)             113.4404         estimate D2E/DX2                !
 ! A19   A(11,8,12)            106.5473         estimate D2E/DX2                !
 ! A20   A(11,8,13)            106.7936         estimate D2E/DX2                !
 ! A21   A(12,8,13)            106.9961         estimate D2E/DX2                !
 ! D1    D(3,1,2,6)            -55.6082         estimate D2E/DX2                !
 ! D2    D(3,1,2,7)            126.157          estimate D2E/DX2                !
 ! D3    D(4,1,2,6)           -176.9538         estimate D2E/DX2                !
 ! D4    D(4,1,2,7)              4.8113         estimate D2E/DX2                !
 ! D5    D(5,1,2,6)             62.5966         estimate D2E/DX2                !
 ! D6    D(5,1,2,7)           -115.6382         estimate D2E/DX2                !
 ! D7    D(1,2,6,8)             99.7834         Frozen                          !
 ! D8    D(1,2,6,9)            -20.7281         estimate D2E/DX2                !
 ! D9    D(1,2,6,10)          -140.8296         estimate D2E/DX2                !
 ! D10   D(7,2,6,8)            -81.9234         estimate D2E/DX2                !
 ! D11   D(7,2,6,9)            157.5651         estimate D2E/DX2                !
 ! D12   D(7,2,6,10)            37.4636         estimate D2E/DX2                !
 ! D13   D(2,6,8,11)           -58.022          estimate D2E/DX2                !
 ! D14   D(2,6,8,12)          -176.7656         estimate D2E/DX2                !
 ! D15   D(2,6,8,13)            62.6805         estimate D2E/DX2                !
 ! D16   D(9,6,8,11)            64.5713         estimate D2E/DX2                !
 ! D17   D(9,6,8,12)           -54.1723         estimate D2E/DX2                !
 ! D18   D(9,6,8,13)          -174.7262         estimate D2E/DX2                !
 ! D19   D(10,6,8,11)         -178.1133         estimate D2E/DX2                !
 ! D20   D(10,6,8,12)           63.1432         estimate D2E/DX2                !
 ! D21   D(10,6,8,13)          -57.4107         estimate D2E/DX2                !
 --------------------------------------------------------------------------------
 Trust Radius=3.00D-01 FncErr=1.00D-07 GrdErr=1.00D-06
 Number of steps in this run=     64 maximum allowed number of steps=    100.
 GradGradGradGradGradGradGradGradGradGradGradGradGradGradGradGradGradGrad

 Leave Link  103 at Wed May 26 09:20:47 2021, MaxMem=  2147483648 cpu:         0.1
 (Enter /opt/cluster/programs/g09_d.01/g09/l202.exe)
                          Input orientation:                          
 ---------------------------------------------------------------------
 Center     Atomic      Atomic             Coordinates (Angstroms)
 Number     Number       Type             X           Y           Z
 ---------------------------------------------------------------------
      1          6           0        2.304558    1.007790   -0.095226
      2          6           0        1.468832   -0.204524    0.197278
      3          1           0        1.720958    1.745775   -0.656942
      4          1           0        3.188875    0.723461   -0.666169
      5          1           0        2.616000    1.482601    0.843410
      6          6           0        0.144876    0.025189    0.934164
      7          8           0        1.817397   -1.348729   -0.098283
      8          6           0       -1.044970    0.033921    0.012607
      9          1           0        0.152631    0.980669    1.463434
     10          1           0       -0.001854   -0.782627    1.655308
     11          9           0       -0.923550    1.014235   -0.975631
     12          9           0       -2.216358    0.317179    0.710465
     13          9           0       -1.244044   -1.168559   -0.639913
 ---------------------------------------------------------------------
                    Distance matrix (angstroms):
                    1          2          3          4          5
     1  C    0.000000
     2  C    1.501233   0.000000
     3  H    1.095781   2.144044   0.000000
     4  H    1.090337   2.136643   1.788852   0.000000
     5  H    1.097032   2.140063   1.766753   1.784183   0.000000
     6  C    2.586383   1.532524   2.824194   3.509214   2.870321
     7  O    2.406349   1.232095   3.146006   2.549003   3.088848
     8  C    3.489898   2.531829   3.321009   4.343000   4.023880
     9  H    2.657244   2.177204   2.746094   3.717545   2.589315
    10  H    3.404335   2.150110   3.835023   4.223542   3.555783
    11  F    3.346018   2.929946   2.762270   4.134290   4.007080
    12  F    4.643788   3.757148   4.406035   5.592560   4.972682
    13  F    4.198304   2.998324   4.157508   4.819876   4.912111
                    6          7          8          9         10
     6  C    0.000000
     7  O    2.398108   0.000000
     8  C    1.505017   3.180749   0.000000
     9  H    1.092304   3.261365   2.106058   0.000000
    10  H    1.092769   2.589445   2.110286   1.780420   0.000000
    11  F    2.401471   3.723725   1.397273   2.666145   3.316636
    12  F    2.389712   4.438525   1.392620   2.572798   2.646947
    13  F    2.414923   3.114201   1.382523   3.315713   2.638185
                   11         12         13
    11  F    0.000000
    12  F    2.236104   0.000000
    13  F    2.231594   2.230770   0.000000
 Stoichiometry    C4H5F3O
 Framework group  C1[X(C4H5F3O)]
 Deg. of freedom    33
 Full point group                 C1      NOp   1
 Largest Abelian subgroup         C1      NOp   1
 Largest concise Abelian subgroup C1      NOp   1
                         Standard orientation:                         
 ---------------------------------------------------------------------
 Center     Atomic      Atomic             Coordinates (Angstroms)
 Number     Number       Type             X           Y           Z
 ---------------------------------------------------------------------
      1          6           0       -2.304558   -1.007790   -0.095226
      2          6           0       -1.468832    0.204524    0.197278
      3          1           0       -1.720958   -1.745775   -0.656942
      4          1           0       -3.188875   -0.723461   -0.666169
      5          1           0       -2.616000   -1.482601    0.843410
      6          6           0       -0.144876   -0.025189    0.934164
      7          8           0       -1.817397    1.348729   -0.098283
      8          6           0        1.044970   -0.033921    0.012607
      9          1           0       -0.152631   -0.980669    1.463434
     10          1           0        0.001854    0.782627    1.655308
     11          9           0        0.923550   -1.014235   -0.975631
     12          9           0        2.216358   -0.317179    0.710465
     13          9           0        1.244044    1.168559   -0.639913
 ---------------------------------------------------------------------
 Rotational constants (GHZ):      3.3891844      1.3760424      1.2319310
 Leave Link  202 at Wed May 26 09:20:48 2021, MaxMem=  2147483648 cpu:         0.5
 (Enter /opt/cluster/programs/g09_d.01/g09/l301.exe)
 Standard basis: 6-31+G (6D, 7F)
 Ernie: Thresh=  0.10000D-02 Tol=  0.10000D-05 Strict=F.
 There are   114 symmetry adapted cartesian basis functions of A   symmetry.
 There are   114 symmetry adapted basis functions of A   symmetry.
   114 basis functions,   228 primitive gaussians,   114 cartesian basis functions
    32 alpha electrons       32 beta electrons
       nuclear repulsion energy       404.5116776506 Hartrees.
 IExCor= 4639 DFT=T Ex+Corr=wB97XD ExCW=0 ScaHFX=  1.000000
 ScaDFX=  1.000000  1.000000  1.000000  1.000000 ScalE2=  1.000000  1.000000
 IRadAn=      0 IRanWt=     -1 IRanGd=            0 ICorTp=0 IEmpDi=121
  HFx wShort=  0.000000 wLong=  0.200000 cFull=  0.222036 cShort=  0.000000 cLong=  0.777964
  DFx wShort=  0.000000 wLong=  0.200000 cFull=  0.000000 cShort=  0.000000 cLong=  1.000000
 NAtoms=   13 NActive=   13 NUniq=   13 SFac= 1.00D+00 NAtFMM=   60 NAOKFM=F Big=F
 Integral buffers will be    131072 words long.
 Raffenetti 2 integral format.
 Two-electron integral symmetry is turned on.
 R6Disp:  Grimme-D2 Dispersion energy=       -0.0059618192 Hartrees.
 Nuclear repulsion after empirical dispersion term =      404.5057158314 Hartrees.
 Leave Link  301 at Wed May 26 09:20:48 2021, MaxMem=  2147483648 cpu:         0.5
 (Enter /opt/cluster/programs/g09_d.01/g09/l302.exe)
 NPDir=0 NMtPBC=     1 NCelOv=     1 NCel=       1 NClECP=     1 NCelD=      1
         NCelK=      1 NCelE2=     1 NClLst=     1 CellRange=     0.0.
 One-electron integrals computed using PRISM.
 NBasis=   114 RedAO= T EigKep=  9.29D-05  NBF=   114
 NBsUse=   114 1.00D-06 EigRej= -1.00D+00 NBFU=   114
 Precomputing XC quadrature grid using
 IXCGrd= 4 IRadAn=           0 IRanWt=          -1 IRanGd=           0 AccXCQ= 0.00D+00.
 Generated NRdTot=       0 NPtTot=           0 NUsed=           0 NTot=          32
 NSgBfM=   114   114   114   114   114 MxSgAt=    13 MxSgA2=    13.
 Leave Link  302 at Wed May 26 09:20:49 2021, MaxMem=  2147483648 cpu:         1.6
 (Enter /opt/cluster/programs/g09_d.01/g09/l303.exe)
 DipDrv:  MaxL=1.
 Leave Link  303 at Wed May 26 09:20:49 2021, MaxMem=  2147483648 cpu:         0.5
 (Enter /opt/cluster/programs/g09_d.01/g09/l401.exe)
 ExpMin= 4.38D-02 ExpMax= 7.00D+03 ExpMxC= 1.05D+03 IAcc=2 IRadAn=         4 AccDes= 0.00D+00
 Harris functional with IExCor= 4639 and IRadAn=       4 diagonalized for initial guess.
 HarFok:  IExCor= 4639 AccDes= 0.00D+00 IRadAn=         4 IDoV= 1 UseB2=F ITyADJ=14
 ICtDFT=  3500011 ScaDFX=  1.000000  1.000000  1.000000  1.000000
 FoFCou: FMM=F IPFlag=           0 FMFlag=      100000 FMFlg1=           0
         NFxFlg=           0 DoJE=T BraDBF=F KetDBF=T FulRan=T
         wScrn=  0.000000 ICntrl=     500 IOpCl=  0 I1Cent=   200000004 NGrid=           0
         NMat0=    1 NMatS0=      1 NMatT0=    0 NMatD0=    1 NMtDS0=    0 NMtDT0=    0
 Petite list used in FoFCou.
 Harris En= -511.190108688606    
 JPrj=0 DoOrth=F DoCkMO=F.
 Leave Link  401 at Wed May 26 09:20:50 2021, MaxMem=  2147483648 cpu:         2.5
 (Enter /opt/cluster/programs/g09_d.01/g09/l502.exe)
 Closed shell SCF:
 Using DIIS extrapolation, IDIIS=  1040.
 Integral symmetry usage will be decided dynamically.
 Keep R1 ints in memory in canonical form, NReq=43969700.
 IVT=       59316 IEndB=       59316 NGot=  2147483648 MDV=  2104449753
 LenX=  2104449753 LenY=  2104436316
 Requested convergence on RMS density matrix=1.00D-08 within 128 cycles.
 Requested convergence on MAX density matrix=1.00D-06.
 Requested convergence on             energy=1.00D-06.
 No special actions if energy rises.
 FoFCou: FMM=F IPFlag=           0 FMFlag=           0 FMFlg1=           0
         NFxFlg=           0 DoJE=F BraDBF=F KetDBF=F FulRan=T
         wScrn=  0.000000 ICntrl=     600 IOpCl=  0 I1Cent=           0 NGrid=           0
         NMat0=    1 NMatS0=   6555 NMatT0=    0 NMatD0=    1 NMtDS0=    0 NMtDT0=    0
 Symmetry not used in FoFCou.

 Cycle   1  Pass 1  IDiag  1:
 E= -529.580369339754    
 DIIS: error= 6.25D-02 at cycle   1 NSaved=   1.
 NSaved= 1 IEnMin= 1 EnMin= -529.580369339754     IErMin= 1 ErrMin= 6.25D-02
 ErrMax= 6.25D-02  0.00D+00 EMaxC= 1.00D-01 BMatC= 5.30D-01 BMatP= 5.30D-01
 IDIUse=3 WtCom= 3.75D-01 WtEn= 6.25D-01
 Coeff-Com:  0.100D+01
 Coeff-En:   0.100D+01
 Coeff:      0.100D+01
 Gap=     0.421 Goal=   None    Shift=    0.000
 GapD=    0.421 DampG=2.000 DampE=0.500 DampFc=1.0000 IDamp=-1.
 RMSDP=1.86D-02 MaxDP=7.29D-01              OVMax= 1.33D-01

 Cycle   2  Pass 1  IDiag  1:
 E= -529.730816014148     Delta-E=       -0.150446674393 Rises=F Damp=F
 DIIS: error= 5.04D-02 at cycle   2 NSaved=   2.
 NSaved= 2 IEnMin= 2 EnMin= -529.730816014148     IErMin= 2 ErrMin= 5.04D-02
 ErrMax= 5.04D-02  0.00D+00 EMaxC= 1.00D-01 BMatC= 3.16D-01 BMatP= 5.30D-01
 IDIUse=3 WtCom= 4.96D-01 WtEn= 5.04D-01
 Coeff-Com:  0.430D+00 0.570D+00
 Coeff-En:   0.324D+00 0.676D+00
 Coeff:      0.376D+00 0.624D+00
 Gap=     0.522 Goal=   None    Shift=    0.000
 RMSDP=4.04D-03 MaxDP=7.38D-02 DE=-1.50D-01 OVMax= 6.54D-02

 Cycle   3  Pass 1  IDiag  1:
 E= -529.909595858070     Delta-E=       -0.178779843922 Rises=F Damp=F
 DIIS: error= 1.20D-02 at cycle   3 NSaved=   3.
 NSaved= 3 IEnMin= 3 EnMin= -529.909595858070     IErMin= 3 ErrMin= 1.20D-02
 ErrMax= 1.20D-02  0.00D+00 EMaxC= 1.00D-01 BMatC= 2.22D-02 BMatP= 3.16D-01
 IDIUse=3 WtCom= 8.80D-01 WtEn= 1.20D-01
 Coeff-Com:  0.978D-01 0.253D+00 0.649D+00
 Coeff-En:   0.000D+00 0.000D+00 0.100D+01
 Coeff:      0.861D-01 0.223D+00 0.691D+00
 Gap=     0.385 Goal=   None    Shift=    0.000
 RMSDP=3.59D-03 MaxDP=1.20D-01 DE=-1.79D-01 OVMax= 3.24D-02

 Cycle   4  Pass 1  IDiag  1:
 E= -529.922440385903     Delta-E=       -0.012844527833 Rises=F Damp=F
 DIIS: error= 3.55D-03 at cycle   4 NSaved=   4.
 NSaved= 4 IEnMin= 4 EnMin= -529.922440385903     IErMin= 4 ErrMin= 3.55D-03
 ErrMax= 3.55D-03  0.00D+00 EMaxC= 1.00D-01 BMatC= 3.68D-03 BMatP= 2.22D-02
 IDIUse=3 WtCom= 9.65D-01 WtEn= 3.55D-02
 Coeff-Com: -0.401D-02 0.255D-01 0.333D+00 0.645D+00
 Coeff-En:   0.000D+00 0.000D+00 0.112D+00 0.888D+00
 Coeff:     -0.387D-02 0.246D-01 0.326D+00 0.654D+00
 Gap=     0.375 Goal=   None    Shift=    0.000
 RMSDP=7.59D-04 MaxDP=1.16D-02 DE=-1.28D-02 OVMax= 1.83D-02

 Cycle   5  Pass 1  IDiag  1:
 E= -529.925041375623     Delta-E=       -0.002600989719 Rises=F Damp=F
 DIIS: error= 1.35D-03 at cycle   5 NSaved=   5.
 NSaved= 5 IEnMin= 5 EnMin= -529.925041375623     IErMin= 5 ErrMin= 1.35D-03
 ErrMax= 1.35D-03  0.00D+00 EMaxC= 1.00D-01 BMatC= 2.99D-04 BMatP= 3.68D-03
 IDIUse=3 WtCom= 9.87D-01 WtEn= 1.35D-02
 Coeff-Com: -0.883D-02-0.343D-02 0.150D+00 0.374D+00 0.489D+00
 Coeff-En:   0.000D+00 0.000D+00 0.000D+00 0.000D+00 0.100D+01
 Coeff:     -0.871D-02-0.339D-02 0.148D+00 0.369D+00 0.495D+00
 Gap=     0.378 Goal=   None    Shift=    0.000
 RMSDP=5.77D-04 MaxDP=1.95D-02 DE=-2.60D-03 OVMax= 4.71D-03

 Cycle   6  Pass 1  IDiag  1:
 E= -529.925258013889     Delta-E=       -0.000216638266 Rises=F Damp=F
 DIIS: error= 2.58D-04 at cycle   6 NSaved=   6.
 NSaved= 6 IEnMin= 6 EnMin= -529.925258013889     IErMin= 6 ErrMin= 2.58D-04
 ErrMax= 2.58D-04  0.00D+00 EMaxC= 1.00D-01 BMatC= 7.26D-06 BMatP= 2.99D-04
 IDIUse=3 WtCom= 9.97D-01 WtEn= 2.58D-03
 Coeff-Com: -0.116D-02-0.460D-02-0.835D-02 0.139D-03 0.119D+00 0.895D+00
 Coeff-En:   0.000D+00 0.000D+00 0.000D+00 0.000D+00 0.000D+00 0.100D+01
 Coeff:     -0.116D-02-0.458D-02-0.833D-02 0.139D-03 0.118D+00 0.896D+00
 Gap=     0.378 Goal=   None    Shift=    0.000
 RMSDP=1.57D-04 MaxDP=5.44D-03 DE=-2.17D-04 OVMax= 1.50D-03

 Cycle   7  Pass 1  IDiag  1:
 E= -529.925267080237     Delta-E=       -0.000009066349 Rises=F Damp=F
 DIIS: error= 4.64D-05 at cycle   7 NSaved=   7.
 NSaved= 7 IEnMin= 7 EnMin= -529.925267080237     IErMin= 7 ErrMin= 4.64D-05
 ErrMax= 4.64D-05  0.00D+00 EMaxC= 1.00D-01 BMatC= 6.94D-07 BMatP= 7.26D-06
 IDIUse=1 WtCom= 1.00D+00 WtEn= 0.00D+00
 Coeff-Com:  0.386D-03-0.151D-02-0.171D-01-0.329D-01-0.117D-01 0.299D+00
 Coeff-Com:  0.764D+00
 Coeff:      0.386D-03-0.151D-02-0.171D-01-0.329D-01-0.117D-01 0.299D+00
 Coeff:      0.764D+00
 Gap=     0.378 Goal=   None    Shift=    0.000
 RMSDP=5.56D-05 MaxDP=1.92D-03 DE=-9.07D-06 OVMax= 3.93D-04

 Cycle   8  Pass 1  IDiag  1:
 E= -529.925268051129     Delta-E=       -0.000000970892 Rises=F Damp=F
 DIIS: error= 1.88D-05 at cycle   8 NSaved=   8.
 NSaved= 8 IEnMin= 8 EnMin= -529.925268051129     IErMin= 8 ErrMin= 1.88D-05
 ErrMax= 1.88D-05  0.00D+00 EMaxC= 1.00D-01 BMatC= 3.15D-08 BMatP= 6.94D-07
 IDIUse=1 WtCom= 1.00D+00 WtEn= 0.00D+00
 Coeff-Com:  0.107D-03 0.155D-03-0.103D-02-0.230D-02-0.130D-01-0.314D-01
 Coeff-Com:  0.695D-01 0.978D+00
 Coeff:      0.107D-03 0.155D-03-0.103D-02-0.230D-02-0.130D-01-0.314D-01
 Coeff:      0.695D-01 0.978D+00
 Gap=     0.378 Goal=   None    Shift=    0.000
 RMSDP=1.46D-05 MaxDP=4.94D-04 DE=-9.71D-07 OVMax= 2.03D-04

 Cycle   9  Pass 1  IDiag  1:
 E= -529.925268127070     Delta-E=       -0.000000075940 Rises=F Damp=F
 DIIS: error= 7.84D-06 at cycle   9 NSaved=   9.
 NSaved= 9 IEnMin= 9 EnMin= -529.925268127070     IErMin= 9 ErrMin= 7.84D-06
 ErrMax= 7.84D-06  0.00D+00 EMaxC= 1.00D-01 BMatC= 6.98D-09 BMatP= 3.15D-08
 IDIUse=1 WtCom= 1.00D+00 WtEn= 0.00D+00
 Coeff-Com:  0.797D-05 0.200D-03 0.114D-02 0.222D-02-0.439D-02-0.383D-01
 Coeff-Com: -0.371D-01 0.377D+00 0.699D+00
 Coeff:      0.797D-05 0.200D-03 0.114D-02 0.222D-02-0.439D-02-0.383D-01
 Coeff:     -0.371D-01 0.377D+00 0.699D+00
 Gap=     0.378 Goal=   None    Shift=    0.000
 RMSDP=2.64D-06 MaxDP=6.42D-05 DE=-7.59D-08 OVMax= 8.07D-05

 Cycle  10  Pass 1  IDiag  1:
 E= -529.925268140418     Delta-E=       -0.000000013348 Rises=F Damp=F
 DIIS: error= 5.54D-06 at cycle  10 NSaved=  10.
 NSaved=10 IEnMin=10 EnMin= -529.925268140418     IErMin=10 ErrMin= 5.54D-06
 ErrMax= 5.54D-06  0.00D+00 EMaxC= 1.00D-01 BMatC= 1.49D-09 BMatP= 6.98D-09
 IDIUse=1 WtCom= 1.00D+00 WtEn= 0.00D+00
 Coeff-Com: -0.254D-04 0.303D-04 0.698D-03 0.151D-02 0.203D-02-0.423D-02
 Coeff-Com: -0.317D-01-0.146D+00 0.258D+00 0.920D+00
 Coeff:     -0.254D-04 0.303D-04 0.698D-03 0.151D-02 0.203D-02-0.423D-02
 Coeff:     -0.317D-01-0.146D+00 0.258D+00 0.920D+00
 Gap=     0.378 Goal=   None    Shift=    0.000
 RMSDP=1.83D-06 MaxDP=3.09D-05 DE=-1.33D-08 OVMax= 7.52D-05

 Cycle  11  Pass 1  IDiag  1:
 E= -529.925268146064     Delta-E=       -0.000000005646 Rises=F Damp=F
 DIIS: error= 2.30D-06 at cycle  11 NSaved=  11.
 NSaved=11 IEnMin=11 EnMin= -529.925268146064     IErMin=11 ErrMin= 2.30D-06
 ErrMax= 2.30D-06  0.00D+00 EMaxC= 1.00D-01 BMatC= 1.32D-10 BMatP= 1.49D-09
 IDIUse=1 WtCom= 1.00D+00 WtEn= 0.00D+00
 Coeff-Com:  0.280D-05-0.328D-04-0.261D-03-0.533D-03 0.433D-03 0.629D-02
 Coeff-Com:  0.804D-02-0.394D-01-0.134D+00-0.117D+00 0.128D+01
 Coeff:      0.280D-05-0.328D-04-0.261D-03-0.533D-03 0.433D-03 0.629D-02
 Coeff:      0.804D-02-0.394D-01-0.134D+00-0.117D+00 0.128D+01
 Gap=     0.378 Goal=   None    Shift=    0.000
 RMSDP=9.43D-07 MaxDP=1.84D-05 DE=-5.65D-09 OVMax= 4.46D-05

 Cycle  12  Pass 1  IDiag  1:
 E= -529.925268147227     Delta-E=       -0.000000001163 Rises=F Damp=F
 DIIS: error= 5.95D-07 at cycle  12 NSaved=  12.
 NSaved=12 IEnMin=12 EnMin= -529.925268147227     IErMin=12 ErrMin= 5.95D-07
 ErrMax= 5.95D-07  0.00D+00 EMaxC= 1.00D-01 BMatC= 2.64D-11 BMatP= 1.32D-10
 IDIUse=1 WtCom= 1.00D+00 WtEn= 0.00D+00
 Coeff-Com:  0.335D-05-0.141D-04-0.159D-03-0.342D-03-0.118D-03 0.205D-02
 Coeff-Com:  0.630D-02 0.133D-01-0.733D-01-0.173D+00 0.352D+00 0.873D+00
 Coeff:      0.335D-05-0.141D-04-0.159D-03-0.342D-03-0.118D-03 0.205D-02
 Coeff:      0.630D-02 0.133D-01-0.733D-01-0.173D+00 0.352D+00 0.873D+00
 Gap=     0.378 Goal=   None    Shift=    0.000
 RMSDP=2.81D-07 MaxDP=5.25D-06 DE=-1.16D-09 OVMax= 1.25D-05

 Cycle  13  Pass 1  IDiag  1:
 E= -529.925268147322     Delta-E=       -0.000000000095 Rises=F Damp=F
 DIIS: error= 1.50D-07 at cycle  13 NSaved=  13.
 NSaved=13 IEnMin=13 EnMin= -529.925268147322     IErMin=13 ErrMin= 1.50D-07
 ErrMax= 1.50D-07  0.00D+00 EMaxC= 1.00D-01 BMatC= 2.12D-12 BMatP= 2.64D-11
 IDIUse=1 WtCom= 1.00D+00 WtEn= 0.00D+00
 Coeff-Com: -0.416D-06 0.359D-05 0.327D-04 0.597D-04-0.250D-04-0.853D-03
 Coeff-Com: -0.981D-03 0.550D-02 0.162D-01 0.144D-01-0.164D+00-0.248D-01
 Coeff-Com:  0.115D+01
 Coeff:     -0.416D-06 0.359D-05 0.327D-04 0.597D-04-0.250D-04-0.853D-03
 Coeff:     -0.981D-03 0.550D-02 0.162D-01 0.144D-01-0.164D+00-0.248D-01
 Coeff:      0.115D+01
 Gap=     0.378 Goal=   None    Shift=    0.000
 RMSDP=1.04D-07 MaxDP=1.80D-06 DE=-9.53D-11 OVMax= 3.90D-06

 Cycle  14  Pass 1  IDiag  1:
 E= -529.925268147342     Delta-E=       -0.000000000019 Rises=F Damp=F
 DIIS: error= 1.80D-08 at cycle  14 NSaved=  14.
 NSaved=14 IEnMin=14 EnMin= -529.925268147342     IErMin=14 ErrMin= 1.80D-08
 ErrMax= 1.80D-08  0.00D+00 EMaxC= 1.00D-01 BMatC= 6.76D-14 BMatP= 2.12D-12
 IDIUse=1 WtCom= 1.00D+00 WtEn= 0.00D+00
 Coeff-Com: -0.868D-07 0.539D-06 0.488D-05 0.934D-05 0.903D-05-0.804D-04
 Coeff-Com: -0.140D-03-0.217D-03 0.165D-02 0.446D-02-0.912D-02-0.265D-01
 Coeff-Com:  0.443D-02 0.103D+01
 Coeff:     -0.868D-07 0.539D-06 0.488D-05 0.934D-05 0.903D-05-0.804D-04
 Coeff:     -0.140D-03-0.217D-03 0.165D-02 0.446D-02-0.912D-02-0.265D-01
 Coeff:      0.443D-02 0.103D+01
 Gap=     0.378 Goal=   None    Shift=    0.000
 RMSDP=1.46D-08 MaxDP=3.79D-07 DE=-1.93D-11 OVMax= 2.71D-07

 Cycle  15  Pass 1  IDiag  1:
 E= -529.925268147337     Delta-E=        0.000000000004 Rises=F Damp=F
 DIIS: error= 1.18D-08 at cycle  15 NSaved=  15.
 NSaved=15 IEnMin=14 EnMin= -529.925268147342     IErMin=15 ErrMin= 1.18D-08
 ErrMax= 1.18D-08  0.00D+00 EMaxC= 1.00D-01 BMatC= 2.28D-14 BMatP= 6.76D-14
 IDIUse=1 WtCom= 1.00D+00 WtEn= 0.00D+00
 Coeff-Com: -0.631D-08-0.519D-07-0.553D-06-0.846D-06 0.820D-05 0.379D-04
 Coeff-Com:  0.236D-04-0.671D-03-0.580D-03 0.122D-02 0.100D-01-0.129D-01
 Coeff-Com: -0.978D-01 0.521D+00 0.580D+00
 Coeff:     -0.631D-08-0.519D-07-0.553D-06-0.846D-06 0.820D-05 0.379D-04
 Coeff:      0.236D-04-0.671D-03-0.580D-03 0.122D-02 0.100D-01-0.129D-01
 Coeff:     -0.978D-01 0.521D+00 0.580D+00
 Gap=     0.378 Goal=   None    Shift=    0.000
 RMSDP=3.10D-09 MaxDP=7.76D-08 DE= 4.43D-12 OVMax= 3.47D-08

 SCF Done:  E(RwB97XD) =  -529.925268147     A.U. after   15 cycles
            NFock= 15  Conv=0.31D-08     -V/T= 2.0052
 KE= 5.271867204112D+02 PE=-2.059436583971D+03 EE= 5.978188795811D+02
 Leave Link  502 at Wed May 26 09:20:55 2021, MaxMem=  2147483648 cpu:        32.3
 (Enter /opt/cluster/programs/g09_d.01/g09/l601.exe)
 Copying SCF densities to generalized density rwf, IOpCl= 0 IROHF=0.

 **********************************************************************

            Population analysis using the SCF density.

 **********************************************************************

 Orbital symmetries:
       Occupied  (A) (A) (A) (A) (A) (A) (A) (A) (A) (A) (A) (A)
                 (A) (A) (A) (A) (A) (A) (A) (A) (A) (A) (A) (A)
                 (A) (A) (A) (A) (A) (A) (A) (A)
       Virtual   (A) (A) (A) (A) (A) (A) (A) (A) (A) (A) (A) (A)
                 (A) (A) (A) (A) (A) (A) (A) (A) (A) (A) (A) (A)
                 (A) (A) (A) (A) (A) (A) (A) (A) (A) (A) (A) (A)
                 (A) (A) (A) (A) (A) (A) (A) (A) (A) (A) (A) (A)
                 (A) (A) (A) (A) (A) (A) (A) (A) (A) (A) (A) (A)
                 (A) (A) (A) (A) (A) (A) (A) (A) (A) (A) (A) (A)
                 (A) (A) (A) (A) (A) (A) (A) (A) (A) (A)
 The electronic state is 1-A.
 Alpha  occ. eigenvalues --  -24.88754 -24.88667 -24.88547 -19.30474 -10.59295
 Alpha  occ. eigenvalues --  -10.43848 -10.36284 -10.32414  -1.43563  -1.35042
 Alpha  occ. eigenvalues --   -1.35003  -1.19598  -0.95090  -0.87613  -0.79594
 Alpha  occ. eigenvalues --   -0.70839  -0.69876  -0.68865  -0.64010  -0.59381
 Alpha  occ. eigenvalues --   -0.58462  -0.56926  -0.56632  -0.55735  -0.53846
 Alpha  occ. eigenvalues --   -0.53439  -0.52142  -0.51506  -0.50977  -0.49588
 Alpha  occ. eigenvalues --   -0.46401  -0.36921
 Alpha virt. eigenvalues --    0.00860   0.05336   0.07840   0.09333   0.09868
 Alpha virt. eigenvalues --    0.10495   0.11303   0.12384   0.12540   0.12797
 Alpha virt. eigenvalues --    0.15009   0.15841   0.16163   0.16574   0.17446
 Alpha virt. eigenvalues --    0.18022   0.18850   0.19863   0.22314   0.22899
 Alpha virt. eigenvalues --    0.26174   0.26604   0.27582   0.30004   0.31048
 Alpha virt. eigenvalues --    0.32446   0.33085   0.36451   0.36857   0.37757
 Alpha virt. eigenvalues --    0.38393   0.39349   0.40729   0.41434   0.41498
 Alpha virt. eigenvalues --    0.43017   0.43058   0.43989   0.44978   0.45603
 Alpha virt. eigenvalues --    0.45742   0.49802   0.51951   0.52818   0.56707
 Alpha virt. eigenvalues --    0.68870   0.74073   0.74848   0.75723   0.79640
 Alpha virt. eigenvalues --    0.82183   0.86370   0.87277   0.88094   0.90092
 Alpha virt. eigenvalues --    0.96879   1.00620   1.10315   1.15937   1.17786
 Alpha virt. eigenvalues --    1.21792   1.21948   1.29959   1.34700   1.36284
 Alpha virt. eigenvalues --    1.41952   1.45954   1.49011   1.56091   1.60376
 Alpha virt. eigenvalues --    1.67358   1.68961   1.72470   1.73283   1.80359
 Alpha virt. eigenvalues --    1.82897   1.84164   1.85796   2.02898   2.30727
 Alpha virt. eigenvalues --    2.33874   2.68547
          Condensed to atoms (all electrons):
               1          2          3          4          5          6
     1  C    7.828263  -0.406969   0.341078   0.346357   0.315090  -1.687230
     2  C   -0.406969   5.970367  -0.043751  -0.023473   0.005640  -0.359144
     3  H    0.341078  -0.043751   0.458438  -0.018150  -0.024355   0.026445
     4  H    0.346357  -0.023473  -0.018150   0.441717  -0.019480   0.025739
     5  H    0.315090   0.005640  -0.024355  -0.019480   0.473471   0.014385
     6  C   -1.687230  -0.359144   0.026445   0.025739   0.014385   8.463968
     7  O   -0.121570   0.482995   0.005743  -0.004299  -0.000460  -0.241170
     8  C   -0.002196  -0.035583  -0.000501   0.000097  -0.001700   0.186915
     9  H    0.046317   0.000626  -0.001174   0.000048  -0.001051   0.258721
    10  H    0.009893  -0.001194   0.000090  -0.000088  -0.000117   0.333251
    11  F    0.023799   0.011025   0.004306  -0.000079  -0.000678  -0.169672
    12  F   -0.003664  -0.008232   0.000018   0.000020   0.000049  -0.132679
    13  F    0.028741   0.021927  -0.000464  -0.000003   0.000024  -0.208842
               7          8          9         10         11         12
     1  C   -0.121570  -0.002196   0.046317   0.009893   0.023799  -0.003664
     2  C    0.482995  -0.035583   0.000626  -0.001194   0.011025  -0.008232
     3  H    0.005743  -0.000501  -0.001174   0.000090   0.004306   0.000018
     4  H   -0.004299   0.000097   0.000048  -0.000088  -0.000079   0.000020
     5  H   -0.000460  -0.001700  -0.001051  -0.000117  -0.000678   0.000049
     6  C   -0.241170   0.186915   0.258721   0.333251  -0.169672  -0.132679
     7  O    8.252681  -0.017364   0.005119  -0.002938  -0.001721  -0.000887
     8  C   -0.017364   4.999713  -0.019067  -0.030579   0.108208   0.168307
     9  H    0.005119  -0.019067   0.466933  -0.021425  -0.005174  -0.003923
    10  H   -0.002938  -0.030579  -0.021425   0.418918   0.008098  -0.001913
    11  F   -0.001721   0.108208  -0.005174   0.008098   9.331663  -0.055092
    12  F   -0.000887   0.168307  -0.003923  -0.001913  -0.055092   9.304042
    13  F    0.015905   0.147223   0.009549  -0.004895  -0.057130  -0.062384
              13
     1  C    0.028741
     2  C    0.021927
     3  H   -0.000464
     4  H   -0.000003
     5  H    0.000024
     6  C   -0.208842
     7  O    0.015905
     8  C    0.147223
     9  H    0.009549
    10  H   -0.004895
    11  F   -0.057130
    12  F   -0.062384
    13  F    9.291259
 Mulliken charges:
               1
     1  C   -0.717909
     2  C    0.385767
     3  H    0.252278
     4  H    0.251592
     5  H    0.239184
     6  C   -0.510685
     7  O   -0.372034
     8  C    0.496527
     9  H    0.264501
    10  H    0.292901
    11  F   -0.197551
    12  F   -0.203661
    13  F   -0.180910
 Sum of Mulliken charges =   0.00000
 Mulliken charges with hydrogens summed into heavy atoms:
               1
     1  C    0.025145
     2  C    0.385767
     6  C    0.046716
     7  O   -0.372034
     8  C    0.496527
    11  F   -0.197551
    12  F   -0.203661
    13  F   -0.180910
 Electronic spatial extent (au):  <R**2>=            975.0703
 Charge=              0.0000 electrons
 Dipole moment (field-independent basis, Debye):
    X=             -1.7480    Y=             -2.9326    Z=              2.3943  Tot=              4.1699
 Quadrupole moment (field-independent basis, Debye-Ang):
   XX=            -49.3202   YY=            -49.7174   ZZ=            -43.8697
   XY=              6.6995   XZ=             -0.9307   YZ=              0.6099
 Traceless Quadrupole moment (field-independent basis, Debye-Ang):
   XX=             -1.6844   YY=             -2.0817   ZZ=              3.7661
   XY=              6.6995   XZ=             -0.9307   YZ=              0.6099
 Octapole moment (field-independent basis, Debye-Ang**2):
  XXX=             11.2795  YYY=             -6.6348  ZZZ=             -1.6228  XYY=             11.2479
  XXY=            -11.3760  XXZ=             -3.4785  XZZ=              3.7665  YZZ=              1.4489
  YYZ=              2.0856  XYZ=             -0.1190
 Hexadecapole moment (field-independent basis, Debye-Ang**3):
 XXXX=           -730.9992 YYYY=           -249.7410 ZZZZ=           -146.1012 XXXY=             23.2141
 XXXZ=             -7.0076 YYYX=              6.2328 YYYZ=              0.2712 ZZZX=             -1.1932
 ZZZY=              0.1009 XXYY=           -175.5066 XXZZ=           -145.0493 YYZZ=            -61.7466
 XXYZ=              2.6314 YYXZ=              0.0183 ZZXY=              0.7915
 N-N= 4.045057158314D+02 E-N=-2.059436583938D+03  KE= 5.271867204112D+02
 No NMR shielding tensors so no spin-rotation constants.
 Leave Link  601 at Wed May 26 09:20:57 2021, MaxMem=  2147483648 cpu:         3.6
 (Enter /opt/cluster/programs/g09_d.01/g09/l701.exe)
 Compute integral first derivatives.
 ... and contract with generalized density number  0.
 R6Disp: Adding Grimme-D2 dispersion energy 1st derivatives to the gradient.
 Leave Link  701 at Wed May 26 09:20:59 2021, MaxMem=  2147483648 cpu:         4.3
 (Enter /opt/cluster/programs/g09_d.01/g09/l702.exe)
 L702 exits ... SP integral derivatives will be done elsewhere.
 Leave Link  702 at Wed May 26 09:20:59 2021, MaxMem=  2147483648 cpu:         0.1
 (Enter /opt/cluster/programs/g09_d.01/g09/l703.exe)
 Compute integral first derivatives, UseDBF=F ICtDFT=           0.
 Integral derivatives from FoFJK, PRISM(SPDF).
 Calling FoFJK, ICntrl=      2127 FMM=F ISym2X=0 I1Cent= 0 IOpClX= 0 NMat=1 NMatS=1 NMatT=0.
 FoFJK:  IHMeth= 1 ICntrl=    2127 DoSepK=T KAlg= 0 I1Cent=   0 FoldK=F
 IRaf=         1 NMat=   1 IRICut=       1 DoRegI=T DoRafI=F ISym2E= 0.
 FoFCou: FMM=F IPFlag=           0 FMFlag=      100000 FMFlg1=         800
         NFxFlg=           0 DoJE=F BraDBF=F KetDBF=F FulRan=T
         wScrn=  0.000000 ICntrl=    2527 IOpCl=  0 I1Cent=           0 NGrid=           0
         NMat0=    1 NMatS0=      1 NMatT0=    0 NMatD0=    1 NMtDS0=    0 NMtDT0=    0
 Symmetry not used in FoFCou.
 Leave Link  703 at Wed May 26 09:21:03 2021, MaxMem=  2147483648 cpu:        13.5
 (Enter /opt/cluster/programs/g09_d.01/g09/l716.exe)
 Dipole        =-6.87733620D-01-1.15375806D+00 9.42000396D-01
 ***** Axes restored to original set *****
 -------------------------------------------------------------------
 Center     Atomic                   Forces (Hartrees/Bohr)
 Number     Number              X              Y              Z
 -------------------------------------------------------------------
      1        6          -0.000587798    0.000165243   -0.001067069
      2        6           0.000808973    0.000259555    0.001462100
      3        1           0.000023731   -0.000026990   -0.000023520
      4        1           0.000013943   -0.000001867   -0.000009677
      5        1           0.000007075   -0.000008781   -0.000007213
      6        6          -0.000394095   -0.001467388   -0.000217026
      7        8           0.000028042   -0.000006962    0.000018284
      8        6           0.000004989    0.000956724   -0.000026369
      9        1          -0.000009615    0.000007358   -0.000033551
     10        1           0.000024530    0.000001034    0.000003414
     11        9          -0.000002980    0.000074933   -0.000107981
     12        9           0.000049968    0.000016711   -0.000030870
     13        9           0.000033237    0.000030429    0.000039478
 -------------------------------------------------------------------
 Cartesian Forces:  Max     0.001467388 RMS     0.000443548
 Leave Link  716 at Wed May 26 09:21:04 2021, MaxMem=  2147483648 cpu:         0.3
 (Enter /opt/cluster/programs/g09_d.01/g09/l103.exe)

 GradGradGradGradGradGradGradGradGradGradGradGradGradGradGradGradGradGrad
 Berny optimization.
 FormGI is forming the generalized inverse of G from B-inverse, IUseBI=4.
 Internal  Forces:  Max     0.001147828 RMS     0.000252102
 Search for a local minimum.
 Step number   1 out of a maximum of   64
 All quantities printed in internal units (Hartrees-Bohrs-Radians)
 RMS Force = .27022D-04 SwitMx=.10000D-02 MixMth= 2
 Mixed Optimization -- En-DIIS/RFO-DIIS
 Second derivative matrix not updated -- first step.
 ITU=  0
     Eigenvalues ---    0.00480   0.00700   0.00750   0.03104   0.05649
     Eigenvalues ---    0.07341   0.07465   0.08211   0.08623   0.09201
     Eigenvalues ---    0.11644   0.16000   0.16000   0.16000   0.22053
     Eigenvalues ---    0.24985   0.25000   0.25000   0.25000   0.25000
     Eigenvalues ---    0.29192   0.31857   0.32248   0.34012   0.34153
     Eigenvalues ---    0.34495   0.34548   0.34774   0.46075   0.46866
     Eigenvalues ---    0.48644   0.902191000.000001000.000001000.00000
     Eigenvalues --- 1000.000001000.000001000.000001000.000001000.00000
     Eigenvalues --- 1000.000001000.000001000.000001000.000001000.00000
     Eigenvalues --- 1000.000001000.000001000.000001000.000001000.00000
     Eigenvalues --- 1000.000001000.000001000.000001000.00000
 RFO step:  Lambda=-1.52613418D-07 EMin= 4.80036602D-03
 Linear search not attempted -- first point.
 Iteration  1 RMS(Cart)=  0.00032496 RMS(Int)=  0.00000008
 Iteration  2 RMS(Cart)=  0.00000009 RMS(Int)=  0.00000002
 Iteration  1 RMS(Cart)=  0.00000000 RMS(Int)=  0.00000000
 ITry= 1 IFail=0 DXMaxC= 8.43D-04 DCOld= 1.00D+10 DXMaxT= 3.00D-01 DXLimC= 3.00D+00 Rises=F
 Variable       Old X    -DE/DX   Delta X   Delta X   Delta X     New X
                                 (Linear)    (Quad)   (Total)
    R1        2.83692   0.00001   0.00000   0.00003   0.00003   2.83695
    R2        2.07073  -0.00003   0.00000  -0.00008  -0.00008   2.07065
    R3        2.06044   0.00001   0.00000   0.00004   0.00004   2.06048
    R4        2.07309   0.00000   0.00000   0.00001   0.00001   2.07310
    R5        2.89605   0.00001   0.00000   0.00003   0.00003   2.89608
    R6        2.32832   0.00001   0.00000   0.00002   0.00002   2.32834
    R7        2.84407   0.00003   0.00000   0.00009   0.00009   2.84416
    R8        2.06416  -0.00002   0.00000  -0.00006  -0.00006   2.06410
    R9        2.06503   0.00000   0.00000   0.00001   0.00001   2.06504
   R10        2.64046   0.00014   0.00000   0.00030   0.00030   2.64076
   R11        2.63167  -0.00005   0.00000  -0.00012  -0.00012   2.63155
   R12        2.61259  -0.00005   0.00000  -0.00011  -0.00011   2.61248
    A1        1.92544   0.00003   0.00000   0.00022   0.00022   1.92566
    A2        1.92085   0.00000   0.00000  -0.00001  -0.00001   1.92084
    A3        1.91862  -0.00003   0.00000  -0.00020  -0.00020   1.91841
    A4        1.91681  -0.00001   0.00000  -0.00006  -0.00006   1.91675
    A5        1.87372   0.00002   0.00000   0.00019   0.00019   1.87391
    A6        1.90778   0.00000   0.00000  -0.00013  -0.00013   1.90765
    A7        2.04157   0.00004   0.00000   0.00016   0.00016   2.04172
    A8        2.14803  -0.00002   0.00000  -0.00018  -0.00018   2.14786
    A9        2.09318  -0.00001   0.00000   0.00000   0.00000   2.09318
   A10        1.97082   0.00002   0.00000   0.00010   0.00010   1.97092
   A11        1.93689   0.00002   0.00000  -0.00001  -0.00001   1.93688
   A12        1.89917  -0.00003   0.00000  -0.00018  -0.00018   1.89899
   A13        1.87259  -0.00051   0.00000  -0.00015  -0.00015   1.87244
   A14        1.87782   0.00051   0.00000   0.00009   0.00009   1.87791
   A15        1.90480   0.00001   0.00000   0.00016   0.00016   1.90497
   A16        1.94813   0.00002   0.00000   0.00001   0.00001   1.94814
   A17        1.93835   0.00000   0.00000   0.00004   0.00004   1.93839
   A18        1.97991  -0.00002   0.00000  -0.00006  -0.00006   1.97985
   A19        1.85960  -0.00002   0.00000  -0.00014  -0.00014   1.85946
   A20        1.86390   0.00000   0.00000  -0.00006  -0.00006   1.86384
   A21        1.86743   0.00003   0.00000   0.00020   0.00020   1.86763
    D1       -0.97055   0.00024   0.00000  -0.00055  -0.00055  -0.97109
    D2        2.20186  -0.00025   0.00000   0.00025   0.00025   2.20211
    D3       -3.08843   0.00023   0.00000  -0.00061  -0.00061  -3.08903
    D4        0.08397  -0.00025   0.00000   0.00019   0.00019   0.08417
    D5        1.09252   0.00026   0.00000  -0.00030  -0.00030   1.09221
    D6       -2.01827  -0.00023   0.00000   0.00050   0.00050  -2.01777
    D7        1.74155  -0.00115   0.00000   0.00000   0.00000   1.74155
    D8       -0.36177  -0.00051   0.00000   0.00013   0.00013  -0.36164
    D9       -2.45794  -0.00052   0.00000   0.00005   0.00005  -2.45789
   D10       -1.42983  -0.00068   0.00000  -0.00078  -0.00078  -1.43061
   D11        2.75003  -0.00004   0.00000  -0.00065  -0.00065   2.74938
   D12        0.65386  -0.00005   0.00000  -0.00073  -0.00073   0.65314
   D13       -1.01268   0.00021   0.00000   0.00026   0.00026  -1.01242
   D14       -3.08514   0.00023   0.00000   0.00040   0.00040  -3.08474
   D15        1.09398   0.00021   0.00000   0.00015   0.00015   1.09413
   D16        1.12698  -0.00011   0.00000   0.00021   0.00021   1.12719
   D17       -0.94548  -0.00010   0.00000   0.00035   0.00035  -0.94514
   D18       -3.04955  -0.00012   0.00000   0.00010   0.00010  -3.04945
   D19       -3.10866  -0.00010   0.00000   0.00037   0.00037  -3.10830
   D20        1.10206  -0.00009   0.00000   0.00051   0.00051   1.10257
   D21       -1.00201  -0.00011   0.00000   0.00026   0.00026  -1.00175
         Item               Value     Threshold  Converged?
 Maximum Force            0.000138     0.000450     YES
 RMS     Force            0.000027     0.000300     YES
 Maximum Displacement     0.000843     0.001800     YES
 RMS     Displacement     0.000325     0.001200     YES
 Predicted change in Energy=-7.633394D-08
 Optimization completed.
    -- Stationary point found.
                           ----------------------------
                           !   Optimized Parameters   !
                           ! (Angstroms and Degrees)  !
 --------------------------                            --------------------------
 ! Name  Definition              Value          Derivative Info.                !
 --------------------------------------------------------------------------------
 ! R1    R(1,2)                  1.5012         -DE/DX =    0.0                 !
 ! R2    R(1,3)                  1.0958         -DE/DX =    0.0                 !
 ! R3    R(1,4)                  1.0903         -DE/DX =    0.0                 !
 ! R4    R(1,5)                  1.097          -DE/DX =    0.0                 !
 ! R5    R(2,6)                  1.5325         -DE/DX =    0.0                 !
 ! R6    R(2,7)                  1.2321         -DE/DX =    0.0                 !
 ! R7    R(6,8)                  1.505          -DE/DX =    0.0                 !
 ! R8    R(6,9)                  1.0923         -DE/DX =    0.0                 !
 ! R9    R(6,10)                 1.0928         -DE/DX =    0.0                 !
 ! R10   R(8,11)                 1.3973         -DE/DX =    0.0001              !
 ! R11   R(8,12)                 1.3926         -DE/DX =   -0.0001              !
 ! R12   R(8,13)                 1.3825         -DE/DX =   -0.0001              !
 ! A1    A(2,1,3)              110.3196         -DE/DX =    0.0                 !
 ! A2    A(2,1,4)              110.0566         -DE/DX =    0.0                 !
 ! A3    A(2,1,5)              109.9286         -DE/DX =    0.0                 !
 ! A4    A(3,1,4)              109.8253         -DE/DX =    0.0                 !
 ! A5    A(3,1,5)              107.3562         -DE/DX =    0.0                 !
 ! A6    A(4,1,5)              109.308          -DE/DX =    0.0                 !
 ! A7    A(1,2,6)              116.9731         -DE/DX =    0.0                 !
 ! A8    A(1,2,7)              123.0731         -DE/DX =    0.0                 !
 ! A9    A(6,2,7)              119.9303         -DE/DX =    0.0                 !
 ! A10   A(2,6,8)              112.9195         -DE/DX =    0.0                 !
 ! A11   A(2,6,9)              110.9754         -DE/DX =    0.0                 !
 ! A12   A(2,6,10)             108.8145         -DE/DX =    0.0                 !
 ! A13   A(8,6,9)              107.2916         -DE/DX =   -0.0005              !
 ! A14   A(8,6,10)             107.591          -DE/DX =    0.0005              !
 ! A15   A(9,6,10)             109.1371         -DE/DX =    0.0                 !
 ! A16   A(6,8,11)             111.6196         -DE/DX =    0.0                 !
 ! A17   A(6,8,12)             111.0591         -DE/DX =    0.0                 !
 ! A18   A(6,8,13)             113.4404         -DE/DX =    0.0                 !
 ! A19   A(11,8,12)            106.5473         -DE/DX =    0.0                 !
 ! A20   A(11,8,13)            106.7936         -DE/DX =    0.0                 !
 ! A21   A(12,8,13)            106.9961         -DE/DX =    0.0                 !
 ! D1    D(3,1,2,6)            -55.6082         -DE/DX =    0.0002              !
 ! D2    D(3,1,2,7)            126.157          -DE/DX =   -0.0002              !
 ! D3    D(4,1,2,6)           -176.9538         -DE/DX =    0.0002              !
 ! D4    D(4,1,2,7)              4.8113         -DE/DX =   -0.0003              !
 ! D5    D(5,1,2,6)             62.5966         -DE/DX =    0.0003              !
 ! D6    D(5,1,2,7)           -115.6382         -DE/DX =   -0.0002              !
 ! D7    D(1,2,6,8)             99.7834         -DE/DX =   -0.0011              !
 ! D8    D(1,2,6,9)            -20.7281         -DE/DX =   -0.0005              !
 ! D9    D(1,2,6,10)          -140.8296         -DE/DX =   -0.0005              !
 ! D10   D(7,2,6,8)            -81.9234         -DE/DX =   -0.0007              !
 ! D11   D(7,2,6,9)            157.5651         -DE/DX =    0.0                 !
 ! D12   D(7,2,6,10)            37.4636         -DE/DX =    0.0                 !
 ! D13   D(2,6,8,11)           -58.022          -DE/DX =    0.0002              !
 ! D14   D(2,6,8,12)          -176.7656         -DE/DX =    0.0002              !
 ! D15   D(2,6,8,13)            62.6805         -DE/DX =    0.0002              !
 ! D16   D(9,6,8,11)            64.5713         -DE/DX =   -0.0001              !
 ! D17   D(9,6,8,12)           -54.1723         -DE/DX =   -0.0001              !
 ! D18   D(9,6,8,13)          -174.7262         -DE/DX =   -0.0001              !
 ! D19   D(10,6,8,11)         -178.1133         -DE/DX =   -0.0001              !
 ! D20   D(10,6,8,12)           63.1432         -DE/DX =   -0.0001              !
 ! D21   D(10,6,8,13)          -57.4107         -DE/DX =   -0.0001              !
 --------------------------------------------------------------------------------
 Lowest energy point so far.  Saving SCF results.
 GradGradGradGradGradGradGradGradGradGradGradGradGradGradGradGradGradGrad

 Largest change from initial coordinates is atom    5       0.000 Angstoms.
 Leave Link  103 at Wed May 26 09:21:13 2021, MaxMem=  2147483648 cpu:        42.1
 (Enter /opt/cluster/programs/g09_d.01/g09/l202.exe)
                          Input orientation:                          
 ---------------------------------------------------------------------
 Center     Atomic      Atomic             Coordinates (Angstroms)
 Number     Number       Type             X           Y           Z
 ---------------------------------------------------------------------
      1          6           0        2.304558    1.007790   -0.095226
      2          6           0        1.468832   -0.204524    0.197278
      3          1           0        1.720958    1.745775   -0.656942
      4          1           0        3.188875    0.723461   -0.666169
      5          1           0        2.616000    1.482601    0.843410
      6          6           0        0.144876    0.025189    0.934164
      7          8           0        1.817397   -1.348729   -0.098283
      8          6           0       -1.044970    0.033921    0.012607
      9          1           0        0.152631    0.980669    1.463434
     10          1           0       -0.001854   -0.782627    1.655308
     11          9           0       -0.923550    1.014235   -0.975631
     12          9           0       -2.216358    0.317179    0.710465
     13          9           0       -1.244044   -1.168559   -0.639913
 ---------------------------------------------------------------------
                    Distance matrix (angstroms):
                    1          2          3          4          5
     1  C    0.000000
     2  C    1.501233   0.000000
     3  H    1.095781   2.144044   0.000000
     4  H    1.090337   2.136643   1.788852   0.000000
     5  H    1.097032   2.140063   1.766753   1.784183   0.000000
     6  C    2.586383   1.532524   2.824194   3.509214   2.870321
     7  O    2.406349   1.232095   3.146006   2.549003   3.088848
     8  C    3.489898   2.531829   3.321009   4.343000   4.023880
     9  H    2.657244   2.177204   2.746094   3.717545   2.589315
    10  H    3.404335   2.150110   3.835023   4.223542   3.555783
    11  F    3.346018   2.929946   2.762270   4.134290   4.007080
    12  F    4.643788   3.757148   4.406035   5.592560   4.972682
    13  F    4.198304   2.998324   4.157508   4.819876   4.912111
                    6          7          8          9         10
     6  C    0.000000
     7  O    2.398108   0.000000
     8  C    1.505017   3.180749   0.000000
     9  H    1.092304   3.261365   2.106058   0.000000
    10  H    1.092769   2.589445   2.110286   1.780420   0.000000
    11  F    2.401471   3.723725   1.397273   2.666145   3.316636
    12  F    2.389712   4.438525   1.392620   2.572798   2.646947
    13  F    2.414923   3.114201   1.382523   3.315713   2.638185
                   11         12         13
    11  F    0.000000
    12  F    2.236104   0.000000
    13  F    2.231594   2.230770   0.000000
 Stoichiometry    C4H5F3O
 Framework group  C1[X(C4H5F3O)]
 Deg. of freedom    33
 Full point group                 C1      NOp   1
 RotChk:  IX=0 Diff= 1.61D-16
 Largest Abelian subgroup         C1      NOp   1
 Largest concise Abelian subgroup C1      NOp   1
                         Standard orientation:                         
 ---------------------------------------------------------------------
 Center     Atomic      Atomic             Coordinates (Angstroms)
 Number     Number       Type             X           Y           Z
 ---------------------------------------------------------------------
      1          6           0       -2.304558   -1.007790   -0.095226
      2          6           0       -1.468832    0.204524    0.197278
      3          1           0       -1.720958   -1.745775   -0.656942
      4          1           0       -3.188875   -0.723461   -0.666169
      5          1           0       -2.616000   -1.482601    0.843410
      6          6           0       -0.144876   -0.025189    0.934164
      7          8           0       -1.817397    1.348729   -0.098283
      8          6           0        1.044970   -0.033921    0.012607
      9          1           0       -0.152631   -0.980669    1.463434
     10          1           0        0.001854    0.782627    1.655308
     11          9           0        0.923550   -1.014235   -0.975631
     12          9           0        2.216358   -0.317179    0.710465
     13          9           0        1.244044    1.168559   -0.639913
 ---------------------------------------------------------------------
 Rotational constants (GHZ):      3.3891844      1.3760424      1.2319310
 Leave Link  202 at Wed May 26 09:21:14 2021, MaxMem=  2147483648 cpu:         0.3
 (Enter /opt/cluster/programs/g09_d.01/g09/l9999.exe)
 1\1\GINC-NODE06\FOpt\RwB97XD\6-31+G\C4H5F3O1\BOITTIER\26-May-2021\0\\#
 p wB97XD/6-31+G Opt=ModRedun\\N.pdb\\0,1\C,2.304558,1.00779,-0.095226\
 C,1.468832,-0.204524,0.197278\H,1.720958,1.745775,-0.656942\H,3.188875
 ,0.723461,-0.666169\H,2.616,1.482601,0.84341\C,0.144876,0.025189,0.934
 164\O,1.817397,-1.348729,-0.098283\C,-1.04497,0.033921,0.012607\H,0.15
 2631,0.980669,1.463434\H,-0.001854,-0.782627,1.655308\F,-0.92355,1.014
 235,-0.975631\F,-2.216358,0.317179,0.710465\F,-1.244044,-1.168559,-0.6
 39913\\Version=ES64L-G09RevD.01\State=1-A\HF=-529.9252681\RMSD=3.095e-
 09\RMSF=4.435e-04\Dipole=0.6877337,1.153758,0.9420004\Quadrupole=-1.25
 23369,-1.5476602,2.7999971,4.9809094,0.691987,-0.4534353\PG=C01 [X(C4H
 5F3O1)]\\@


 IF AT FIRST YOU DON'T SUCCEED, TRY, TRY AGAIN.
 THEN GIVE UP;
 THERE'S NO USE BEING A DAMN FOOL ABOUT IT.

                                 -- W. C. FIELDS
 Job cpu time:       0 days  0 hours  1 minutes 56.1 seconds.
 File lengths (MBytes):  RWF=      7 Int=      0 D2E=      0 Chk=      3 Scr=      1
 Normal termination of Gaussian 09 at Wed May 26 09:21:14 2021.
