O.pdb                                                                   
FOpt      RwB97XD                                                     6-31+G              
Number of atoms                            I               11
Info1-9                                    I   N=           9
          22          22           0           0           0         100
           2          18        -802
Charge                                     I                0
Multiplicity                               I                1
Number of electrons                        I               40
Number of alpha electrons                  I               20
Number of beta electrons                   I               20
Number of basis functions                  I               77
Number of independent functions            I               77
Number of point charges in /Mol/           I                0
Number of translation vectors              I                0
Atomic numbers                             I   N=          11
           6           6           1           1           1           8
           8           6           1           1           1
Nuclear charges                            R   N=          11
  6.00000000E+00  6.00000000E+00  1.00000000E+00  1.00000000E+00  1.00000000E+00
  8.00000000E+00  8.00000000E+00  6.00000000E+00  1.00000000E+00  1.00000000E+00
  1.00000000E+00
Current cartesian coordinates              R   N=          33
 -3.25107756E+00 -1.20084155E+00  2.74550798E-01 -9.38619696E-01  3.49429303E-01
 -2.28641697E-01 -3.39686048E+00 -2.76945597E+00 -1.05879461E+00 -4.93384656E+00
 -1.69848286E-02  1.79918983E-01 -3.08501787E+00 -2.00546804E+00  2.17440208E+00
  1.14562729E+00 -1.13404917E+00 -6.82223212E-01 -7.98405805E-01  2.66100089E+00
 -3.78058138E-02  3.56113003E+00 -3.11723494E-01  3.83004071E-01  4.14227939E+00
  1.49058769E+00 -4.32662200E-01  4.88906516E+00 -1.80022297E+00 -1.08099846E-01
  3.37801179E+00 -1.35255199E-01  2.43198876E+00
Force Field                                I                0
Int Atom Types                             I   N=          11
           0           0           0           0           0           0
           0           0           0           0           0
MM charges                                 R   N=          11
  0.00000000E+00  0.00000000E+00  0.00000000E+00  0.00000000E+00  0.00000000E+00
  0.00000000E+00  0.00000000E+00  0.00000000E+00  0.00000000E+00  0.00000000E+00
  0.00000000E+00
Integer atomic weights                     I   N=          11
          12          12           1           1           1          16
          16          12           1           1           1
Real atomic weights                        R   N=          11
  1.20000000E+01  1.20000000E+01  1.00782504E+00  1.00782504E+00  1.00782504E+00
  1.59949146E+01  1.59949146E+01  1.20000000E+01  1.00782504E+00  1.00782504E+00
  1.00782504E+00
Atom fragment info                         I   N=          11
           0           0           0           0           0           0
           0           0           0           0           0
Atom residue num                           I   N=          11
           0           0           0           0           0           0
           0           0           0           0           0
Nuclear spins                              I   N=          11
           0           0           1           1           1           0
           0           0           1           1           1
Nuclear ZEff                               R   N=          11
 -3.60000000E+00 -3.60000000E+00 -1.00000000E+00 -1.00000000E+00 -1.00000000E+00
 -5.60000000E+00 -5.60000000E+00 -3.60000000E+00 -1.00000000E+00 -1.00000000E+00
 -1.00000000E+00
Nuclear ZNuc                               R   N=          11
  6.00000000E+00  6.00000000E+00  1.00000000E+00  1.00000000E+00  1.00000000E+00
  8.00000000E+00  8.00000000E+00  6.00000000E+00  1.00000000E+00  1.00000000E+00
  1.00000000E+00
Nuclear QMom                               R   N=          11
  0.00000000E+00  0.00000000E+00  0.00000000E+00  0.00000000E+00  0.00000000E+00
  0.00000000E+00  0.00000000E+00  0.00000000E+00  0.00000000E+00  0.00000000E+00
  0.00000000E+00
Nuclear GFac                               R   N=          11
  0.00000000E+00  0.00000000E+00  2.79284600E+00  2.79284600E+00  2.79284600E+00
  0.00000000E+00  0.00000000E+00  0.00000000E+00  2.79284600E+00  2.79284600E+00
  2.79284600E+00
MicOpt                                     I   N=          11
          -1          -1          -1          -1          -1          -1
          -1          -1          -1          -1          -1
Number of contracted shells                I               32
Number of primitive shells                 I               79
Pure/Cartesian d shells                    I                1
Pure/Cartesian f shells                    I                0
Highest angular momentum                   I                1
Largest degree of contraction              I                6
Shell types                                I   N=          32
           0          -1          -1          -1           0          -1
          -1          -1           0           0           0           0
           0           0           0          -1          -1          -1
           0          -1          -1          -1           0          -1
          -1          -1           0           0           0           0
           0           0
Number of primitives per shell             I   N=          32
           6           3           1           1           6           3
           1           1           3           1           3           1
           3           1           6           3           1           1
           6           3           1           1           6           3
           1           1           3           1           3           1
           3           1
Shell to atom map                          I   N=          32
           1           1           1           1           2           2
           2           2           3           3           4           4
           5           5           6           6           6           6
           7           7           7           7           8           8
           8           8           9           9          10          10
          11          11
Primitive exponents                        R   N=          79
  3.04752488E+03  4.57369518E+02  1.03948685E+02  2.92101553E+01  9.28666296E+00
  3.16392696E+00  7.86827235E+00  1.88128854E+00  5.44249258E-01  1.68714478E-01
  4.38000000E-02  3.04752488E+03  4.57369518E+02  1.03948685E+02  2.92101553E+01
  9.28666296E+00  3.16392696E+00  7.86827235E+00  1.88128854E+00  5.44249258E-01
  1.68714478E-01  4.38000000E-02  1.87311370E+01  2.82539436E+00  6.40121692E-01
  1.61277759E-01  1.87311370E+01  2.82539436E+00  6.40121692E-01  1.61277759E-01
  1.87311370E+01  2.82539436E+00  6.40121692E-01  1.61277759E-01  5.48467166E+03
  8.25234946E+02  1.88046958E+02  5.29645000E+01  1.68975704E+01  5.79963534E+00
  1.55396162E+01  3.59993359E+00  1.01376175E+00  2.70005823E-01  8.45000000E-02
  5.48467166E+03  8.25234946E+02  1.88046958E+02  5.29645000E+01  1.68975704E+01
  5.79963534E+00  1.55396162E+01  3.59993359E+00  1.01376175E+00  2.70005823E-01
  8.45000000E-02  3.04752488E+03  4.57369518E+02  1.03948685E+02  2.92101553E+01
  9.28666296E+00  3.16392696E+00  7.86827235E+00  1.88128854E+00  5.44249258E-01
  1.68714478E-01  4.38000000E-02  1.87311370E+01  2.82539436E+00  6.40121692E-01
  1.61277759E-01  1.87311370E+01  2.82539436E+00  6.40121692E-01  1.61277759E-01
  1.87311370E+01  2.82539436E+00  6.40121692E-01  1.61277759E-01
Contraction coefficients                   R   N=          79
  1.83473713E-03  1.40373228E-02  6.88426223E-02  2.32184443E-01  4.67941348E-01
  3.62311985E-01 -1.19332420E-01 -1.60854152E-01  1.14345644E+00  1.00000000E+00
  1.00000000E+00  1.83473713E-03  1.40373228E-02  6.88426223E-02  2.32184443E-01
  4.67941348E-01  3.62311985E-01 -1.19332420E-01 -1.60854152E-01  1.14345644E+00
  1.00000000E+00  1.00000000E+00  3.34946043E-02  2.34726953E-01  8.13757326E-01
  1.00000000E+00  3.34946043E-02  2.34726953E-01  8.13757326E-01  1.00000000E+00
  3.34946043E-02  2.34726953E-01  8.13757326E-01  1.00000000E+00  1.83107443E-03
  1.39501722E-02  6.84450781E-02  2.32714336E-01  4.70192898E-01  3.58520853E-01
 -1.10777550E-01 -1.48026263E-01  1.13076702E+00  1.00000000E+00  1.00000000E+00
  1.83107443E-03  1.39501722E-02  6.84450781E-02  2.32714336E-01  4.70192898E-01
  3.58520853E-01 -1.10777550E-01 -1.48026263E-01  1.13076702E+00  1.00000000E+00
  1.00000000E+00  1.83473713E-03  1.40373228E-02  6.88426223E-02  2.32184443E-01
  4.67941348E-01  3.62311985E-01 -1.19332420E-01 -1.60854152E-01  1.14345644E+00
  1.00000000E+00  1.00000000E+00  3.34946043E-02  2.34726953E-01  8.13757326E-01
  1.00000000E+00  3.34946043E-02  2.34726953E-01  8.13757326E-01  1.00000000E+00
  3.34946043E-02  2.34726953E-01  8.13757326E-01  1.00000000E+00
P(S=P) Contraction coefficients            R   N=          79
  0.00000000E+00  0.00000000E+00  0.00000000E+00  0.00000000E+00  0.00000000E+00
  0.00000000E+00  6.89990666E-02  3.16423961E-01  7.44308291E-01  1.00000000E+00
  1.00000000E+00  0.00000000E+00  0.00000000E+00  0.00000000E+00  0.00000000E+00
  0.00000000E+00  0.00000000E+00  6.89990666E-02  3.16423961E-01  7.44308291E-01
  1.00000000E+00  1.00000000E+00  0.00000000E+00  0.00000000E+00  0.00000000E+00
  0.00000000E+00  0.00000000E+00  0.00000000E+00  0.00000000E+00  0.00000000E+00
  0.00000000E+00  0.00000000E+00  0.00000000E+00  0.00000000E+00  0.00000000E+00
  0.00000000E+00  0.00000000E+00  0.00000000E+00  0.00000000E+00  0.00000000E+00
  7.08742682E-02  3.39752839E-01  7.27158577E-01  1.00000000E+00  1.00000000E+00
  0.00000000E+00  0.00000000E+00  0.00000000E+00  0.00000000E+00  0.00000000E+00
  0.00000000E+00  7.08742682E-02  3.39752839E-01  7.27158577E-01  1.00000000E+00
  1.00000000E+00  0.00000000E+00  0.00000000E+00  0.00000000E+00  0.00000000E+00
  0.00000000E+00  0.00000000E+00  6.89990666E-02  3.16423961E-01  7.44308291E-01
  1.00000000E+00  1.00000000E+00  0.00000000E+00  0.00000000E+00  0.00000000E+00
  0.00000000E+00  0.00000000E+00  0.00000000E+00  0.00000000E+00  0.00000000E+00
  0.00000000E+00  0.00000000E+00  0.00000000E+00  0.00000000E+00
Coordinates of each shell                  R   N=          96
 -3.25107756E+00 -1.20084155E+00  2.74550798E-01 -3.25107756E+00 -1.20084155E+00
  2.74550798E-01 -3.25107756E+00 -1.20084155E+00  2.74550798E-01 -3.25107756E+00
 -1.20084155E+00  2.74550798E-01 -9.38619696E-01  3.49429303E-01 -2.28641697E-01
 -9.38619696E-01  3.49429303E-01 -2.28641697E-01 -9.38619696E-01  3.49429303E-01
 -2.28641697E-01 -9.38619696E-01  3.49429303E-01 -2.28641697E-01 -3.39686048E+00
 -2.76945597E+00 -1.05879461E+00 -3.39686048E+00 -2.76945597E+00 -1.05879461E+00
 -4.93384656E+00 -1.69848286E-02  1.79918983E-01 -4.93384656E+00 -1.69848286E-02
  1.79918983E-01 -3.08501787E+00 -2.00546804E+00  2.17440208E+00 -3.08501787E+00
 -2.00546804E+00  2.17440208E+00  1.14562729E+00 -1.13404917E+00 -6.82223212E-01
  1.14562729E+00 -1.13404917E+00 -6.82223212E-01  1.14562729E+00 -1.13404917E+00
 -6.82223212E-01  1.14562729E+00 -1.13404917E+00 -6.82223212E-01 -7.98405805E-01
  2.66100089E+00 -3.78058138E-02 -7.98405805E-01  2.66100089E+00 -3.78058138E-02
 -7.98405805E-01  2.66100089E+00 -3.78058138E-02 -7.98405805E-01  2.66100089E+00
 -3.78058138E-02  3.56113003E+00 -3.11723494E-01  3.83004071E-01  3.56113003E+00
 -3.11723494E-01  3.83004071E-01  3.56113003E+00 -3.11723494E-01  3.83004071E-01
  3.56113003E+00 -3.11723494E-01  3.83004071E-01  4.14227939E+00  1.49058769E+00
 -4.32662200E-01  4.14227939E+00  1.49058769E+00 -4.32662200E-01  4.88906516E+00
 -1.80022297E+00 -1.08099846E-01  4.88906516E+00 -1.80022297E+00 -1.08099846E-01
  3.37801179E+00 -1.35255199E-01  2.43198876E+00  3.37801179E+00 -1.35255199E-01
  2.43198876E+00
Constraint Structure                       R   N=          33
 -3.25107756E+00 -1.20084155E+00  2.74550798E-01 -9.38619696E-01  3.49429303E-01
 -2.28641697E-01 -3.39686048E+00 -2.76945597E+00 -1.05879461E+00 -4.93384656E+00
 -1.69848286E-02  1.79918983E-01 -3.08501787E+00 -2.00546804E+00  2.17440208E+00
  1.14562729E+00 -1.13404917E+00 -6.82223212E-01 -7.98405805E-01  2.66100089E+00
 -3.78058138E-02  3.56113003E+00 -3.11723494E-01  3.83004071E-01  4.14227939E+00
  1.49058769E+00 -4.32662200E-01  4.88906516E+00 -1.80022297E+00 -1.08099846E-01
  3.37801179E+00 -1.35255199E-01  2.43198876E+00
Num ILSW                                   I              100
ILSW                                       I   N=         100
           0           1           0           0           2           0
           0           0           0           0        4639          -1
           0           0           0           0           2           0
           0           0           0           0           1           0
           1           0           0           0           0           0
           0           0      100000           0          -1           0
           0           0           0           0           0           0
           0           0           0           1           0           0
           0           0           1           0           0           0
           0           0         121          41           0           0
           0           0          58           0           0           0
           0           0           0          11           0           0
           0           0           0           0           0           0
           0           0           0           0           0           0
           0           0           0           0           0           0
           0           0           0           0           0           0
           0           0           0           0
Num RLSW                                   I               41
RLSW                                       R   N=          41
  1.00000000E+00  1.00000000E+00  1.00000000E+00  1.00000000E+00  1.00000000E+00
  0.00000000E+00  2.00000000E-01  2.22036000E-01  0.00000000E+00  7.77964000E-01
  0.00000000E+00  2.00000000E-01  0.00000000E+00  0.00000000E+00  1.00000000E+00
  0.00000000E+00  0.00000000E+00  1.00000000E+00  0.00000000E+00  0.00000000E+00
  0.00000000E+00  0.00000000E+00  1.00000000E+00  0.00000000E+00  0.00000000E+00
  0.00000000E+00  0.00000000E+00  1.00000000E+00  0.00000000E+00  0.00000000E+00
  0.00000000E+00  0.00000000E+00  1.00000000E+00  0.00000000E+00  0.00000000E+00
  0.00000000E+00  0.00000000E+00  0.00000000E+00  1.00000000E+00  1.00000000E+00
  0.00000000E+00
MxBond                                     I                4
NBond                                      I   N=          11
           4           3           1           1           1           2
           1           4           1           1           1
IBond                                      I   N=          44
           2           3           4           5           1           6
           7           0           1           0           0           0
           1           0           0           0           1           0
           0           0           2           8           0           0
           2           0           0           0           6           9
          10          11           8           0           0           0
           8           0           0           0           8           0
           0           0
RBond                                      R   N=          44
  1.00000000E+00  1.00000000E+00  1.00000000E+00  1.00000000E+00  1.00000000E+00
  1.50000000E+00  2.00000000E+00  0.00000000E+00  1.00000000E+00  0.00000000E+00
  0.00000000E+00  0.00000000E+00  1.00000000E+00  0.00000000E+00  0.00000000E+00
  0.00000000E+00  1.00000000E+00  0.00000000E+00  0.00000000E+00  0.00000000E+00
  1.50000000E+00  1.00000000E+00  0.00000000E+00  0.00000000E+00  2.00000000E+00
  0.00000000E+00  0.00000000E+00  0.00000000E+00  1.00000000E+00  1.00000000E+00
  1.00000000E+00  1.00000000E+00  1.00000000E+00  0.00000000E+00  0.00000000E+00
  0.00000000E+00  1.00000000E+00  0.00000000E+00  0.00000000E+00  0.00000000E+00
  1.00000000E+00  0.00000000E+00  0.00000000E+00  0.00000000E+00
Virial Ratio                               R      2.005749322579149E+00
SCF Energy                                 R     -2.682137308677027E+02
Total Energy                               R     -2.682137308677027E+02
RMS Force                                  R      3.068193508707315E-03
RMS Density                                R      3.208505611192704E-09
External E-field                           R   N=          35
  0.00000000E+00  0.00000000E+00  0.00000000E+00  0.00000000E+00  0.00000000E+00
  0.00000000E+00  0.00000000E+00  0.00000000E+00  0.00000000E+00  0.00000000E+00
  0.00000000E+00  0.00000000E+00  0.00000000E+00  0.00000000E+00  0.00000000E+00
  0.00000000E+00  0.00000000E+00  0.00000000E+00  0.00000000E+00  0.00000000E+00
  0.00000000E+00  0.00000000E+00  0.00000000E+00  0.00000000E+00  0.00000000E+00
  0.00000000E+00  0.00000000E+00  0.00000000E+00  0.00000000E+00  0.00000000E+00
  0.00000000E+00  0.00000000E+00  0.00000000E+00  0.00000000E+00  0.00000000E+00
IOpCl                                      I                0
IROHF                                      I                0
Alpha Orbital Energies                     R   N=          77
 -1.93188186E+01 -1.92790639E+01 -1.04517877E+01 -1.03583463E+01 -1.03118987E+01
 -1.22061084E+00 -1.13517967E+00 -8.79470388E-01 -8.15818689E-01 -6.64912482E-01
 -5.95836766E-01 -5.84976644E-01 -5.68409870E-01 -5.30529884E-01 -5.18612976E-01
 -4.98396950E-01 -4.65434872E-01 -4.37640947E-01 -3.86795144E-01 -3.67400647E-01
  5.18073922E-02  7.12160483E-02  8.18783702E-02  1.00997582E-01  1.02815561E-01
  1.10813204E-01  1.27448262E-01  1.30744716E-01  1.53009540E-01  1.57958837E-01
  1.63870959E-01  1.92222195E-01  2.05272142E-01  2.25732418E-01  2.45556407E-01
  2.59413754E-01  2.71336738E-01  2.82109583E-01  3.00115631E-01  3.16504256E-01
  3.35683646E-01  3.50213194E-01  3.56015440E-01  3.68121584E-01  3.70482229E-01
  3.96814006E-01  4.12677099E-01  4.21763476E-01  4.32403925E-01  4.56947643E-01
  5.58613672E-01  7.19715527E-01  7.43880779E-01  7.45860585E-01  7.59014016E-01
  7.80797816E-01  8.29244263E-01  8.45576133E-01  9.21600856E-01  9.41281324E-01
  1.07535205E+00  1.09527081E+00  1.12600338E+00  1.15921974E+00  1.17916394E+00
  1.20721949E+00  1.25140032E+00  1.28034923E+00  1.32166879E+00  1.36682287E+00
  1.41251007E+00  1.43740669E+00  1.46196225E+00  1.48660236E+00  1.61222905E+00
  1.96321636E+00  2.00245465E+00
Alpha MO coefficients                      R   N=        5929
 -3.69948407E-05 -4.76223174E-04 -1.02764744E-04 -2.92270233E-05  6.30009648E-06
  2.22463716E-03 -1.67188445E-04  1.37807571E-03 -3.09243158E-05  1.45816492E-02
  3.63938245E-03  1.06988849E-03 -5.97589903E-04  8.36802157E-05  3.33596109E-04
  3.81444932E-04 -1.62680053E-04 -2.45663457E-05  3.19518870E-03  4.75627214E-03
 -1.39296804E-03 -7.08785442E-04 -1.86221904E-02  1.52738910E-03  4.90780777E-03
 -9.50339444E-04  6.75965595E-05 -4.11867684E-04 -1.87186898E-04 -6.01060268E-04
  1.42357481E-05 -4.21378927E-04  9.95232942E-01  2.98194117E-02 -2.44342616E-05
  1.65754361E-03  8.90727546E-04 -2.13551645E-02  5.92484507E-04 -3.37440586E-03
 -1.68821873E-03  1.01720226E-02 -6.87776858E-04  1.11504600E-03  4.78936968E-04
 -4.21621622E-04 -1.21390935E-04  4.86006543E-05  8.82595466E-05  3.55846714E-05
 -1.40539895E-04 -1.08948496E-03  3.72029747E-04  4.16036510E-05 -9.75636378E-04
 -6.50017238E-04  1.89599619E-04  2.59150267E-04 -1.72397418E-05 -2.80514043E-05
 -6.69541567E-04 -1.22781009E-04 -2.17527535E-04  3.75697491E-03 -1.11037756E-03
 -3.09581087E-04 -5.33387115E-04  8.63574733E-04  2.91167538E-04  1.62528611E-04
  5.38478739E-04 -3.01139415E-04 -1.06750594E-03 -2.31686972E-04 -9.94909374E-04
 -2.70363798E-04 -1.03031856E-03 -1.36137979E-05 -2.66557747E-04 -1.94136520E-08
 -9.44885879E-05  7.72995511E-06  2.96885924E-03  1.93527927E-03 -1.06002823E-03
 -9.13927482E-04  4.65590513E-03  6.07496686E-04  1.52101910E-03  4.93143449E-04
  2.40135375E-04  3.74010047E-04 -1.81113134E-04 -6.24096855E-05 -3.43183107E-05
  6.76241479E-03  2.02632229E-03  1.01680425E-02  8.81336113E-04 -1.19809616E-02
 -2.27035618E-04 -1.75423179E-03 -1.51077043E-03 -2.48161343E-04 -5.28463760E-04
  1.61172730E-04  1.30359431E-04 -2.32043484E-05 -9.55008317E-05  4.34822846E-04
 -1.36474573E-04  2.36184861E-04 -1.83365102E-06 -2.39964453E-05  5.55513403E-04
 -1.44375847E-03 -1.15230535E-03  1.88521117E-05 -8.37448188E-04 -1.33836803E-03
 -4.37864647E-04 -3.22594163E-04  9.95239583E-01  2.98670654E-02 -3.99786771E-05
 -2.27431729E-03 -1.61535021E-04 -2.38789908E-02 -2.36860055E-05  5.92010665E-03
  3.91957871E-04  7.58763401E-03  2.26147446E-04 -4.85959788E-04  2.89562708E-04
  5.84857967E-06  3.66427655E-05 -1.14698408E-04 -4.38224540E-05 -1.04509326E-05
  1.30351036E-03  2.00333949E-04 -7.43419311E-04 -8.59468283E-04  3.72026440E-03
 -1.31906857E-03  3.54473639E-04  4.34637336E-06 -1.03547855E-05 -2.75611355E-04
 -1.70503436E-04 -5.32229013E-04  1.23723669E-04  1.95304484E-04  7.72893779E-04
 -6.53978615E-04 -1.32670885E-04 -2.86485751E-04  1.10600206E-04  5.66514360E-03
  1.25062753E-03  2.01169794E-03 -8.94876864E-04 -2.81250304E-03 -9.70975722E-04
 -1.64054948E-03 -2.32117296E-04  9.95557840E-01  3.69041802E-02  1.10210537E-03
  6.63505445E-04 -6.75107339E-05 -3.48613792E-02 -5.57027080E-04  4.94628234E-04
 -1.01530698E-05 -8.41111663E-03 -4.30133399E-03  2.07948919E-03  6.91674641E-04
 -9.40009796E-05 -7.30893421E-04 -1.50143268E-04 -1.34318018E-03 -1.79218959E-04
  4.97251074E-04  4.21824978E-05  4.48589349E-04  1.81871613E-04 -1.59477892E-04
 -7.22739099E-05 -1.35241493E-04  5.00994708E-05 -8.17082421E-05  7.46154251E-05
  1.04727525E-02 -7.24054521E-03  3.23900802E-03  8.44283327E-04 -1.36786432E-04
 -3.91105229E-06  7.62269959E-05  5.17470786E-04  5.85021342E-05  7.96763987E-04
 -3.31673695E-04  9.85730226E-05 -4.49106342E-06  8.56630297E-03 -4.10418527E-04
 -4.90165827E-03 -2.37703537E-04 -1.09721929E-04 -5.06891593E-04 -1.79131258E-05
  4.25440935E-05  8.63611010E-06  1.50348088E-03 -1.05230070E-04  2.62128520E-04
  5.21474912E-05  7.31481109E-03 -2.19544716E-03 -4.53129570E-04 -9.97799758E-04
  2.33853951E-06 -1.59426626E-03 -5.66490930E-05  7.23548091E-04 -1.18711649E-04
 -1.12132751E-03 -5.51480744E-06 -1.61354628E-04  7.57697524E-05 -2.52678176E-05
  4.09237757E-05  2.30323252E-03  9.68247256E-04  8.08836741E-04 -4.34521614E-04
  1.89161901E-04  9.30491583E-04  2.62361417E-05  9.67517812E-04 -1.45033499E-05
 -4.32596522E-04 -1.16431118E-04 -1.00863089E-04  8.14613267E-05  7.33643556E-04
  2.01738462E-03  2.05074115E-03 -5.37015417E-04  2.98672832E-03 -9.92595786E-04
 -1.67219638E-03 -2.23063199E-03 -1.42203642E-04  6.20546641E-04 -8.36307846E-05
 -8.84145348E-05  1.20767067E-04 -3.82979844E-04  5.41103721E-05  4.75815559E-04
 -2.62181095E-05  1.62174365E-05 -7.20356735E-05  5.97003482E-04  3.24564370E-04
 -2.54319213E-04  4.11748436E-04  1.38747227E-02  7.51206057E-03  2.74046411E-03
  3.16345714E-03  1.42852696E-05  8.53617530E-05 -6.71944920E-05  7.92148439E-05
  1.03322046E-06 -1.39824958E-03 -3.12571828E-04  2.53983846E-04 -1.01428540E-05
 -1.13794915E-03  1.44866499E-04  1.51833097E-03  1.20764746E-03  9.95536778E-01
  3.71292411E-02 -1.09683283E-03 -3.46865297E-04 -4.11825970E-04 -3.54917661E-02
  3.02600816E-03  9.35675620E-04  1.08822202E-03 -9.00564546E-03  2.89447217E-03
  9.38768447E-04  1.34481728E-03 -5.38012672E-04  5.59748342E-03 -4.98862823E-04
  5.28253856E-03 -5.40514770E-04  5.84069708E-03  9.95465331E-01  3.74950074E-02
  4.36302334E-04  3.42310110E-05  6.07173231E-05 -3.83967458E-02 -3.48884656E-03
 -1.51125733E-03  2.19153674E-04 -9.73642195E-03 -1.37562658E-03 -1.34808837E-03
  5.79173490E-04 -7.32166689E-04 -7.04698963E-04  5.86255748E-04  3.81682201E-04
 -8.49353237E-05  5.72344007E-03 -7.21779814E-03 -3.54592790E-03  1.36138827E-03
  2.59675600E-03 -3.80714960E-03  5.11641468E-04 -3.79775295E-04 -5.36896039E-04
  7.46688931E-03 -5.42474199E-04  6.80596512E-03 -5.29254302E-04  7.97231922E-03
 -1.25571392E-05 -3.44329257E-04  1.80112975E-04 -6.05996136E-05 -5.95371100E-05
  6.04016268E-04 -8.26473593E-04  8.14495034E-04  2.43364397E-04  4.02585036E-03
 -2.18886729E-03  6.97212763E-05  6.59381839E-04 -3.40971184E-06 -1.86510857E-04
  1.94753138E-05  1.22983569E-04  2.75902734E-05  3.76594353E-04  6.85044499E-04
 -4.77056625E-04 -3.20236745E-04  2.56331555E-03  4.46717338E-04 -1.47290465E-03
  3.76458614E-04 -3.92442959E-05 -1.07293875E-04 -6.10349143E-05 -4.20555052E-05
  9.33997205E-05  5.96171683E-04  1.30922922E-04  1.55684135E-04 -7.29315134E-04
  2.92380755E-03 -8.17287764E-04 -1.61826340E-04 -2.52631964E-04 -1.03546650E-04
 -3.16646276E-04 -3.21319954E-05 -1.12340578E-04  1.12760352E-04 -5.45243818E-05
 -1.74398957E-02  3.38250524E-02  2.16170430E-02  1.35392044E-02 -3.66956473E-03
 -1.30994799E-03 -5.19453381E-03 -4.59066937E-03  3.20782709E-03 -8.38865949E-02
 -1.89549030E-02 -1.05007419E-02  9.67713421E-04 -1.20788661E-01  2.47061904E-01
  8.22170069E-02  6.75010364E-02 -1.16368711E-03  4.08326968E-02 -3.49473352E-02
 -4.10497697E-02  2.73969493E-03  1.32747369E-01 -6.32369154E-03 -1.87392671E-02
  1.20946275E-02  5.17820017E-03  5.03110625E-04  5.11925862E-03  5.12847113E-04
  5.33222248E-03 -1.44395373E-03 -1.43887634E-01  3.08672523E-01 -2.68010992E-02
  8.56305288E-02  4.25499976E-02  3.37142283E-01 -8.58151167E-03  5.71401236E-02
  2.82926294E-02 -4.68237021E-02  1.91784986E-02 -1.21217978E-02 -7.18237759E-03
 -1.19668530E-01  2.61043436E-01  2.80734965E-03 -1.23777243E-01 -1.03779969E-02
  2.58676423E-01  6.02651092E-03 -5.19669133E-02 -3.76932244E-03 -9.49139970E-04
  7.14300950E-03 -4.01550340E-03 -4.60318142E-03 -3.93504614E-02  7.16747386E-02
 -5.07211090E-02 -1.15619861E-02 -1.90003550E-02  2.66096496E-02  1.54130036E-03
  8.27970467E-03  6.94430777E-03 -2.22388060E-02  4.39790296E-03 -9.39868782E-04
 -8.16664822E-04  1.16696870E-02  3.65660725E-04  1.11278992E-02  4.35219954E-03
  1.14935334E-02  1.06204104E-04  3.86737366E-03 -6.19519855E-03  1.62724008E-03
 -1.38040933E-02 -6.72432371E-04 -3.33451092E-03  1.09484714E-02 -1.58186835E-02
 -5.60770637E-03 -1.26894898E-01 -3.05126020E-02 -1.14568928E-02  8.07500570E-03
  4.02844286E-02 -8.52283174E-02  6.74938206E-02 -2.17551924E-01 -2.83891119E-02
 -1.98607500E-02 -2.60582467E-02  7.07899694E-02  1.10863564E-02  8.26123564E-02
 -5.01554692E-02 -2.98171914E-02  6.90859656E-03  8.06144115E-05 -6.12319306E-05
 -2.87728613E-03  5.26914773E-03 -5.50982921E-04  4.68996074E-03 -1.43195185E-01
  3.09121483E-01  6.08983158E-03  5.29675713E-02  4.04571398E-02  3.65854449E-01
 -1.39355889E-03  4.11890885E-02  3.09816340E-02  5.58946898E-03 -3.02311651E-02
 -2.13552762E-03 -4.29084979E-03  1.53320469E-01 -3.37307134E-01  1.70297301E-02
  1.33990159E-01  9.33529917E-03 -3.46463622E-01  7.21896664E-03  5.64085424E-02
  3.12395571E-03 -1.47262128E-02  1.33498837E-02  1.16533530E-02  3.44512178E-04
 -4.65434566E-02  9.13826880E-02 -5.61354163E-02 -1.88929253E-02 -2.28246974E-02
  3.61321542E-02  1.13483575E-02 -3.01684334E-03 -1.77432362E-04  4.23543051E-02
 -1.80698665E-02  1.36221516E-04 -8.18493271E-03  1.48397518E-02  4.75005823E-04
  1.52858380E-02  1.22646701E-03  1.61987660E-02  4.08045894E-03 -1.51623018E-01
  2.84638088E-01  5.35542255E-02  1.96587403E-02 -8.17679432E-03  2.91557614E-01
  1.58354548E-02  5.65479625E-04 -1.53783011E-03  4.96716062E-02  9.68222635E-03
  1.17628178E-02 -1.11212270E-03 -8.26245692E-02  1.75282063E-01 -8.22696333E-02
 -1.64551192E-01  5.01750518E-03  1.36642960E-01 -7.18042252E-03 -5.47318368E-03
  2.80513058E-03  9.45682473E-03  1.97986092E-02 -1.39607974E-02 -3.48833021E-03
  8.92184303E-02  4.47450355E-03  8.21697716E-02  3.20024962E-03  9.07694269E-02
  3.85568045E-03  8.57755638E-03 -1.86540731E-02 -1.73733609E-01 -5.28650388E-03
 -1.67123956E-02 -2.56532593E-02 -7.53029080E-02 -7.13551164E-03 -9.41652208E-03
  4.54782072E-03  2.87083964E-02  2.20281937E-03  3.45129275E-03  4.60750423E-02
 -1.04357965E-01 -2.31497576E-02  3.20635224E-03  4.42601421E-03 -1.22215458E-01
 -1.04687308E-02  4.84604530E-03  8.87329840E-04 -2.44703404E-02  2.27499476E-03
  1.56349764E-02  7.12927768E-04  9.10969929E-02 -1.76234944E-01  2.64867511E-02
  1.42819736E-02  1.68845474E-02 -1.71708155E-01  3.05785015E-03 -4.46493656E-03
 -2.63380241E-04 -5.09906834E-02  1.74832574E-02  3.77625368E-03  6.15123443E-03
 -5.16577514E-02 -9.01490420E-04 -5.60670775E-02 -1.05650825E-02 -5.12354209E-02
 -1.33894828E-03 -1.10399162E-01  2.07976552E-01 -1.46530947E-02  8.14697874E-03
  1.09166032E-02  2.31680523E-01 -8.09018015E-03  6.92499778E-03  3.06395282E-03
  1.01961922E-01  1.79964238E-02  1.14710417E-02 -7.74082928E-03  1.46390356E-02
 -3.74309135E-02 -1.64924736E-01  2.74792866E-02  5.23480935E-02 -2.05768095E-02
 -5.46315448E-03 -7.91990782E-03  9.17626522E-03 -1.31297317E-01  1.47051993E-02
  2.25703326E-02  1.97135870E-03  6.99909022E-02  3.89445828E-03  8.05829930E-02
  6.85209972E-03  7.78821210E-02  1.16616701E-02  4.22415644E-02 -9.64156286E-02
  1.88574514E-01 -4.50161087E-02  3.54532062E-02 -1.40572791E-01  8.54354005E-02
 -2.64638996E-02  1.15456848E-02 -3.94903014E-02 -2.92364216E-02 -1.30057311E-03
 -8.17198424E-03  3.98935026E-05 -1.34818238E-03 -3.41627843E-02  7.11473722E-03
  1.52133062E-02  2.98873254E-03 -1.23861675E-02  2.01666422E-03  5.63598016E-03
  1.21493106E-02 -7.00871966E-03 -5.75760356E-03 -2.53506233E-03 -1.52540435E-01
  2.97630331E-01  2.76794777E-02 -1.00470419E-02  8.51892571E-03  3.25573314E-01
  5.95429372E-03 -2.40840576E-03  4.19116955E-03  6.13966481E-02 -1.81268563E-02