O.pdb                                                                   
FOpt      RwB97XD                                                     6-31+G              
Number of atoms                            I               11
Info1-9                                    I   N=           9
          22          22           0           0           0         100
           2          18        -802
Charge                                     I                0
Multiplicity                               I                1
Number of electrons                        I               40
Number of alpha electrons                  I               20
Number of beta electrons                   I               20
Number of basis functions                  I               77
Number of independent functions            I               77
Number of point charges in /Mol/           I                0
Number of translation vectors              I                0
Atomic numbers                             I   N=          11
           6           6           1           1           1           8
           8           6           1           1           1
Nuclear charges                            R   N=          11
  6.00000000E+00  6.00000000E+00  1.00000000E+00  1.00000000E+00  1.00000000E+00
  8.00000000E+00  8.00000000E+00  6.00000000E+00  1.00000000E+00  1.00000000E+00
  1.00000000E+00
Current cartesian coordinates              R   N=          33
  1.49417346E+00  2.49930477E+00 -7.20798711E-02  1.12654486E+00 -3.24805980E-01
 -2.75428056E-02  7.91525871E-01  3.28248649E+00 -1.85264408E+00  3.50313744E+00
  2.90689834E+00  1.18085159E-01  4.81937677E-01  3.42610372E+00  1.47745587E+00
 -1.25703645E+00 -1.20282239E+00 -6.20831774E-01  2.83462895E+00 -1.84981082E+00
  2.88621604E-01 -3.49029428E+00  1.02558371E-01  3.19337213E-01 -3.45417597E+00
  1.90162302E-01  2.38319027E+00 -5.07478783E+00 -1.04852518E+00 -3.03406916E-01
 -3.65092141E+00  2.00159704E+00 -4.83286167E-01
Force Field                                I                0
Int Atom Types                             I   N=          11
           0           0           0           0           0           0
           0           0           0           0           0
MM charges                                 R   N=          11
  0.00000000E+00  0.00000000E+00  0.00000000E+00  0.00000000E+00  0.00000000E+00
  0.00000000E+00  0.00000000E+00  0.00000000E+00  0.00000000E+00  0.00000000E+00
  0.00000000E+00
Integer atomic weights                     I   N=          11
          12          12           1           1           1          16
          16          12           1           1           1
Real atomic weights                        R   N=          11
  1.20000000E+01  1.20000000E+01  1.00782504E+00  1.00782504E+00  1.00782504E+00
  1.59949146E+01  1.59949146E+01  1.20000000E+01  1.00782504E+00  1.00782504E+00
  1.00782504E+00
Atom fragment info                         I   N=          11
           0           0           0           0           0           0
           0           0           0           0           0
Atom residue num                           I   N=          11
           0           0           0           0           0           0
           0           0           0           0           0
Nuclear spins                              I   N=          11
           0           0           1           1           1           0
           0           0           1           1           1
Nuclear ZEff                               R   N=          11
 -3.60000000E+00 -3.60000000E+00 -1.00000000E+00 -1.00000000E+00 -1.00000000E+00
 -5.60000000E+00 -5.60000000E+00 -3.60000000E+00 -1.00000000E+00 -1.00000000E+00
 -1.00000000E+00
Nuclear ZNuc                               R   N=          11
  6.00000000E+00  6.00000000E+00  1.00000000E+00  1.00000000E+00  1.00000000E+00
  8.00000000E+00  8.00000000E+00  6.00000000E+00  1.00000000E+00  1.00000000E+00
  1.00000000E+00
Nuclear QMom                               R   N=          11
  0.00000000E+00  0.00000000E+00  0.00000000E+00  0.00000000E+00  0.00000000E+00
  0.00000000E+00  0.00000000E+00  0.00000000E+00  0.00000000E+00  0.00000000E+00
  0.00000000E+00
Nuclear GFac                               R   N=          11
  0.00000000E+00  0.00000000E+00  2.79284600E+00  2.79284600E+00  2.79284600E+00
  0.00000000E+00  0.00000000E+00  0.00000000E+00  2.79284600E+00  2.79284600E+00
  2.79284600E+00
MicOpt                                     I   N=          11
          -1          -1          -1          -1          -1          -1
          -1          -1          -1          -1          -1
Number of contracted shells                I               32
Number of primitive shells                 I               79
Pure/Cartesian d shells                    I                1
Pure/Cartesian f shells                    I                0
Highest angular momentum                   I                1
Largest degree of contraction              I                6
Shell types                                I   N=          32
           0          -1          -1          -1           0          -1
          -1          -1           0           0           0           0
           0           0           0          -1          -1          -1
           0          -1          -1          -1           0          -1
          -1          -1           0           0           0           0
           0           0
Number of primitives per shell             I   N=          32
           6           3           1           1           6           3
           1           1           3           1           3           1
           3           1           6           3           1           1
           6           3           1           1           6           3
           1           1           3           1           3           1
           3           1
Shell to atom map                          I   N=          32
           1           1           1           1           2           2
           2           2           3           3           4           4
           5           5           6           6           6           6
           7           7           7           7           8           8
           8           8           9           9          10          10
          11          11
Primitive exponents                        R   N=          79
  3.04752488E+03  4.57369518E+02  1.03948685E+02  2.92101553E+01  9.28666296E+00
  3.16392696E+00  7.86827235E+00  1.88128854E+00  5.44249258E-01  1.68714478E-01
  4.38000000E-02  3.04752488E+03  4.57369518E+02  1.03948685E+02  2.92101553E+01
  9.28666296E+00  3.16392696E+00  7.86827235E+00  1.88128854E+00  5.44249258E-01
  1.68714478E-01  4.38000000E-02  1.87311370E+01  2.82539436E+00  6.40121692E-01
  1.61277759E-01  1.87311370E+01  2.82539436E+00  6.40121692E-01  1.61277759E-01
  1.87311370E+01  2.82539436E+00  6.40121692E-01  1.61277759E-01  5.48467166E+03
  8.25234946E+02  1.88046958E+02  5.29645000E+01  1.68975704E+01  5.79963534E+00
  1.55396162E+01  3.59993359E+00  1.01376175E+00  2.70005823E-01  8.45000000E-02
  5.48467166E+03  8.25234946E+02  1.88046958E+02  5.29645000E+01  1.68975704E+01
  5.79963534E+00  1.55396162E+01  3.59993359E+00  1.01376175E+00  2.70005823E-01
  8.45000000E-02  3.04752488E+03  4.57369518E+02  1.03948685E+02  2.92101553E+01
  9.28666296E+00  3.16392696E+00  7.86827235E+00  1.88128854E+00  5.44249258E-01
  1.68714478E-01  4.38000000E-02  1.87311370E+01  2.82539436E+00  6.40121692E-01
  1.61277759E-01  1.87311370E+01  2.82539436E+00  6.40121692E-01  1.61277759E-01
  1.87311370E+01  2.82539436E+00  6.40121692E-01  1.61277759E-01
Contraction coefficients                   R   N=          79
  1.83473713E-03  1.40373228E-02  6.88426223E-02  2.32184443E-01  4.67941348E-01
  3.62311985E-01 -1.19332420E-01 -1.60854152E-01  1.14345644E+00  1.00000000E+00
  1.00000000E+00  1.83473713E-03  1.40373228E-02  6.88426223E-02  2.32184443E-01
  4.67941348E-01  3.62311985E-01 -1.19332420E-01 -1.60854152E-01  1.14345644E+00
  1.00000000E+00  1.00000000E+00  3.34946043E-02  2.34726953E-01  8.13757326E-01
  1.00000000E+00  3.34946043E-02  2.34726953E-01  8.13757326E-01  1.00000000E+00
  3.34946043E-02  2.34726953E-01  8.13757326E-01  1.00000000E+00  1.83107443E-03
  1.39501722E-02  6.84450781E-02  2.32714336E-01  4.70192898E-01  3.58520853E-01
 -1.10777550E-01 -1.48026263E-01  1.13076702E+00  1.00000000E+00  1.00000000E+00
  1.83107443E-03  1.39501722E-02  6.84450781E-02  2.32714336E-01  4.70192898E-01
  3.58520853E-01 -1.10777550E-01 -1.48026263E-01  1.13076702E+00  1.00000000E+00
  1.00000000E+00  1.83473713E-03  1.40373228E-02  6.88426223E-02  2.32184443E-01
  4.67941348E-01  3.62311985E-01 -1.19332420E-01 -1.60854152E-01  1.14345644E+00
  1.00000000E+00  1.00000000E+00  3.34946043E-02  2.34726953E-01  8.13757326E-01
  1.00000000E+00  3.34946043E-02  2.34726953E-01  8.13757326E-01  1.00000000E+00
  3.34946043E-02  2.34726953E-01  8.13757326E-01  1.00000000E+00
P(S=P) Contraction coefficients            R   N=          79
  0.00000000E+00  0.00000000E+00  0.00000000E+00  0.00000000E+00  0.00000000E+00
  0.00000000E+00  6.89990666E-02  3.16423961E-01  7.44308291E-01  1.00000000E+00
  1.00000000E+00  0.00000000E+00  0.00000000E+00  0.00000000E+00  0.00000000E+00
  0.00000000E+00  0.00000000E+00  6.89990666E-02  3.16423961E-01  7.44308291E-01
  1.00000000E+00  1.00000000E+00  0.00000000E+00  0.00000000E+00  0.00000000E+00
  0.00000000E+00  0.00000000E+00  0.00000000E+00  0.00000000E+00  0.00000000E+00
  0.00000000E+00  0.00000000E+00  0.00000000E+00  0.00000000E+00  0.00000000E+00
  0.00000000E+00  0.00000000E+00  0.00000000E+00  0.00000000E+00  0.00000000E+00
  7.08742682E-02  3.39752839E-01  7.27158577E-01  1.00000000E+00  1.00000000E+00
  0.00000000E+00  0.00000000E+00  0.00000000E+00  0.00000000E+00  0.00000000E+00
  0.00000000E+00  7.08742682E-02  3.39752839E-01  7.27158577E-01  1.00000000E+00
  1.00000000E+00  0.00000000E+00  0.00000000E+00  0.00000000E+00  0.00000000E+00
  0.00000000E+00  0.00000000E+00  6.89990666E-02  3.16423961E-01  7.44308291E-01
  1.00000000E+00  1.00000000E+00  0.00000000E+00  0.00000000E+00  0.00000000E+00
  0.00000000E+00  0.00000000E+00  0.00000000E+00  0.00000000E+00  0.00000000E+00
  0.00000000E+00  0.00000000E+00  0.00000000E+00  0.00000000E+00
Coordinates of each shell                  R   N=          96
  1.49417346E+00  2.49930477E+00 -7.20798711E-02  1.49417346E+00  2.49930477E+00
 -7.20798711E-02  1.49417346E+00  2.49930477E+00 -7.20798711E-02  1.49417346E+00
  2.49930477E+00 -7.20798711E-02  1.12654486E+00 -3.24805980E-01 -2.75428056E-02
  1.12654486E+00 -3.24805980E-01 -2.75428056E-02  1.12654486E+00 -3.24805980E-01
 -2.75428056E-02  1.12654486E+00 -3.24805980E-01 -2.75428056E-02  7.91525871E-01
  3.28248649E+00 -1.85264408E+00  7.91525871E-01  3.28248649E+00 -1.85264408E+00
  3.50313744E+00  2.90689834E+00  1.18085159E-01  3.50313744E+00  2.90689834E+00
  1.18085159E-01  4.81937677E-01  3.42610372E+00  1.47745587E+00  4.81937677E-01
  3.42610372E+00  1.47745587E+00 -1.25703645E+00 -1.20282239E+00 -6.20831774E-01
 -1.25703645E+00 -1.20282239E+00 -6.20831774E-01 -1.25703645E+00 -1.20282239E+00
 -6.20831774E-01 -1.25703645E+00 -1.20282239E+00 -6.20831774E-01  2.83462895E+00
 -1.84981082E+00  2.88621604E-01  2.83462895E+00 -1.84981082E+00  2.88621604E-01
  2.83462895E+00 -1.84981082E+00  2.88621604E-01  2.83462895E+00 -1.84981082E+00
  2.88621604E-01 -3.49029428E+00  1.02558371E-01  3.19337213E-01 -3.49029428E+00
  1.02558371E-01  3.19337213E-01 -3.49029428E+00  1.02558371E-01  3.19337213E-01
 -3.49029428E+00  1.02558371E-01  3.19337213E-01 -3.45417597E+00  1.90162302E-01
  2.38319027E+00 -3.45417597E+00  1.90162302E-01  2.38319027E+00 -5.07478783E+00
 -1.04852518E+00 -3.03406916E-01 -5.07478783E+00 -1.04852518E+00 -3.03406916E-01
 -3.65092141E+00  2.00159704E+00 -4.83286167E-01 -3.65092141E+00  2.00159704E+00
 -4.83286167E-01
Constraint Structure                       R   N=          33
  1.49417346E+00  2.49930477E+00 -7.20798711E-02  1.12654486E+00 -3.24805980E-01
 -2.75428056E-02  7.91525871E-01  3.28248649E+00 -1.85264408E+00  3.50313744E+00
  2.90689834E+00  1.18085159E-01  4.81937677E-01  3.42610372E+00  1.47745587E+00
 -1.25703645E+00 -1.20282239E+00 -6.20831774E-01  2.83462895E+00 -1.84981082E+00
  2.88621604E-01 -3.49029428E+00  1.02558371E-01  3.19337213E-01 -3.45417597E+00
  1.90162302E-01  2.38319027E+00 -5.07478783E+00 -1.04852518E+00 -3.03406916E-01
 -3.65092141E+00  2.00159704E+00 -4.83286167E-01
Num ILSW                                   I              100
ILSW                                       I   N=         100
           0           1           0           0           2           0
           0           0           0           0        4639          -1
           0           0           0           0           2           0
           0           0           0           0           1           0
           1           0           0           0           0           0
           0           0      100000           0          -1           0
           0           0           0           0           0           0
           0           0           0           1           0           0
           0           0           1           0           0           0
           0           0         121          41           0           0
           0           0          58           0           0           0
           0           0           0          11           0           0
           0           0           0           0           0           0
           0           0           0           0           0           0
           0           0           0           0           0           0
           0           0           0           0           0           0
           0           0           0           0
Num RLSW                                   I               41
RLSW                                       R   N=          41
  1.00000000E+00  1.00000000E+00  1.00000000E+00  1.00000000E+00  1.00000000E+00
  0.00000000E+00  2.00000000E-01  2.22036000E-01  0.00000000E+00  7.77964000E-01
  0.00000000E+00  2.00000000E-01  0.00000000E+00  0.00000000E+00  1.00000000E+00
  0.00000000E+00  0.00000000E+00  1.00000000E+00  0.00000000E+00  0.00000000E+00
  0.00000000E+00  0.00000000E+00  1.00000000E+00  0.00000000E+00  0.00000000E+00
  0.00000000E+00  0.00000000E+00  1.00000000E+00  0.00000000E+00  0.00000000E+00
  0.00000000E+00  0.00000000E+00  1.00000000E+00  0.00000000E+00  0.00000000E+00
  0.00000000E+00  0.00000000E+00  0.00000000E+00  1.00000000E+00  1.00000000E+00
  0.00000000E+00
MxBond                                     I                4
NBond                                      I   N=          11
           4           3           1           1           1           2
           1           4           1           1           1
IBond                                      I   N=          44
           2           3           4           5           1           6
           7           0           1           0           0           0
           1           0           0           0           1           0
           0           0           2           8           0           0
           2           0           0           0           6           9
          10          11           8           0           0           0
           8           0           0           0           8           0
           0           0
RBond                                      R   N=          44
  1.00000000E+00  1.00000000E+00  1.00000000E+00  1.00000000E+00  1.00000000E+00
  1.50000000E+00  2.00000000E+00  0.00000000E+00  1.00000000E+00  0.00000000E+00
  0.00000000E+00  0.00000000E+00  1.00000000E+00  0.00000000E+00  0.00000000E+00
  0.00000000E+00  1.00000000E+00  0.00000000E+00  0.00000000E+00  0.00000000E+00
  1.50000000E+00  1.00000000E+00  0.00000000E+00  0.00000000E+00  2.00000000E+00
  0.00000000E+00  0.00000000E+00  0.00000000E+00  1.00000000E+00  1.00000000E+00
  1.00000000E+00  1.00000000E+00  1.00000000E+00  0.00000000E+00  0.00000000E+00
  0.00000000E+00  1.00000000E+00  0.00000000E+00  0.00000000E+00  0.00000000E+00
  1.00000000E+00  0.00000000E+00  0.00000000E+00  0.00000000E+00
Virial Ratio                               R      2.005726927612344E+00
SCF Energy                                 R     -2.682051073366226E+02
Total Energy                               R     -2.682051073366226E+02
RMS Force                                  R      2.191684204636667E-03
RMS Density                                R      3.520748794505859E-09
External E-field                           R   N=          35
  0.00000000E+00  0.00000000E+00  0.00000000E+00  0.00000000E+00  0.00000000E+00
  0.00000000E+00  0.00000000E+00  0.00000000E+00  0.00000000E+00  0.00000000E+00
  0.00000000E+00  0.00000000E+00  0.00000000E+00  0.00000000E+00  0.00000000E+00
  0.00000000E+00  0.00000000E+00  0.00000000E+00  0.00000000E+00  0.00000000E+00
  0.00000000E+00  0.00000000E+00  0.00000000E+00  0.00000000E+00  0.00000000E+00
  0.00000000E+00  0.00000000E+00  0.00000000E+00  0.00000000E+00  0.00000000E+00
  0.00000000E+00  0.00000000E+00  0.00000000E+00  0.00000000E+00  0.00000000E+00
IOpCl                                      I                0
IROHF                                      I                0
Alpha Orbital Energies                     R   N=          77
 -1.93181319E+01 -1.92762937E+01 -1.04524879E+01 -1.03697179E+01 -1.03211782E+01
 -1.21677646E+00 -1.14003371E+00 -8.72111768E-01 -8.36801894E-01 -6.71001412E-01
 -6.04342586E-01 -5.89883108E-01 -5.75726643E-01 -5.37875088E-01 -5.18122547E-01
 -5.08192683E-01 -4.76923828E-01 -4.28437452E-01 -3.86522185E-01 -3.63843862E-01
  5.05523884E-02  6.36817754E-02  7.67290096E-02  9.17211734E-02  9.51755392E-02
  1.19823051E-01  1.25503981E-01  1.29027278E-01  1.43999955E-01  1.48252098E-01
  1.66852329E-01  1.71096997E-01  1.93446199E-01  2.11570737E-01  2.35322925E-01
  2.65253206E-01  2.71167552E-01  2.93760923E-01  2.98376242E-01  3.14069116E-01
  3.36686674E-01  3.49477007E-01  3.65068019E-01  3.71264625E-01  3.91238167E-01
  3.96418672E-01  4.14072786E-01  4.33444853E-01  4.46140153E-01  4.56500533E-01
  5.62897049E-01  6.73959660E-01  7.25266478E-01  7.38126214E-01  7.41334650E-01
  7.83671675E-01  8.06795456E-01  8.52814565E-01  9.33598493E-01  9.49601103E-01
  1.07753888E+00  1.09012992E+00  1.11244043E+00  1.15937520E+00  1.16362007E+00
  1.21435070E+00  1.24669930E+00  1.27757466E+00  1.33991177E+00  1.37420612E+00
  1.40209415E+00  1.44394696E+00  1.46256499E+00  1.50440571E+00  1.65264973E+00
  1.91482655E+00  2.02135385E+00
Alpha MO coefficients                      R   N=        5929
 -3.53515947E-06 -2.60500523E-04  5.68733099E-05  1.37051939E-04  1.52759000E-05
  5.59403634E-04  1.75933760E-03  2.74419112E-05  3.06145844E-04  1.60664979E-02
 -1.83297585E-03 -3.84325495E-03 -5.62983662E-05  8.27375252E-05  3.29187502E-04
 -3.99593889E-04 -7.85149513E-05 -5.16551740E-05  1.93436636E-03 -5.27543428E-03
 -4.32670520E-04 -1.02707402E-03 -1.99639733E-02  2.58285333E-03 -5.08755661E-03
  4.59900426E-04  1.29176305E-04 -3.72141607E-04 -1.81319879E-04 -8.61469221E-04
  1.98080982E-04 -5.78601484E-04  9.95231767E-01  2.97957667E-02  3.09070458E-04
  1.61770971E-03  9.58217637E-04 -2.13392606E-02 -1.16524745E-03 -3.06706003E-03
 -1.73441685E-03  1.02076312E-02  3.82638442E-04  1.45247751E-03  3.28920466E-04
 -4.92004300E-04 -3.17401335E-04  5.06398466E-05 -9.17415209E-05  7.73285781E-06
  1.44208474E-03  2.02055012E-04  1.00042431E-03  2.28242836E-05  1.34104807E-03
 -3.06323718E-04  7.80236986E-04  8.33294754E-05 -1.17911386E-05 -2.67158280E-05
  6.39679650E-04 -2.51933298E-04 -1.71486076E-04  3.57830900E-03  9.50238448E-04
 -5.97548324E-04 -4.94398518E-04 -6.42808092E-05 -7.69630330E-04  1.04062271E-04
  5.16365298E-04 -2.96844252E-04 -7.91618849E-04 -2.19171467E-04 -1.10650165E-03
 -3.37907498E-04 -8.90326140E-04 -1.95166831E-05 -3.43114770E-04 -3.10076341E-05
  1.16314879E-04 -3.34772356E-05  2.86573443E-03 -2.24321519E-03 -8.75380943E-04
 -7.77984333E-05  1.01393947E-02  7.49196060E-04 -2.69942896E-03  2.37028562E-04
  2.28312285E-04  2.48307054E-04 -1.58392882E-05  1.80588711E-04  3.79649051E-05
  8.28155662E-03  6.07754135E-03 -7.65325352E-03  9.40029466E-04 -1.25831201E-02
 -3.40560718E-03 -2.27889402E-03 -5.59205981E-04 -1.33642109E-04 -2.84679521E-04
  1.41692136E-04  2.58337233E-04 -8.71852415E-05 -6.55038835E-04  4.85090883E-04
 -2.06781596E-04 -1.07657958E-04 -9.74158052E-05 -3.29943811E-05  2.45784485E-04
 -3.88445541E-04  1.12437831E-03 -8.59887109E-05 -1.78081023E-03 -2.05577847E-03
  3.50302065E-04 -5.49584952E-04  9.95235568E-01  2.98379479E-02 -1.70833298E-03
  1.51120715E-03 -3.26589613E-04 -2.36977509E-02  4.51770820E-03 -3.70128333E-03
  8.77598221E-04  7.83249213E-03 -6.10466551E-04  5.28509017E-04 -8.60810874E-05
 -3.97103000E-05 -4.29143629E-04 -1.47785943E-04 -9.06063786E-06  3.45616308E-05
  7.85719403E-04  7.70874485E-04  4.75488550E-04  4.39111751E-04 -8.06577710E-04
 -1.62658235E-04  1.61246000E-04  3.72144930E-04 -1.09868634E-04 -3.09489766E-04
  8.46609539E-05  2.57752766E-06 -2.72419400E-05 -5.53404841E-04  7.19665378E-04
 -8.00562464E-04 -1.41787728E-04  2.85026258E-04 -6.68106405E-06  6.79529352E-03
  7.92827622E-04 -2.64867661E-03 -1.10221203E-05  9.90067976E-03 -9.67540879E-04
 -1.52643200E-03  1.35281511E-04  9.95557856E-01  3.68921358E-02 -9.06684104E-05
 -1.18470326E-03 -1.57029354E-04 -3.44893170E-02  3.60940519E-04 -7.75660481E-04
  5.12184307E-04 -1.89222900E-02  3.36366771E-03 -3.73553819E-03  3.13125227E-04
 -1.31885953E-04 -6.30470429E-04 -1.45839985E-04 -1.81898063E-03 -1.51416412E-04
 -2.96001622E-04  4.28607645E-05  4.21990325E-04 -1.60050253E-04 -9.53753316E-05
 -7.01194079E-05 -9.90436132E-05 -5.89152114E-04  1.18932282E-04 -3.71450679E-07
  1.14983399E-02  5.28816981E-03  4.22613225E-03  1.28682388E-03 -1.48846336E-04
 -1.64406351E-05  3.74883642E-04 -3.39342673E-04  7.83248218E-05  5.95186405E-04
  3.63302736E-04  1.95200253E-05 -2.93016448E-06  8.89177702E-03 -3.63297860E-03
  3.92325542E-03 -6.54288920E-04 -4.72742017E-05 -1.84319274E-04 -7.47363499E-05
 -9.57468285E-06 -6.56337284E-05 -7.03341642E-04  3.55201519E-05  7.85869740E-04
  9.04056248E-04  4.81379996E-03  1.37036709E-03 -9.28728993E-04 -4.51379016E-04
 -1.59795872E-04 -1.09023397E-03  6.46440490E-05  1.03789011E-03  6.61880662E-05
 -1.45735110E-03 -1.69661330E-04 -1.86317950E-04  2.04993649E-04  1.18904607E-04
 -1.07302986E-05 -9.24821323E-04  4.41037584E-04  5.34508893E-04 -7.03350068E-05
  1.36680332E-02 -5.65622415E-04 -2.91758574E-03  4.23027807E-04  2.88129053E-06
 -2.08557524E-04  8.98886061E-05 -4.56957579E-05  2.11802153E-05 -2.62936852E-03
 -2.15695464E-03  2.47426913E-03 -4.03588508E-04 -8.69094862E-03 -2.19083782E-03
 -6.12283021E-03 -9.30087143E-04  1.21094779E-04 -8.69294968E-04  7.24444031E-06
 -4.23933969E-04 -1.26848913E-04  2.62442885E-04  5.01965358E-05  4.25584219E-04
  4.12281152E-05  2.90494703E-05 -8.87232564E-05  7.76536092E-04 -2.11862275E-04
 -2.67146102E-04  4.98765672E-04  1.36185502E-02 -7.43817372E-03  4.76794136E-03
  2.41777851E-03 -2.51854704E-05 -3.40082522E-04  3.58425817E-05 -5.64488892E-06
  5.53163617E-05  2.33535507E-03 -9.51135544E-04  5.16502213E-04 -3.87885066E-04
  3.78560384E-03 -1.12381799E-03  1.32718255E-03 -3.71761376E-04  9.95539700E-01
  3.71962595E-02  1.04099147E-03 -4.48645988E-04 -3.85792853E-04 -3.57244607E-02
 -2.94000114E-03  1.34881541E-03  9.91940095E-04 -1.17182923E-02 -3.72041115E-03
  1.32695364E-03  1.12247694E-03 -5.75362176E-04  6.07010732E-03 -4.85285769E-04
  5.14710593E-03 -5.46832890E-04  5.70700414E-03  9.95478869E-01  3.75883072E-02
 -2.88478064E-04 -1.98196439E-04  1.19149759E-05 -3.91484222E-02  9.45347745E-04
  3.56871369E-03 -1.29999627E-05 -1.17520500E-02  2.04744179E-04  2.39484839E-03
  3.90806334E-05 -7.13669917E-04 -8.77870483E-04 -1.30524344E-04 -7.08127755E-04
  3.92410501E-05  6.78122318E-03  1.64521210E-03  8.67092989E-03 -5.76642911E-05
  9.37982327E-03  8.28948827E-04  2.68265360E-03 -4.41739916E-05 -5.25113589E-04
  7.92672352E-03 -4.88162764E-04  7.06508821E-03 -5.16351343E-04  7.84430178E-03
 -7.18967783E-06 -2.78157215E-04 -1.70976827E-04 -9.62373010E-05 -3.57333552E-05
  4.91869262E-04  1.16894406E-03 -2.68983431E-04  1.95056050E-04  2.77471244E-03
  1.40181481E-04  4.05871510E-04  4.44542432E-04 -9.03895969E-06 -2.60615752E-04
  1.01304608E-04 -6.59143760E-05  1.20638503E-05  8.24561625E-04 -1.00658485E-03
 -3.35441797E-04 -1.39457297E-04  1.95159565E-03 -1.12016632E-03  6.02747353E-04
 -1.42583988E-04  1.51478171E-04 -2.77256029E-04 -1.90514023E-04 -1.88745718E-04
 -3.32505189E-05  2.31196025E-04  7.96995462E-04  4.19271387E-04 -2.75733002E-05
 -1.47840632E-03 -9.70427273E-04 -1.46574009E-04  2.20429885E-04 -8.49340172E-06
 -2.99810936E-04  2.78878319E-05  3.89821179E-04 -3.46901885E-04  8.05323529E-04
 -1.86892035E-02  3.53446183E-02 -4.11831340E-03 -2.62268132E-02 -6.53211403E-05
  2.91213278E-03 -4.35511596E-03  5.53623620E-03 -1.19342346E-03 -1.57774111E-01
  4.06690652E-03  3.82775136E-02 -3.41293502E-03 -1.21302434E-01  2.48940284E-01
  4.56829153E-03 -1.02077402E-01 -2.67991586E-03  4.04722967E-02 -3.17144850E-03
  5.01384857E-02  1.46943632E-03  1.70644510E-01  1.02957598E-02  5.82718510E-02
  4.05038404E-03  5.68174855E-03 -7.93006695E-04  5.85458464E-03  4.56393671E-03
  4.93841076E-03  7.17379024E-04 -1.45892010E-01  3.12863504E-01  4.67392224E-02
  6.52042408E-02  4.64793065E-02  3.46312153E-01  2.30780475E-02  4.45797288E-02
  3.21510745E-02 -3.94291452E-02  4.62097093E-03 -2.32454333E-02 -5.65324195E-03
 -1.18894783E-01  2.60510360E-01 -9.61323842E-02  7.66280302E-02 -1.82314241E-02
  2.52149907E-01 -3.89782187E-02  2.83479627E-02 -7.36580871E-03 -1.61450986E-02
 -2.20502470E-03 -1.01596119E-02 -2.06014388E-03 -3.92065324E-02  7.57871092E-02
  4.82997472E-02 -2.28720464E-02 -1.65026099E-02  2.41373624E-02 -9.73375986E-03
  1.88984961E-03  5.75710264E-05  1.43119008E-02  1.04409919E-02 -1.94776182E-03
 -4.47361214E-03  1.28991095E-02  3.92368000E-03  1.06950929E-02  1.30142911E-03
  1.25833518E-02  3.59484542E-03  3.51140941E-03 -8.45269427E-03 -1.18281639E-02
  7.83097199E-03 -2.44064571E-03  1.65531444E-02 -2.74512400E-02 -7.59917816E-03
 -2.50363081E-03 -7.28787330E-02  1.29230131E-02  1.52527494E-02 -3.46994230E-04
  4.30856139E-02 -9.31597692E-02 -2.07862345E-01  8.69110999E-02 -3.92494334E-02
 -3.83907110E-03  7.53874303E-02 -4.68096705E-02  1.37545410E-02  8.41388993E-02
 -2.00768222E-02  3.40176080E-02  9.60089895E-04 -2.48801813E-04  7.94415589E-05
 -3.51403047E-03  8.31251467E-03 -6.92553934E-04 -1.71105899E-03 -1.38958203E-01
  3.00010185E-01 -1.26235052E-02  7.32176530E-02  4.06266797E-02  3.50306013E-01
 -2.25858580E-04  5.62784546E-02  2.78387190E-02 -1.05123181E-02  5.92998202E-03
 -4.48275387E-03 -3.46064712E-03  1.52043128E-01 -3.33856328E-01  9.46856343E-02
 -9.78590318E-02  1.72873613E-02 -3.48774546E-01  4.07668046E-02 -4.29507707E-02
  8.20929987E-03 -3.21205831E-02  1.31858835E-02 -1.87420722E-02 -2.22687856E-04
 -5.25556081E-02  9.64241119E-02  5.71955700E-02 -2.98087704E-02 -2.21178598E-02
  5.41727380E-02  3.66654209E-03  1.06997932E-02  7.96088813E-03  1.71016955E-03
  4.37666956E-03 -1.48630376E-03 -1.67541478E-03  1.66519798E-02 -6.07709693E-03
  1.75751758E-02  7.51032643E-03  1.69162200E-02 -5.79393412E-03 -1.75747021E-01
  3.28998183E-01 -1.51434691E-02 -4.36610343E-02 -1.11072268E-03  3.44919278E-01
 -9.97402709E-03 -7.56038283E-03 -1.23332055E-03  1.26418504E-01 -1.95033404E-03
 -3.20308027E-02  1.34614307E-03 -7.38333303E-02  1.55774303E-01 -4.48190372E-02
  1.79494626E-01 -1.91249377E-02  1.10010414E-01 -6.59839094E-03  2.40595750E-02
 -1.46439962E-03 -8.24193831E-02 -2.57661698E-02 -2.66657558E-02 -3.38954068E-03
  1.08185877E-01  2.54159237E-03  1.01649420E-01  4.47772988E-03  1.07574831E-01
  4.08309942E-03  2.34547624E-02 -5.33738319E-02  9.93696593E-02  2.42217295E-02
 -1.32447226E-02 -6.68692361E-02  4.56270023E-02  5.64045392E-03 -8.07789589E-03
  3.48016605E-03 -1.93791696E-02  2.69899817E-03  1.91703912E-03  4.94833077E-02
 -1.14522854E-01  2.09385448E-02  1.52332941E-02  1.10636897E-03 -1.20414207E-01
  4.61726748E-03  5.69146210E-03 -5.19165845E-04 -3.01334754E-04  6.90748570E-03
 -4.82657117E-03  3.90210677E-04  5.56179607E-02 -1.10672340E-01 -7.66034720E-03
  2.77367257E-02  1.07749595E-02 -1.00517463E-01  7.13701539E-03  6.06195683E-03
  1.18723729E-03 -3.76421005E-02 -1.16334633E-02  4.68823437E-03  4.97476586E-03
 -3.09151100E-02 -4.10352847E-03 -3.95686813E-02 -4.49155915E-03 -2.51294687E-02
 -2.82672175E-03 -6.36957162E-02  1.16893729E-01  6.72521434E-03  9.00195997E-03
  7.30652759E-03  1.42384401E-01 -7.26555884E-04 -3.94759591E-03  2.48308757E-03
  5.79942801E-02 -6.23113489E-03 -1.50452475E-02 -2.32830240E-03  2.95793053E-02
 -6.87884184E-02  1.39547793E-01  9.26572456E-02  4.58828440E-02 -5.97619978E-02
 -6.59401228E-03  7.22393007E-03  4.25566532E-03 -1.03071376E-01  1.75096664E-02
 -8.52374863E-03  5.57200043E-03  4.13105975E-02  2.52696400E-03  4.54802284E-02
  7.59094676E-03  4.78760446E-02  5.56656304E-03  4.61804440E-02 -1.05247280E-01
 -2.29481006E-01  2.72825524E-02  1.76326071E-02 -1.49174212E-01 -9.96926035E-02
  3.35545260E-03  2.72725387E-03 -3.83807234E-02  3.35957905E-02 -8.81857416E-03
 -6.52293391E-03 -2.29070943E-02  5.10573537E-02  2.88071881E-02  2.84611677E-02
  1.07972316E-02  6.93898474E-02  7.74348506E-03  1.80497274E-02  3.57480636E-03
  1.54759885E-02  7.49104700E-05  4.56571991E-03  2.13629741E-06 -1.68615804E-01
  3.28171203E-01 -2.06762200E-02  2.74241646E-03  3.24239837E-04  3.56682026E-01
  6.97925360E-04  9.22839510E-03  3.73536141E-03  7.24874973E-02  2.14170952E-02