N.pdb                                                                   
Scan      RwB97XD                                                     6-31+G              
Number of atoms                            I               13
Info1-9                                    I   N=           9
          24          24           0           0           0         110
           8          18        -802
Charge                                     I                0
Multiplicity                               I                1
Number of electrons                        I               64
Number of alpha electrons                  I               32
Number of beta electrons                   I               32
Number of basis functions                  I              114
Number of independent functions            I              114
Number of point charges in /Mol/           I                0
Number of translation vectors              I                0
Atomic numbers                             I   N=          13
           6           6           1           1           1           6
           8           6           1           1           9           9
           9
Nuclear charges                            R   N=          13
  6.00000000E+00  6.00000000E+00  1.00000000E+00  1.00000000E+00  1.00000000E+00
  6.00000000E+00  8.00000000E+00  6.00000000E+00  1.00000000E+00  1.00000000E+00
  9.00000000E+00  9.00000000E+00  9.00000000E+00
Current cartesian coordinates              R   N=          39
  3.53540808E+00  2.31343438E+00  2.77720942E-02  2.84680834E+00 -4.27791230E-01
  2.77443265E-01  2.47220372E+00  3.17622610E+00 -1.52705563E+00  5.55031014E+00
  2.48201109E+00 -3.70901197E-01  3.05672753E+00  3.36358997E+00  1.74369959E+00
  2.83406171E-01 -1.11084148E+00  1.42663318E+00  4.30461188E+00 -2.14599982E+00
 -3.18255265E-01 -1.95561967E+00 -8.06314229E-02  1.64898093E-02  1.75391172E-01
 -4.09499817E-01  3.37040834E+00  1.28038110E-01 -3.16815007E+00  1.45307161E+00
 -2.18514871E+00  2.53806808E+00  2.43705800E-01 -4.20334056E+00 -1.10126332E+00
  9.11360608E-01 -1.84257553E+00 -5.96938110E-01 -2.55653426E+00
Force Field                                I                0
Int Atom Types                             I   N=          13
           0           0           0           0           0           0
           0           0           0           0           0           0
           0
MM charges                                 R   N=          13
  0.00000000E+00  0.00000000E+00  0.00000000E+00  0.00000000E+00  0.00000000E+00
  0.00000000E+00  0.00000000E+00  0.00000000E+00  0.00000000E+00  0.00000000E+00
  0.00000000E+00  0.00000000E+00  0.00000000E+00
Integer atomic weights                     I   N=          13
          12          12           1           1           1          12
          16          12           1           1          19          19
          19
Real atomic weights                        R   N=          13
  1.20000000E+01  1.20000000E+01  1.00782504E+00  1.00782504E+00  1.00782504E+00
  1.20000000E+01  1.59949146E+01  1.20000000E+01  1.00782504E+00  1.00782504E+00
  1.89984032E+01  1.89984032E+01  1.89984032E+01
Atom fragment info                         I   N=          13
           0           0           0           0           0           0
           0           0           0           0           0           0
           0
Atom residue num                           I   N=          13
           0           0           0           0           0           0
           0           0           0           0           0           0
           0
Nuclear spins                              I   N=          13
           0           0           1           1           1           0
           0           0           1           1           1           1
           1
Nuclear ZEff                               R   N=          13
 -3.60000000E+00 -3.60000000E+00 -1.00000000E+00 -1.00000000E+00 -1.00000000E+00
 -3.60000000E+00 -5.60000000E+00 -3.60000000E+00 -1.00000000E+00 -1.00000000E+00
 -6.75000000E+00 -6.75000000E+00 -6.75000000E+00
Nuclear ZNuc                               R   N=          13
  6.00000000E+00  6.00000000E+00  1.00000000E+00  1.00000000E+00  1.00000000E+00
  6.00000000E+00  8.00000000E+00  6.00000000E+00  1.00000000E+00  1.00000000E+00
  9.00000000E+00  9.00000000E+00  9.00000000E+00
Nuclear QMom                               R   N=          13
  0.00000000E+00  0.00000000E+00  0.00000000E+00  0.00000000E+00  0.00000000E+00
  0.00000000E+00  0.00000000E+00  0.00000000E+00  0.00000000E+00  0.00000000E+00
  0.00000000E+00  0.00000000E+00  0.00000000E+00
Nuclear GFac                               R   N=          13
  0.00000000E+00  0.00000000E+00  2.79284600E+00  2.79284600E+00  2.79284600E+00
  0.00000000E+00  0.00000000E+00  0.00000000E+00  2.79284600E+00  2.79284600E+00
  2.62886700E+00  2.62886700E+00  2.62886700E+00
MicOpt                                     I   N=          13
          -1          -1          -1          -1          -1          -1
          -1          -1          -1          -1          -1          -1
          -1
Number of contracted shells                I               42
Number of primitive shells                 I              108
Pure/Cartesian d shells                    I                1
Pure/Cartesian f shells                    I                0
Highest angular momentum                   I                1
Largest degree of contraction              I                6
Shell types                                I   N=          42
           0          -1          -1          -1           0          -1
          -1          -1           0           0           0           0
           0           0           0          -1          -1          -1
           0          -1          -1          -1           0          -1
          -1          -1           0           0           0           0
           0          -1          -1          -1           0          -1
          -1          -1           0          -1          -1          -1
Number of primitives per shell             I   N=          42
           6           3           1           1           6           3
           1           1           3           1           3           1
           3           1           6           3           1           1
           6           3           1           1           6           3
           1           1           3           1           3           1
           6           3           1           1           6           3
           1           1           6           3           1           1
Shell to atom map                          I   N=          42
           1           1           1           1           2           2
           2           2           3           3           4           4
           5           5           6           6           6           6
           7           7           7           7           8           8
           8           8           9           9          10          10
          11          11          11          11          12          12
          12          12          13          13          13          13
Primitive exponents                        R   N=         108
  3.04752488E+03  4.57369518E+02  1.03948685E+02  2.92101553E+01  9.28666296E+00
  3.16392696E+00  7.86827235E+00  1.88128854E+00  5.44249258E-01  1.68714478E-01
  4.38000000E-02  3.04752488E+03  4.57369518E+02  1.03948685E+02  2.92101553E+01
  9.28666296E+00  3.16392696E+00  7.86827235E+00  1.88128854E+00  5.44249258E-01
  1.68714478E-01  4.38000000E-02  1.87311370E+01  2.82539436E+00  6.40121692E-01
  1.61277759E-01  1.87311370E+01  2.82539436E+00  6.40121692E-01  1.61277759E-01
  1.87311370E+01  2.82539436E+00  6.40121692E-01  1.61277759E-01  3.04752488E+03
  4.57369518E+02  1.03948685E+02  2.92101553E+01  9.28666296E+00  3.16392696E+00
  7.86827235E+00  1.88128854E+00  5.44249258E-01  1.68714478E-01  4.38000000E-02
  5.48467166E+03  8.25234946E+02  1.88046958E+02  5.29645000E+01  1.68975704E+01
  5.79963534E+00  1.55396162E+01  3.59993359E+00  1.01376175E+00  2.70005823E-01
  8.45000000E-02  3.04752488E+03  4.57369518E+02  1.03948685E+02  2.92101553E+01
  9.28666296E+00  3.16392696E+00  7.86827235E+00  1.88128854E+00  5.44249258E-01
  1.68714478E-01  4.38000000E-02  1.87311370E+01  2.82539436E+00  6.40121692E-01
  1.61277759E-01  1.87311370E+01  2.82539436E+00  6.40121692E-01  1.61277759E-01
  7.00171309E+03  1.05136609E+03  2.39285690E+02  6.73974453E+01  2.15199573E+01
  7.40310130E+00  2.08479528E+01  4.80830834E+00  1.34406986E+00  3.58151393E-01
  1.07600000E-01  7.00171309E+03  1.05136609E+03  2.39285690E+02  6.73974453E+01
  2.15199573E+01  7.40310130E+00  2.08479528E+01  4.80830834E+00  1.34406986E+00
  3.58151393E-01  1.07600000E-01  7.00171309E+03  1.05136609E+03  2.39285690E+02
  6.73974453E+01  2.15199573E+01  7.40310130E+00  2.08479528E+01  4.80830834E+00
  1.34406986E+00  3.58151393E-01  1.07600000E-01
Contraction coefficients                   R   N=         108
  1.83473713E-03  1.40373228E-02  6.88426223E-02  2.32184443E-01  4.67941348E-01
  3.62311985E-01 -1.19332420E-01 -1.60854152E-01  1.14345644E+00  1.00000000E+00
  1.00000000E+00  1.83473713E-03  1.40373228E-02  6.88426223E-02  2.32184443E-01
  4.67941348E-01  3.62311985E-01 -1.19332420E-01 -1.60854152E-01  1.14345644E+00
  1.00000000E+00  1.00000000E+00  3.34946043E-02  2.34726953E-01  8.13757326E-01
  1.00000000E+00  3.34946043E-02  2.34726953E-01  8.13757326E-01  1.00000000E+00
  3.34946043E-02  2.34726953E-01  8.13757326E-01  1.00000000E+00  1.83473713E-03
  1.40373228E-02  6.88426223E-02  2.32184443E-01  4.67941348E-01  3.62311985E-01
 -1.19332420E-01 -1.60854152E-01  1.14345644E+00  1.00000000E+00  1.00000000E+00
  1.83107443E-03  1.39501722E-02  6.84450781E-02  2.32714336E-01  4.70192898E-01
  3.58520853E-01 -1.10777550E-01 -1.48026263E-01  1.13076702E+00  1.00000000E+00
  1.00000000E+00  1.83473713E-03  1.40373228E-02  6.88426223E-02  2.32184443E-01
  4.67941348E-01  3.62311985E-01 -1.19332420E-01 -1.60854152E-01  1.14345644E+00
  1.00000000E+00  1.00000000E+00  3.34946043E-02  2.34726953E-01  8.13757326E-01
  1.00000000E+00  3.34946043E-02  2.34726953E-01  8.13757326E-01  1.00000000E+00
  1.81961690E-03  1.39160796E-02  6.84053245E-02  2.33185760E-01  4.71267439E-01
  3.56618546E-01 -1.08506975E-01 -1.46451658E-01  1.12868858E+00  1.00000000E+00
  1.00000000E+00  1.81961690E-03  1.39160796E-02  6.84053245E-02  2.33185760E-01
  4.71267439E-01  3.56618546E-01 -1.08506975E-01 -1.46451658E-01  1.12868858E+00
  1.00000000E+00  1.00000000E+00  1.81961690E-03  1.39160796E-02  6.84053245E-02
  2.33185760E-01  4.71267439E-01  3.56618546E-01 -1.08506975E-01 -1.46451658E-01
  1.12868858E+00  1.00000000E+00  1.00000000E+00
P(S=P) Contraction coefficients            R   N=         108
  0.00000000E+00  0.00000000E+00  0.00000000E+00  0.00000000E+00  0.00000000E+00
  0.00000000E+00  6.89990666E-02  3.16423961E-01  7.44308291E-01  1.00000000E+00
  1.00000000E+00  0.00000000E+00  0.00000000E+00  0.00000000E+00  0.00000000E+00
  0.00000000E+00  0.00000000E+00  6.89990666E-02  3.16423961E-01  7.44308291E-01
  1.00000000E+00  1.00000000E+00  0.00000000E+00  0.00000000E+00  0.00000000E+00
  0.00000000E+00  0.00000000E+00  0.00000000E+00  0.00000000E+00  0.00000000E+00
  0.00000000E+00  0.00000000E+00  0.00000000E+00  0.00000000E+00  0.00000000E+00
  0.00000000E+00  0.00000000E+00  0.00000000E+00  0.00000000E+00  0.00000000E+00
  6.89990666E-02  3.16423961E-01  7.44308291E-01  1.00000000E+00  1.00000000E+00
  0.00000000E+00  0.00000000E+00  0.00000000E+00  0.00000000E+00  0.00000000E+00
  0.00000000E+00  7.08742682E-02  3.39752839E-01  7.27158577E-01  1.00000000E+00
  1.00000000E+00  0.00000000E+00  0.00000000E+00  0.00000000E+00  0.00000000E+00
  0.00000000E+00  0.00000000E+00  6.89990666E-02  3.16423961E-01  7.44308291E-01
  1.00000000E+00  1.00000000E+00  0.00000000E+00  0.00000000E+00  0.00000000E+00
  0.00000000E+00  0.00000000E+00  0.00000000E+00  0.00000000E+00  0.00000000E+00
  0.00000000E+00  0.00000000E+00  0.00000000E+00  0.00000000E+00  0.00000000E+00
  0.00000000E+00  7.16287242E-02  3.45912103E-01  7.22469956E-01  1.00000000E+00
  1.00000000E+00  0.00000000E+00  0.00000000E+00  0.00000000E+00  0.00000000E+00
  0.00000000E+00  0.00000000E+00  7.16287242E-02  3.45912103E-01  7.22469956E-01
  1.00000000E+00  1.00000000E+00  0.00000000E+00  0.00000000E+00  0.00000000E+00
  0.00000000E+00  0.00000000E+00  0.00000000E+00  7.16287242E-02  3.45912103E-01
  7.22469956E-01  1.00000000E+00  1.00000000E+00
Coordinates of each shell                  R   N=         126
  3.53540808E+00  2.31343438E+00  2.77720942E-02  3.53540808E+00  2.31343438E+00
  2.77720942E-02  3.53540808E+00  2.31343438E+00  2.77720942E-02  3.53540808E+00
  2.31343438E+00  2.77720942E-02  2.84680834E+00 -4.27791230E-01  2.77443265E-01
  2.84680834E+00 -4.27791230E-01  2.77443265E-01  2.84680834E+00 -4.27791230E-01
  2.77443265E-01  2.84680834E+00 -4.27791230E-01  2.77443265E-01  2.47220372E+00
  3.17622610E+00 -1.52705563E+00  2.47220372E+00  3.17622610E+00 -1.52705563E+00
  5.55031014E+00  2.48201109E+00 -3.70901197E-01  5.55031014E+00  2.48201109E+00
 -3.70901197E-01  3.05672753E+00  3.36358997E+00  1.74369959E+00  3.05672753E+00
  3.36358997E+00  1.74369959E+00  2.83406171E-01 -1.11084148E+00  1.42663318E+00
  2.83406171E-01 -1.11084148E+00  1.42663318E+00  2.83406171E-01 -1.11084148E+00
  1.42663318E+00  2.83406171E-01 -1.11084148E+00  1.42663318E+00  4.30461188E+00
 -2.14599982E+00 -3.18255265E-01  4.30461188E+00 -2.14599982E+00 -3.18255265E-01
  4.30461188E+00 -2.14599982E+00 -3.18255265E-01  4.30461188E+00 -2.14599982E+00
 -3.18255265E-01 -1.95561967E+00 -8.06314229E-02  1.64898093E-02 -1.95561967E+00
 -8.06314229E-02  1.64898093E-02 -1.95561967E+00 -8.06314229E-02  1.64898093E-02
 -1.95561967E+00 -8.06314229E-02  1.64898093E-02  1.75391172E-01 -4.09499817E-01
  3.37040834E+00  1.75391172E-01 -4.09499817E-01  3.37040834E+00  1.28038110E-01
 -3.16815007E+00  1.45307161E+00  1.28038110E-01 -3.16815007E+00  1.45307161E+00
 -2.18514871E+00  2.53806808E+00  2.43705800E-01 -2.18514871E+00  2.53806808E+00
  2.43705800E-01 -2.18514871E+00  2.53806808E+00  2.43705800E-01 -2.18514871E+00
  2.53806808E+00  2.43705800E-01 -4.20334056E+00 -1.10126332E+00  9.11360608E-01
 -4.20334056E+00 -1.10126332E+00  9.11360608E-01 -4.20334056E+00 -1.10126332E+00
  9.11360608E-01 -4.20334056E+00 -1.10126332E+00  9.11360608E-01 -1.84257553E+00
 -5.96938110E-01 -2.55653426E+00 -1.84257553E+00 -5.96938110E-01 -2.55653426E+00
 -1.84257553E+00 -5.96938110E-01 -2.55653426E+00 -1.84257553E+00 -5.96938110E-01
 -2.55653426E+00
Constraint Structure                       R   N=          39
  3.80508037E+00  2.12699375E+00 -1.04740193E-01  2.66594904E+00 -4.32057717E-01
  4.15271640E-01  3.32776082E+00  2.72393342E+00 -2.02073377E+00  5.85718500E+00
  2.01019308E+00  1.08441445E-01  3.10247480E+00  3.51838002E+00  1.25026305E+00
  1.98670128E-01 -5.40654024E-01  1.80335840E+00  3.71120767E+00 -2.37329779E+00
 -3.24510546E-01 -1.90809093E+00  7.61226801E-03 -5.40980887E-03  2.28159136E-01
  8.22121923E-01  3.35930456E+00 -1.98677115E-02 -2.41940851E+00  2.63963078E+00
 -1.66252660E+00  2.32249850E+00 -1.05365169E+00 -4.14923296E+00 -2.35327048E-02
  1.22843406E+00 -2.04990989E+00 -1.70343282E+00 -1.88497147E+00
Num ILSW                                   I              100
ILSW                                       I   N=         100
           0           1           0           0           2           0
           0           0           0           0        4639          -1
           0           0           0           0           2           0
           0           0           0           0           1           0
           1           0           0           0           0           0
           0           0      100000           0          -1           0
           0           0           0           0           0           0
           0           0           0           1           0           0
           0           0           1           0           0           0
           0           0         121          41           0           0
           0           0          58           0           0           0
           0           0           0          13           0           0
           0           0           0           0           0           0
           0           0           0           0           0           0
           0           0           0           0           0           0
           0           0           0           0           0           0
           0           0           0           0
Num RLSW                                   I               41
RLSW                                       R   N=          41
  1.00000000E+00  1.00000000E+00  1.00000000E+00  1.00000000E+00  1.00000000E+00
  0.00000000E+00  2.00000000E-01  2.22036000E-01  0.00000000E+00  7.77964000E-01
  0.00000000E+00  2.00000000E-01  0.00000000E+00  0.00000000E+00  1.00000000E+00
  0.00000000E+00  0.00000000E+00  1.00000000E+00  0.00000000E+00  0.00000000E+00
  0.00000000E+00  0.00000000E+00  1.00000000E+00  0.00000000E+00  0.00000000E+00
  0.00000000E+00  0.00000000E+00  1.00000000E+00  0.00000000E+00  0.00000000E+00
  0.00000000E+00  0.00000000E+00  1.00000000E+00  0.00000000E+00  0.00000000E+00
  0.00000000E+00  0.00000000E+00  0.00000000E+00  1.00000000E+00  1.00000000E+00
  0.00000000E+00
MxBond                                     I                4
NBond                                      I   N=          13
           4           3           1           1           1           4
           1           4           1           1           1           1
           1
IBond                                      I   N=          52
           2           3           4           5           1           6
           7           0           1           0           0           0
           1           0           0           0           1           0
           0           0           2           8           9          10
           2           0           0           0           6          11
          12          13           6           0           0           0
           6           0           0           0           8           0
           0           0           8           0           0           0
           8           0           0           0
RBond                                      R   N=          52
  1.00000000E+00  1.00000000E+00  1.00000000E+00  1.00000000E+00  1.00000000E+00
  1.00000000E+00  2.00000000E+00  0.00000000E+00  1.00000000E+00  0.00000000E+00
  0.00000000E+00  0.00000000E+00  1.00000000E+00  0.00000000E+00  0.00000000E+00
  0.00000000E+00  1.00000000E+00  0.00000000E+00  0.00000000E+00  0.00000000E+00
  1.00000000E+00  1.00000000E+00  1.00000000E+00  1.00000000E+00  2.00000000E+00
  0.00000000E+00  0.00000000E+00  0.00000000E+00  1.00000000E+00  1.00000000E+00
  1.00000000E+00  1.00000000E+00  1.00000000E+00  0.00000000E+00  0.00000000E+00
  0.00000000E+00  1.00000000E+00  0.00000000E+00  0.00000000E+00  0.00000000E+00
  1.00000000E+00  0.00000000E+00  0.00000000E+00  0.00000000E+00  1.00000000E+00
  0.00000000E+00  0.00000000E+00  0.00000000E+00  1.00000000E+00  0.00000000E+00
  0.00000000E+00  0.00000000E+00
Virial Ratio                               R      2.005190238787673E+00
SCF Energy                                 R     -5.299271977836967E+02
Total Energy                               R     -5.299271977836967E+02
RMS Force                                  R      6.084188620841351E-04
RMS Density                                R      5.485483466965197E-09
External E-field                           R   N=          35
  0.00000000E+00  0.00000000E+00  0.00000000E+00  0.00000000E+00  0.00000000E+00
  0.00000000E+00  0.00000000E+00  0.00000000E+00  0.00000000E+00  0.00000000E+00
  0.00000000E+00  0.00000000E+00  0.00000000E+00  0.00000000E+00  0.00000000E+00
  0.00000000E+00  0.00000000E+00  0.00000000E+00  0.00000000E+00  0.00000000E+00
  0.00000000E+00  0.00000000E+00  0.00000000E+00  0.00000000E+00  0.00000000E+00
  0.00000000E+00  0.00000000E+00  0.00000000E+00  0.00000000E+00  0.00000000E+00
  0.00000000E+00  0.00000000E+00  0.00000000E+00  0.00000000E+00  0.00000000E+00
IOpCl                                      I                0
IROHF                                      I                0
Alpha Orbital Energies                     R   N=         114
 -2.48913117E+01 -2.48912911E+01 -2.48905908E+01 -1.93045910E+01 -1.05957765E+01
 -1.04388805E+01 -1.03630792E+01 -1.03216671E+01 -1.43963304E+00 -1.35496519E+00
 -1.35387349E+00 -1.19562696E+00 -9.52945041E-01 -8.73213162E-01 -8.00393193E-01
 -7.10617044E-01 -7.03067428E-01 -6.91771548E-01 -6.42501383E-01 -5.96191313E-01
 -5.84909912E-01 -5.75826084E-01 -5.68649119E-01 -5.54847828E-01 -5.42663174E-01
 -5.37136397E-01 -5.26333822E-01 -5.16683651E-01 -5.06553366E-01 -4.97023900E-01
 -4.64103155E-01 -3.70100207E-01  1.04236063E-02  5.97630467E-02  7.93069412E-02
  9.19281596E-02  1.01786762E-01  1.06745673E-01  1.11853199E-01  1.22389649E-01
  1.26019322E-01  1.32339728E-01  1.40906961E-01  1.58428498E-01  1.66021355E-01
  1.68543932E-01  1.75007631E-01  1.80941215E-01  1.82476887E-01  1.92604660E-01
  2.19661644E-01  2.22071294E-01  2.63747521E-01  2.66358101E-01  2.79452005E-01
  2.85871960E-01  3.09081132E-01  3.33414178E-01  3.40056167E-01  3.53609008E-01
  3.56817007E-01  3.76734077E-01  3.85923443E-01  3.95497207E-01  4.00921201E-01
  4.07739949E-01  4.09781180E-01  4.27939639E-01  4.37222632E-01  4.40683204E-01
  4.45424389E-01  4.48318057E-01  4.63433797E-01  4.93717357E-01  5.19625271E-01
  5.27401274E-01  5.42039831E-01  6.93518352E-01  7.33748523E-01  7.62441547E-01
  7.76797162E-01  8.04971770E-01  8.32048335E-01  8.57527514E-01  8.77432412E-01
  9.02989210E-01  9.25638899E-01  9.60410402E-01  1.01584319E+00  1.10324099E+00
  1.16274870E+00  1.18092294E+00  1.21954195E+00  1.22264263E+00  1.26092408E+00
  1.35252596E+00  1.38906970E+00  1.42797648E+00  1.46746985E+00  1.49094437E+00
  1.55563748E+00  1.59290528E+00  1.66574097E+00  1.68311035E+00  1.71017915E+00
  1.72957813E+00  1.81058417E+00  1.81769198E+00  1.84318892E+00  1.84955806E+00
  1.97991656E+00  2.30068262E+00  2.33259617E+00  2.65487661E+00
Alpha MO coefficients                      R   N=       12996
  3.83772633E-06  8.51983887E-05 -1.31644138E-04 -2.17801476E-05 -8.56718641E-06
  6.80031624E-04  4.44040346E-04 -1.87379545E-04 -1.93817990E-04  9.65062702E-03
 -1.41676337E-03 -2.06372444E-03 -3.23526138E-04  1.89893884E-05  3.19830690E-04
 -1.85460340E-04  7.82983038E-05 -3.75105340E-05  4.27871316E-04 -1.31867820E-04
 -5.81511678E-04  4.30556426E-04 -3.02095914E-04 -1.57428354E-03 -3.86318542E-03
  1.37501222E-03  1.55565606E-04 -5.91903254E-04 -1.68233315E-05 -6.71143932E-04
  6.97677549E-05 -8.28800814E-05  9.70550608E-05  4.63527838E-04  2.65404389E-04
 -1.37902966E-04  1.51581587E-04 -3.21567611E-03  4.76589185E-04 -7.05102820E-04
  1.01351573E-03  9.53104511E-03 -6.33332317E-03  1.71385281E-03 -7.84714475E-04
 -1.24019606E-06 -3.49522115E-05  1.34920445E-05  1.40665406E-05  2.69931770E-05
  1.26460726E-05 -1.14586951E-06 -4.72027774E-05 -1.65544603E-04 -4.77210275E-04
 -1.77131109E-04  1.28913502E-04 -1.69259073E-04 -2.48633985E-04 -1.10932424E-03
 -1.86364734E-04  5.36084154E-04 -4.19845000E-04  9.30132992E-03 -5.61515319E-04
  8.62189185E-04 -1.33638253E-03 -2.37538302E-02 -5.84195637E-03  7.72894248E-04
 -2.82576946E-03  9.16529135E-05  5.10030797E-04  8.24069623E-05  7.04084997E-04
  7.91545176E-01  2.24347392E-02  1.31764800E-04 -1.13948605E-03 -1.06461691E-04
 -1.39886535E-02 -2.80289814E-04  2.66918470E-03  4.97012248E-04  8.25267715E-03
  5.62843476E-04 -1.71072631E-03  4.17268216E-04  1.50399822E-02  8.40747070E-04
  5.34754281E-05  3.46054440E-05 -3.93079958E-05 -2.02361311E-03 -9.26697708E-04
 -6.99507119E-04  6.50698208E-04 -1.27340514E-03 -3.41901126E-04 -7.73400019E-04
  7.36187326E-04  6.02814203E-01  1.72364727E-02 -4.30211378E-06  1.92812749E-04
  8.88308461E-04 -1.13044792E-02  3.69183016E-05 -7.72225382E-04 -2.34468265E-03
  5.68625006E-03  7.38398756E-04 -5.08769626E-04  9.59154409E-04 -5.60697364E-05
 -4.47836961E-04  4.28620163E-05 -7.59093184E-05 -2.81618699E-05  3.00518981E-03
 -1.21344534E-03 -1.07076453E-03  3.58338038E-04  1.05173623E-02 -1.51718543E-03
 -2.42718622E-03  1.01928694E-04  3.52404270E-05  3.67842841E-04 -8.98214303E-05
  1.13034015E-04 -4.77359543E-05 -1.02521099E-03  4.94712178E-04 -2.78499461E-03
  3.20113720E-05 -1.54724791E-02  1.83520107E-03 -3.23171919E-03  7.68494227E-05
 -1.18942362E-04 -4.86966909E-05  4.54601931E-06  2.47175504E-04 -1.76943004E-04
 -2.70985664E-04  1.18650061E-05  8.12881034E-05  9.83450106E-05 -1.31379205E-04
 -5.33741407E-05 -2.81056324E-04 -2.89238224E-04  2.45378045E-03  1.51766680E-03
  5.56607242E-03  6.07324233E-04  8.07356474E-04 -4.47076736E-04  6.63120207E-06
  6.22600446E-05 -1.68257287E-07 -1.96902064E-06 -3.53504491E-06 -9.14311849E-04
  2.62655864E-04 -5.92417869E-05 -1.40580785E-04  3.36578526E-04 -2.83228340E-04
  4.96780230E-05 -1.71397806E-04 -4.17393508E-05 -2.67982792E-04 -1.57540122E-05
 -5.61104296E-04 -6.10332587E-04  1.38247156E-03  3.47851671E-04 -8.52903204E-04
 -1.58032888E-03 -2.53206419E-03 -8.88100389E-04  3.33345847E-04  2.27450233E-04
 -3.37550803E-04 -1.89169481E-04  3.35432786E-04  1.10604484E-03 -6.02844933E-01
 -1.66634115E-02 -1.02098949E-04  8.26611319E-04  5.83390930E-05  8.95311566E-03
  1.73042247E-04 -9.81784868E-04  2.14282187E-04 -7.01778273E-03 -6.79422448E-04
  2.44589149E-03  9.73807258E-04  2.73439877E-04  3.93561538E-05 -6.95038681E-08
 -1.84233593E-05 -2.09015570E-05 -1.26496761E-04 -9.64496500E-05  2.71968896E-04
  3.80447766E-04  9.67905379E-05  3.22908614E-05  5.65178349E-04  6.85386929E-04
  7.91606314E-01  2.20797153E-02 -1.76888399E-05  2.29469915E-04  1.11605062E-03
 -1.26095205E-02 -5.93607013E-05 -2.09874773E-04 -1.78519459E-03  9.16631757E-03
  4.98429173E-04  1.19279294E-03  2.62274723E-03  9.47544130E-07 -2.03208601E-05
  3.09007181E-05  2.84463832E-05 -2.43596934E-05 -4.00252984E-04  2.19585763E-04
  1.24793398E-04  2.37018110E-04  4.33535690E-03  1.40362117E-04 -1.12285145E-03
  1.75105584E-05 -4.19848407E-06 -8.81762344E-05  9.57677116E-05 -3.93414393E-05
  4.65624943E-05 -9.72912753E-04 -5.86460324E-04  1.01909638E-03 -5.03834030E-04
 -5.12608906E-03 -7.52162706E-04 -2.29081648E-03  6.09391336E-04  9.69653409E-06
  2.81913336E-04  2.04642375E-06 -8.63445746E-05 -5.47916088E-07 -1.66129104E-04
  6.55796713E-05  2.60307415E-04  9.55954977E-05 -4.44738560E-05  9.70914772E-05
 -2.19348398E-03  2.31271395E-03 -2.98343347E-04  2.46480948E-05  1.33462445E-02
 -2.78731557E-03  1.83220411E-03 -1.95584407E-03 -5.46957380E-06 -7.28631900E-05
  4.07856386E-06 -8.86378534E-06 -2.65718484E-05  6.10473674E-04 -1.28830190E-04
  1.70143574E-04  2.49301903E-04  5.05316496E-04  1.01586051E-04  4.31095463E-04
 -4.87873399E-05 -1.96203545E-04 -9.74589737E-04 -6.38860506E-04 -2.72846702E-04
  2.04632563E-04  8.40707497E-03 -1.84511565E-03 -3.99174694E-04  5.85425137E-04
 -1.47356821E-02 -1.96318514E-03  2.12222994E-03 -2.52283746E-03  2.79869328E-04
 -2.38053245E-04  2.17807686E-04 -4.31662002E-04 -1.17509898E-02 -1.06767312E-05
 -2.79822367E-05 -1.44878576E-05  1.72641158E-05 -1.19405983E-03  3.52556045E-04
  9.38032451E-04 -1.14354897E-04 -1.71007071E-03  5.63996851E-04  1.10719242E-03
 -1.29403296E-04  9.94924920E-01  2.78977732E-02  1.26101343E-03  5.71581455E-04
 -4.90788346E-04 -1.64269610E-02 -2.52506346E-03 -1.20784550E-03  1.03038456E-03
  8.84179524E-03  1.88844087E-03  7.90768656E-04 -7.53423367E-04 -9.28578648E-03
  1.27485162E-05 -3.02389922E-05 -1.46579944E-05  1.79946583E-05 -9.92814122E-04
  4.71611884E-04  3.44107471E-05 -8.54351321E-04 -1.81081545E-03  5.45112666E-04
  4.12172545E-05 -1.14644245E-03 -2.65972326E-05 -4.14938230E-04 -1.78967272E-05
  1.24723242E-04  9.47375764E-06  3.16519029E-03 -2.20287937E-03 -7.01028554E-04
  9.08331102E-04  1.21604163E-02 -3.23404389E-04 -3.23829271E-03  2.32652702E-04
  2.21107873E-04  2.90938257E-04 -1.52576360E-05  1.40755537E-04 -1.20998199E-05
  7.66984377E-03  5.01116390E-03 -8.68018500E-03 -2.08887870E-03 -2.60769659E-02
  1.11821208E-04 -1.17787109E-03 -3.06947726E-04 -8.72650743E-05 -2.54883464E-04
  1.19868068E-04  3.01940255E-04 -1.78730477E-04 -5.01521951E-04 -3.77756430E-06
 -2.56613895E-04 -1.08187938E-04 -1.45024201E-04  3.14894253E-05  5.66948936E-04
 -1.22617256E-03  3.56444289E-03  8.96498386E-04 -6.94747105E-03  5.93808634E-03
 -7.17891979E-04  2.42249893E-03  9.95245621E-01  2.98646146E-02 -1.44060786E-03
  1.62224610E-03  5.71143376E-04 -2.40146692E-02  3.96134857E-03 -4.10625043E-03
 -1.49817719E-03  8.90391245E-03 -9.34428765E-04  4.95944834E-04 -5.01600636E-05
 -2.25154575E-05 -2.09300487E-04 -9.23884020E-05  2.61965290E-05  1.00849041E-04
  1.63737159E-04  5.96376614E-04 -6.65258003E-04 -2.71116976E-03  1.65935885E-02
  3.69302701E-03 -2.18435498E-03  1.34526181E-03 -2.41714170E-04 -5.17682092E-04
  1.78031856E-04  1.73890702E-03 -2.56867663E-06 -5.29865715E-05  4.81129694E-08
  9.57186214E-07 -3.60844187E-05  2.86981381E-04 -3.17777028E-05 -6.67297858E-05
  2.73474302E-04  7.97549960E-05 -2.54203977E-04 -4.10846053E-04 -2.90129225E-04
 -2.70674015E-06 -6.45728403E-05 -2.70560468E-05 -3.39582450E-05 -2.63864458E-05
  2.98298379E-04  1.97722944E-04  2.30143636E-04  1.71952131E-04  5.03621502E-04
  3.61660305E-04  1.05427427E-04 -1.07100199E-04  1.36819872E-06 -6.36650854E-07
 -2.08940075E-06  1.32945412E-05  5.30758644E-05 -1.74853235E-04  5.25328342E-05
 -1.32995362E-04 -4.53791069E-04 -3.20973336E-03  2.13198185E-04 -1.82388510E-04