 Entering Gaussian System, Link 0=/opt/cluster/programs/g09_d.01/g09//g09
 Input=/home/unibas/boittier/RDKit_G2/N.pdb/SCAN_1_2_6_8_S_17_20.0/SCAN_N.pdb.com
 Output=/scratch/boittier/SCAN_N.pdb/SCAN_N.pdb.out
 Initial command:
 /opt/cluster/programs/g09_d.01/g09/l1.exe "/scratch/boittier/SCAN_N.pdb/Gau-155306.inp" -scrdir="/scratch/boittier/SCAN_N.pdb/"
 Entering Link 1 = /opt/cluster/programs/g09_d.01/g09/l1.exe PID=    155307.
  
 Copyright (c) 1988,1990,1992,1993,1995,1998,2003,2009,2013,
            Gaussian, Inc.  All Rights Reserved.
  
 This is part of the Gaussian(R) 09 program.  It is based on
 the Gaussian(R) 03 system (copyright 2003, Gaussian, Inc.),
 the Gaussian(R) 98 system (copyright 1998, Gaussian, Inc.),
 the Gaussian(R) 94 system (copyright 1995, Gaussian, Inc.),
 the Gaussian 92(TM) system (copyright 1992, Gaussian, Inc.),
 the Gaussian 90(TM) system (copyright 1990, Gaussian, Inc.),
 the Gaussian 88(TM) system (copyright 1988, Gaussian, Inc.),
 the Gaussian 86(TM) system (copyright 1986, Carnegie Mellon
 University), and the Gaussian 82(TM) system (copyright 1983,
 Carnegie Mellon University). Gaussian is a federally registered
 trademark of Gaussian, Inc.
  
 This software contains proprietary and confidential information,
 including trade secrets, belonging to Gaussian, Inc.
  
 This software is provided under written license and may be
 used, copied, transmitted, or stored only in accord with that
 written license.
  
 The following legend is applicable only to US Government
 contracts under FAR:
  
                    RESTRICTED RIGHTS LEGEND
  
 Use, reproduction and disclosure by the US Government is
 subject to restrictions as set forth in subparagraphs (a)
 and (c) of the Commercial Computer Software - Restricted
 Rights clause in FAR 52.227-19.
  
 Gaussian, Inc.
 340 Quinnipiac St., Bldg. 40, Wallingford CT 06492
  
  
 ---------------------------------------------------------------
 Warning -- This program may not be used in any manner that
 competes with the business of Gaussian, Inc. or will provide
 assistance to any competitor of Gaussian, Inc.  The licensee
 of this program is prohibited from giving any competitor of
 Gaussian, Inc. access to this program.  By using this program,
 the user acknowledges that Gaussian, Inc. is engaged in the
 business of creating and licensing software in the field of
 computational chemistry and represents and warrants to the
 licensee that it is not a competitor of Gaussian, Inc. and that
 it will not use this program in any manner prohibited above.
 ---------------------------------------------------------------
  

 Cite this work as:
 Gaussian 09, Revision D.01,
 M. J. Frisch, G. W. Trucks, H. B. Schlegel, G. E. Scuseria, 
 M. A. Robb, J. R. Cheeseman, G. Scalmani, V. Barone, B. Mennucci, 
 G. A. Petersson, H. Nakatsuji, M. Caricato, X. Li, H. P. Hratchian, 
 A. F. Izmaylov, J. Bloino, G. Zheng, J. L. Sonnenberg, M. Hada, 
 M. Ehara, K. Toyota, R. Fukuda, J. Hasegawa, M. Ishida, T. Nakajima, 
 Y. Honda, O. Kitao, H. Nakai, T. Vreven, J. A. Montgomery, Jr., 
 J. E. Peralta, F. Ogliaro, M. Bearpark, J. J. Heyd, E. Brothers, 
 K. N. Kudin, V. N. Staroverov, T. Keith, R. Kobayashi, J. Normand, 
 K. Raghavachari, A. Rendell, J. C. Burant, S. S. Iyengar, J. Tomasi, 
 M. Cossi, N. Rega, J. M. Millam, M. Klene, J. E. Knox, J. B. Cross, 
 V. Bakken, C. Adamo, J. Jaramillo, R. Gomperts, R. E. Stratmann, 
 O. Yazyev, A. J. Austin, R. Cammi, C. Pomelli, J. W. Ochterski, 
 R. L. Martin, K. Morokuma, V. G. Zakrzewski, G. A. Voth, 
 P. Salvador, J. J. Dannenberg, S. Dapprich, A. D. Daniels, 
 O. Farkas, J. B. Foresman, J. V. Ortiz, J. Cioslowski, 
 and D. J. Fox, Gaussian, Inc., Wallingford CT, 2013.
 
 ******************************************
 Gaussian 09:  ES64L-G09RevD.01 24-Apr-2013
                26-May-2021 
 ******************************************
 %chk=/home/unibas/boittier/RDKit_G2/N.pdb/SCAN_1_2_6_8_S_17_20.0/N.pdb.chk
 %nproc=8
 Will use up to    8 processors via shared memory.
 %mem=16GB
 -----------------------------
 #p wB97XD/6-31+G Opt=ModRedun
 -----------------------------
 1/14=-1,18=120,19=15,26=3,38=1/1,3;
 2/9=110,12=2,17=6,18=5,40=1/2;
 3/5=1,6=6,7=10,11=2,16=1,25=1,30=1,71=1,74=-58/1,2,3;
 4//1;
 5/5=2,38=5/2;
 6/7=2,8=2,9=2,10=2,28=1/1;
 7//1,2,3,16;
 1/14=-1,18=20,19=15,26=3/3(2);
 2/9=110/2;
 99//99;
 2/9=110/2;
 3/5=1,6=6,7=10,11=2,16=1,25=1,30=1,71=1,74=-58/1,2,3;
 4/5=5,16=3,69=1/1;
 5/5=2,38=5/2;
 7//1,2,3,16;
 1/14=-1,18=20,19=15,26=3/3(-5);
 2/9=110/2;
 6/7=2,8=2,9=2,10=2,19=2,28=1/1;
 99/9=1/99;
 Leave Link    1 at Wed May 26 08:25:11 2021, MaxMem=  2147483648 cpu:         0.2
 (Enter /opt/cluster/programs/g09_d.01/g09/l101.exe)
 -----
 N.pdb
 -----
 Symbolic Z-matrix:
 Charge =  0 Multiplicity = 1
 C                    -3.074     1.461     1.367 
 C                    -2.496     1.283    -0.014 
 H                    -3.678     0.59      1.628 
 H                    -3.692     2.363     1.383 
 H                    -2.275     1.587     2.102 
 C                    -1.092     0.771    -0.133 
 O                    -3.169     1.527    -1.015 
 C                    -1.095    -0.716     0.046 
 H                    -0.463     1.261     0.617 
 H                    -0.696     1.044    -1.116 
 F                    -1.582    -1.068     1.256 
 F                     0.17     -1.193    -0.027 
 F                    -1.819    -1.348    -0.898 
 
 The following ModRedundant input section has been read:
 D       1       2       6       8 S  17 20.000                                
 
 NAtoms=     13 NQM=       13 NQMF=       0 NMMI=      0 NMMIF=      0
                NMic=       0 NMicF=      0.
                    Isotopes and Nuclear Properties:
 (Nuclear quadrupole moments (NQMom) in fm**2, nuclear magnetic moments (NMagM)
  in nuclear magnetons)

  Atom         1           2           3           4           5           6           7           8           9          10
 IAtWgt=          12          12           1           1           1          12          16          12           1           1
 AtmWgt=  12.0000000  12.0000000   1.0078250   1.0078250   1.0078250  12.0000000  15.9949146  12.0000000   1.0078250   1.0078250
 NucSpn=           0           0           1           1           1           0           0           0           1           1
 AtZEff=   0.0000000   0.0000000   0.0000000   0.0000000   0.0000000   0.0000000   0.0000000   0.0000000   0.0000000   0.0000000
 NQMom=    0.0000000   0.0000000   0.0000000   0.0000000   0.0000000   0.0000000   0.0000000   0.0000000   0.0000000   0.0000000
 NMagM=    0.0000000   0.0000000   2.7928460   2.7928460   2.7928460   0.0000000   0.0000000   0.0000000   2.7928460   2.7928460
 AtZNuc=   6.0000000   6.0000000   1.0000000   1.0000000   1.0000000   6.0000000   8.0000000   6.0000000   1.0000000   1.0000000

  Atom        11          12          13
 IAtWgt=          19          19          19
 AtmWgt=  18.9984033  18.9984033  18.9984033
 NucSpn=           1           1           1
 AtZEff=   0.0000000   0.0000000   0.0000000
 NQMom=    0.0000000   0.0000000   0.0000000
 NMagM=    2.6288670   2.6288670   2.6288670
 AtZNuc=   9.0000000   9.0000000   9.0000000
 Leave Link  101 at Wed May 26 08:25:12 2021, MaxMem=  2147483648 cpu:         4.2
 (Enter /opt/cluster/programs/g09_d.01/g09/l103.exe)

 GradGradGradGradGradGradGradGradGradGradGradGradGradGradGradGradGradGrad
 Berny optimization.
 Initialization pass.
                           ----------------------------
                           !    Initial Parameters    !
                           ! (Angstroms and Degrees)  !
 --------------------------                            --------------------------
 ! Name  Definition              Value          Derivative Info.                !
 --------------------------------------------------------------------------------
 ! R1    R(1,2)                  1.5076         estimate D2E/DX2                !
 ! R2    R(1,3)                  1.0916         estimate D2E/DX2                !
 ! R3    R(1,4)                  1.0935         estimate D2E/DX2                !
 ! R4    R(1,5)                  1.0929         estimate D2E/DX2                !
 ! R5    R(2,6)                  1.4992         estimate D2E/DX2                !
 ! R6    R(2,7)                  1.2306         estimate D2E/DX2                !
 ! R7    R(6,8)                  1.4977         estimate D2E/DX2                !
 ! R8    R(6,9)                  1.0946         estimate D2E/DX2                !
 ! R9    R(6,10)                 1.0944         estimate D2E/DX2                !
 ! R10   R(8,11)                 1.351          estimate D2E/DX2                !
 ! R11   R(8,12)                 1.3539         estimate D2E/DX2                !
 ! R12   R(8,13)                 1.3471         estimate D2E/DX2                !
 ! A1    A(2,1,3)              109.6909         estimate D2E/DX2                !
 ! A2    A(2,1,4)              109.1147         estimate D2E/DX2                !
 ! A3    A(2,1,5)              110.4478         estimate D2E/DX2                !
 ! A4    A(3,1,4)              109.9965         estimate D2E/DX2                !
 ! A5    A(3,1,5)              109.6153         estimate D2E/DX2                !
 ! A6    A(4,1,5)              107.9521         estimate D2E/DX2                !
 ! A7    A(1,2,6)              118.1693         estimate D2E/DX2                !
 ! A8    A(1,2,7)              120.798          estimate D2E/DX2                !
 ! A9    A(6,2,7)              121.0177         estimate D2E/DX2                !
 ! A10   A(2,6,8)              109.1299         estimate D2E/DX2                !
 ! A11   A(2,6,9)              109.3219         estimate D2E/DX2                !
 ! A12   A(2,6,10)             108.9647         estimate D2E/DX2                !
 ! A13   A(8,6,9)              111.3271         estimate D2E/DX2                !
 ! A14   A(8,6,10)             110.8393         estimate D2E/DX2                !
 ! A15   A(9,6,10)             107.2078         estimate D2E/DX2                !
 ! A16   A(6,8,11)             111.4965         estimate D2E/DX2                !
 ! A17   A(6,8,12)             109.9665         estimate D2E/DX2                !
 ! A18   A(6,8,13)             112.5266         estimate D2E/DX2                !
 ! A19   A(11,8,12)            107.0556         estimate D2E/DX2                !
 ! A20   A(11,8,13)            108.1587         estimate D2E/DX2                !
 ! A21   A(12,8,13)            107.4022         estimate D2E/DX2                !
 ! D1    D(3,1,2,6)            -97.3095         estimate D2E/DX2                !
 ! D2    D(3,1,2,7)             81.2932         estimate D2E/DX2                !
 ! D3    D(4,1,2,6)            142.1317         estimate D2E/DX2                !
 ! D4    D(4,1,2,7)            -39.2656         estimate D2E/DX2                !
 ! D5    D(5,1,2,6)             23.6185         estimate D2E/DX2                !
 ! D6    D(5,1,2,7)           -157.7788         estimate D2E/DX2                !
 ! D7    D(1,2,6,8)             79.7833         Scan                            !
 ! D8    D(1,2,6,9)            -42.1914         estimate D2E/DX2                !
 ! D9    D(1,2,6,10)          -159.0621         estimate D2E/DX2                !
 ! D10   D(7,2,6,8)            -98.8162         estimate D2E/DX2                !
 ! D11   D(7,2,6,9)            139.209          estimate D2E/DX2                !
 ! D12   D(7,2,6,10)            22.3384         estimate D2E/DX2                !
 ! D13   D(2,6,8,11)           -59.9804         estimate D2E/DX2                !
 ! D14   D(2,6,8,12)          -178.566          estimate D2E/DX2                !
 ! D15   D(2,6,8,13)            61.7528         estimate D2E/DX2                !
 ! D16   D(9,6,8,11)            60.7758         estimate D2E/DX2                !
 ! D17   D(9,6,8,12)           -57.8098         estimate D2E/DX2                !
 ! D18   D(9,6,8,13)          -177.4909         estimate D2E/DX2                !
 ! D19   D(10,6,8,11)         -179.9865         estimate D2E/DX2                !
 ! D20   D(10,6,8,12)           61.4279         estimate D2E/DX2                !
 ! D21   D(10,6,8,13)          -58.2533         estimate D2E/DX2                !
 --------------------------------------------------------------------------------
 Trust Radius=3.00D-01 FncErr=1.00D-07 GrdErr=1.00D-06
 Number of optimizations in scan=  18
 Number of steps in this run=     64 maximum allowed number of steps=    100.
 GradGradGradGradGradGradGradGradGradGradGradGradGradGradGradGradGradGrad

 Leave Link  103 at Wed May 26 08:25:12 2021, MaxMem=  2147483648 cpu:         0.1
 (Enter /opt/cluster/programs/g09_d.01/g09/l202.exe)
                          Input orientation:                          
 ---------------------------------------------------------------------
 Center     Atomic      Atomic             Coordinates (Angstroms)
 Number     Number       Type             X           Y           Z
 ---------------------------------------------------------------------
      1          6           0       -3.074000    1.461000    1.367000
      2          6           0       -2.496000    1.283000   -0.014000
      3          1           0       -3.678000    0.590000    1.628000
      4          1           0       -3.692000    2.363000    1.383000
      5          1           0       -2.275000    1.587000    2.102000
      6          6           0       -1.092000    0.771000   -0.133000
      7          8           0       -3.169000    1.527000   -1.015000
      8          6           0       -1.095000   -0.716000    0.046000
      9          1           0       -0.463000    1.261000    0.617000
     10          1           0       -0.696000    1.044000   -1.116000
     11          9           0       -1.582000   -1.068000    1.256000
     12          9           0        0.170000   -1.193000   -0.027000
     13          9           0       -1.819000   -1.348000   -0.898000
 ---------------------------------------------------------------------
                    Distance matrix (angstroms):
                    1          2          3          4          5
     1  C    0.000000
     2  C    1.507624   0.000000
     3  H    1.091594   2.138583   0.000000
     4  H    1.093519   2.132704   1.789902   0.000000
     5  H    1.092933   2.149119   1.785243   1.768340   0.000000
     6  C    2.579617   1.499173   3.133892   3.404808   2.657173
     7  O    2.384807   1.230636   2.850000   2.592842   3.243228
     8  C    3.225029   2.441803   3.298522   4.244080   3.305048
     9  H    2.723935   2.128787   3.436362   3.496799   2.365342
    10  H    3.463244   2.124035   4.077742   4.118347   3.625412
    11  F    2.938405   2.824092   2.698252   4.029887   2.871409
    12  F    4.417068   3.638448   4.552496   5.435833   4.270722
    13  F    3.820436   2.856912   3.686787   4.741583   4.221630
                    6          7          8          9         10
     6  C    0.000000
     7  O    2.379788   0.000000
     8  C    1.497738   3.233921   0.000000
     9  H    1.094642   3.171217   2.152671   0.000000
    10  H    1.094365   2.521749   2.146403   1.762007   0.000000
    11  F    2.356129   3.796055   1.350990   2.661714   3.297260
    12  F    2.336916   4.418537   1.353914   2.614869   2.634397
    13  F    2.367259   3.178335   1.347121   3.307694   2.651474
                   11         12         13
    11  F    0.000000
    12  F    2.175136   0.000000
    13  F    2.185014   2.176876   0.000000
 Stoichiometry    C4H5F3O
 Framework group  C1[X(C4H5F3O)]
 Deg. of freedom    33
 Full point group                 C1      NOp   1
 Largest Abelian subgroup         C1      NOp   1
 Largest concise Abelian subgroup C1      NOp   1
                         Standard orientation:                         
 ---------------------------------------------------------------------
 Center     Atomic      Atomic             Coordinates (Angstroms)
 Number     Number       Type             X           Y           Z
 ---------------------------------------------------------------------
      1          6           0        2.013562    1.125557   -0.055426
      2          6           0        1.410759   -0.228635    0.219752
      3          1           0        1.760975    1.441443   -1.069326
      4          1           0        3.099489    1.063748    0.057385
      5          1           0        1.641759    1.861847    0.661611
      6          6           0        0.105132   -0.286102    0.954296
      7          8           0        1.963887   -1.255895   -0.171724
      8          6           0       -1.009718    0.004028   -0.002863
      9          1           0        0.120737    0.435048    1.777667
     10          1           0       -0.010514   -1.280296    1.396832
     11          9           0       -0.879771    1.229013   -0.557568
     12          9           0       -2.195680   -0.012453    0.650059
     13          9           0       -1.084766   -0.901418   -0.997484
 ---------------------------------------------------------------------
 Rotational constants (GHZ):      3.4679980      1.4787780      1.3140942
 Leave Link  202 at Wed May 26 08:25:12 2021, MaxMem=  2147483648 cpu:         0.0
 (Enter /opt/cluster/programs/g09_d.01/g09/l301.exe)
 Standard basis: 6-31+G (6D, 7F)
 Ernie: Thresh=  0.10000D-02 Tol=  0.10000D-05 Strict=F.
 There are   114 symmetry adapted cartesian basis functions of A   symmetry.
 There are   114 symmetry adapted basis functions of A   symmetry.
   114 basis functions,   228 primitive gaussians,   114 cartesian basis functions
    32 alpha electrons       32 beta electrons
       nuclear repulsion energy       413.7148613005 Hartrees.
 IExCor= 4639 DFT=T Ex+Corr=wB97XD ExCW=0 ScaHFX=  1.000000
 ScaDFX=  1.000000  1.000000  1.000000  1.000000 ScalE2=  1.000000  1.000000
 IRadAn=      0 IRanWt=     -1 IRanGd=            0 ICorTp=0 IEmpDi=121
  HFx wShort=  0.000000 wLong=  0.200000 cFull=  0.222036 cShort=  0.000000 cLong=  0.777964
  DFx wShort=  0.000000 wLong=  0.200000 cFull=  0.000000 cShort=  0.000000 cLong=  1.000000
 NAtoms=   13 NActive=   13 NUniq=   13 SFac= 1.00D+00 NAtFMM=   60 NAOKFM=F Big=F
 Integral buffers will be    131072 words long.
 Raffenetti 2 integral format.
 Two-electron integral symmetry is turned on.
 R6Disp:  Grimme-D2 Dispersion energy=       -0.0061307210 Hartrees.
 Nuclear repulsion after empirical dispersion term =      413.7087305795 Hartrees.
 Leave Link  301 at Wed May 26 08:25:12 2021, MaxMem=  2147483648 cpu:         0.3
 (Enter /opt/cluster/programs/g09_d.01/g09/l302.exe)
 NPDir=0 NMtPBC=     1 NCelOv=     1 NCel=       1 NClECP=     1 NCelD=      1
         NCelK=      1 NCelE2=     1 NClLst=     1 CellRange=     0.0.
 One-electron integrals computed using PRISM.
 NBasis=   114 RedAO= T EigKep=  9.35D-05  NBF=   114
 NBsUse=   114 1.00D-06 EigRej= -1.00D+00 NBFU=   114
 Precomputing XC quadrature grid using
 IXCGrd= 4 IRadAn=           0 IRanWt=          -1 IRanGd=           0 AccXCQ= 0.00D+00.
 Generated NRdTot=       0 NPtTot=           0 NUsed=           0 NTot=          32
 NSgBfM=   114   114   114   114   114 MxSgAt=    13 MxSgA2=    13.
 Leave Link  302 at Wed May 26 08:25:12 2021, MaxMem=  2147483648 cpu:         0.9
 (Enter /opt/cluster/programs/g09_d.01/g09/l303.exe)
 DipDrv:  MaxL=1.
 Leave Link  303 at Wed May 26 08:25:12 2021, MaxMem=  2147483648 cpu:         0.2
 (Enter /opt/cluster/programs/g09_d.01/g09/l401.exe)
 ExpMin= 4.38D-02 ExpMax= 7.00D+03 ExpMxC= 1.05D+03 IAcc=2 IRadAn=         4 AccDes= 0.00D+00
 Harris functional with IExCor= 4639 and IRadAn=       4 diagonalized for initial guess.
 HarFok:  IExCor= 4639 AccDes= 0.00D+00 IRadAn=         4 IDoV= 1 UseB2=F ITyADJ=14
 ICtDFT=  3500011 ScaDFX=  1.000000  1.000000  1.000000  1.000000
 FoFCou: FMM=F IPFlag=           0 FMFlag=      100000 FMFlg1=           0
         NFxFlg=           0 DoJE=T BraDBF=F KetDBF=T FulRan=T
         wScrn=  0.000000 ICntrl=     500 IOpCl=  0 I1Cent=   200000004 NGrid=           0
         NMat0=    1 NMatS0=      1 NMatT0=    0 NMatD0=    1 NMtDS0=    0 NMtDT0=    0
 Petite list used in FoFCou.
 Harris En= -511.156224226941    
 JPrj=0 DoOrth=F DoCkMO=F.
 Leave Link  401 at Wed May 26 08:25:13 2021, MaxMem=  2147483648 cpu:         2.1
 (Enter /opt/cluster/programs/g09_d.01/g09/l502.exe)
 Closed shell SCF:
 Using DIIS extrapolation, IDIIS=  1040.
 Integral symmetry usage will be decided dynamically.
 Keep R1 ints in memory in canonical form, NReq=43969700.
 IVT=       59316 IEndB=       59316 NGot=  2147483648 MDV=  2104449753
 LenX=  2104449753 LenY=  2104436316
 Requested convergence on RMS density matrix=1.00D-08 within 128 cycles.
 Requested convergence on MAX density matrix=1.00D-06.
 Requested convergence on             energy=1.00D-06.
 No special actions if energy rises.
 FoFCou: FMM=F IPFlag=           0 FMFlag=           0 FMFlg1=           0
         NFxFlg=           0 DoJE=F BraDBF=F KetDBF=F FulRan=T
         wScrn=  0.000000 ICntrl=     600 IOpCl=  0 I1Cent=           0 NGrid=           0
         NMat0=    1 NMatS0=   6555 NMatT0=    0 NMatD0=    1 NMtDS0=    0 NMtDT0=    0
 Symmetry not used in FoFCou.

 Cycle   1  Pass 1  IDiag  1:
 E= -529.584493528620    
 DIIS: error= 6.50D-02 at cycle   1 NSaved=   1.
 NSaved= 1 IEnMin= 1 EnMin= -529.584493528620     IErMin= 1 ErrMin= 6.50D-02
 ErrMax= 6.50D-02  0.00D+00 EMaxC= 1.00D-01 BMatC= 5.16D-01 BMatP= 5.16D-01
 IDIUse=3 WtCom= 3.50D-01 WtEn= 6.50D-01
 Coeff-Com:  0.100D+01
 Coeff-En:   0.100D+01
 Coeff:      0.100D+01
 Gap=     0.398 Goal=   None    Shift=    0.000
 GapD=    0.398 DampG=1.000 DampE=0.500 DampFc=0.5000 IDamp=-1.
 Damping current iteration by 5.00D-01
 RMSDP=1.92D-02 MaxDP=8.14D-01              OVMax= 1.31D-01

 Cycle   2  Pass 1  IDiag  1:
 E= -529.761748453930     Delta-E=       -0.177254925310 Rises=F Damp=T
 DIIS: error= 1.50D-02 at cycle   2 NSaved=   2.
 NSaved= 2 IEnMin= 2 EnMin= -529.761748453930     IErMin= 2 ErrMin= 1.50D-02
 ErrMax= 1.50D-02  0.00D+00 EMaxC= 1.00D-01 BMatC= 3.28D-02 BMatP= 5.16D-01
 IDIUse=3 WtCom= 8.50D-01 WtEn= 1.50D-01
 Coeff-Com: -0.134D+00 0.113D+01
 Coeff-En:   0.000D+00 0.100D+01
 Coeff:     -0.114D+00 0.111D+01
 Gap=     0.399 Goal=   None    Shift=    0.000
 RMSDP=9.57D-03 MaxDP=4.16D-01 DE=-1.77D-01 OVMax= 5.78D-02

 Cycle   3  Pass 1  IDiag  1:
 E= -529.912755036043     Delta-E=       -0.151006582113 Rises=F Damp=F
 DIIS: error= 6.14D-03 at cycle   3 NSaved=   3.
 NSaved= 3 IEnMin= 3 EnMin= -529.912755036043     IErMin= 3 ErrMin= 6.14D-03
 ErrMax= 6.14D-03  0.00D+00 EMaxC= 1.00D-01 BMatC= 6.52D-03 BMatP= 3.28D-02
 IDIUse=3 WtCom= 9.39D-01 WtEn= 6.14D-02
 Coeff-Com: -0.668D-01 0.336D+00 0.731D+00
 Coeff-En:   0.000D+00 0.000D+00 0.100D+01
 Coeff:     -0.627D-01 0.315D+00 0.748D+00
 Gap=     0.381 Goal=   None    Shift=    0.000
 RMSDP=3.25D-03 MaxDP=1.22D-01 DE=-1.51D-01 OVMax= 2.24D-02

 Cycle   4  Pass 1  IDiag  1:
 E= -529.917023766382     Delta-E=       -0.004268730339 Rises=F Damp=F
 DIIS: error= 2.71D-03 at cycle   4 NSaved=   4.
 NSaved= 4 IEnMin= 4 EnMin= -529.917023766382     IErMin= 4 ErrMin= 2.71D-03
 ErrMax= 2.71D-03  0.00D+00 EMaxC= 1.00D-01 BMatC= 1.84D-03 BMatP= 6.52D-03
 IDIUse=3 WtCom= 9.73D-01 WtEn= 2.71D-02
 Coeff-Com:  0.464D-03-0.300D-02 0.337D+00 0.665D+00
 Coeff-En:   0.000D+00 0.000D+00 0.150D+00 0.850D+00
 Coeff:      0.451D-03-0.292D-02 0.332D+00 0.670D+00
 Gap=     0.372 Goal=   None    Shift=    0.000
 RMSDP=5.81D-04 MaxDP=9.52D-03 DE=-4.27D-03 OVMax= 1.54D-02

 Cycle   5  Pass 1  IDiag  1:
 E= -529.918331393958     Delta-E=       -0.001307627576 Rises=F Damp=F
 DIIS: error= 1.11D-03 at cycle   5 NSaved=   5.
 NSaved= 5 IEnMin= 5 EnMin= -529.918331393958     IErMin= 5 ErrMin= 1.11D-03
 ErrMax= 1.11D-03  0.00D+00 EMaxC= 1.00D-01 BMatC= 2.49D-04 BMatP= 1.84D-03
 IDIUse=3 WtCom= 9.89D-01 WtEn= 1.11D-02
 Coeff-Com:  0.653D-02-0.298D-01 0.145D+00 0.384D+00 0.494D+00
 Coeff-En:   0.000D+00 0.000D+00 0.000D+00 0.000D+00 0.100D+01
 Coeff:      0.646D-02-0.294D-01 0.143D+00 0.380D+00 0.499D+00
 Gap=     0.375 Goal=   None    Shift=    0.000
 RMSDP=5.70D-04 MaxDP=2.31D-02 DE=-1.31D-03 OVMax= 4.09D-03

 Cycle   6  Pass 1  IDiag  1:
 E= -529.918512519024     Delta-E=       -0.000181125066 Rises=F Damp=F
 DIIS: error= 1.80D-04 at cycle   6 NSaved=   6.
 NSaved= 6 IEnMin= 6 EnMin= -529.918512519024     IErMin= 6 ErrMin= 1.80D-04
 ErrMax= 1.80D-04  0.00D+00 EMaxC= 1.00D-01 BMatC= 4.90D-06 BMatP= 2.49D-04
 IDIUse=3 WtCom= 9.98D-01 WtEn= 1.80D-03
 Coeff-Com:  0.154D-02-0.408D-02-0.223D-01-0.373D-01 0.744D-01 0.988D+00
 Coeff-En:   0.000D+00 0.000D+00 0.000D+00 0.000D+00 0.000D+00 0.100D+01
 Coeff:      0.154D-02-0.407D-02-0.223D-01-0.372D-01 0.743D-01 0.988D+00
 Gap=     0.375 Goal=   None    Shift=    0.000
 RMSDP=1.77D-04 MaxDP=6.93D-03 DE=-1.81D-04 OVMax= 1.38D-03

 Cycle   7  Pass 1  IDiag  1:
 E= -529.918519215979     Delta-E=       -0.000006696955 Rises=F Damp=F
 DIIS: error= 4.43D-05 at cycle   7 NSaved=   7.
 NSaved= 7 IEnMin= 7 EnMin= -529.918519215979     IErMin= 7 ErrMin= 4.43D-05
 ErrMax= 4.43D-05  0.00D+00 EMaxC= 1.00D-01 BMatC= 4.71D-07 BMatP= 4.90D-06
 IDIUse=1 WtCom= 1.00D+00 WtEn= 0.00D+00
 Coeff-Com:  0.126D-03 0.525D-03-0.172D-01-0.359D-01-0.129D-01 0.335D+00
 Coeff-Com:  0.730D+00
 Coeff:      0.126D-03 0.525D-03-0.172D-01-0.359D-01-0.129D-01 0.335D+00
 Coeff:      0.730D+00
 Gap=     0.375 Goal=   None    Shift=    0.000
 RMSDP=4.17D-05 MaxDP=1.61D-03 DE=-6.70D-06 OVMax= 3.02D-04

 Cycle   8  Pass 1  IDiag  1:
 E= -529.918519845643     Delta-E=       -0.000000629664 Rises=F Damp=F
 DIIS: error= 1.85D-05 at cycle   8 NSaved=   8.
 NSaved= 8 IEnMin= 8 EnMin= -529.918519845643     IErMin= 8 ErrMin= 1.85D-05
 ErrMax= 1.85D-05  0.00D+00 EMaxC= 1.00D-01 BMatC= 2.26D-08 BMatP= 4.71D-07
 IDIUse=1 WtCom= 1.00D+00 WtEn= 0.00D+00
 Coeff-Com: -0.120D-03 0.330D-03 0.114D-02 0.284D-02-0.914D-02-0.595D-01
 Coeff-Com:  0.307D-01 0.103D+01
 Coeff:     -0.120D-03 0.330D-03 0.114D-02 0.284D-02-0.914D-02-0.595D-01
 Coeff:      0.307D-01 0.103D+01
 Gap=     0.375 Goal=   None    Shift=    0.000
 RMSDP=1.38D-05 MaxDP=4.81D-04 DE=-6.30D-07 OVMax= 1.94D-04

 Cycle   9  Pass 1  IDiag  1:
 E= -529.918519908500     Delta-E=       -0.000000062856 Rises=F Damp=F
 DIIS: error= 7.82D-06 at cycle   9 NSaved=   9.
 NSaved= 9 IEnMin= 9 EnMin= -529.918519908500     IErMin= 9 ErrMin= 7.82D-06
 ErrMax= 7.82D-06  0.00D+00 EMaxC= 1.00D-01 BMatC= 3.09D-09 BMatP= 2.26D-08
 IDIUse=1 WtCom= 1.00D+00 WtEn= 0.00D+00
 Coeff-Com: -0.371D-04 0.306D-04 0.162D-02 0.372D-02-0.139D-02-0.402D-01
 Coeff-Com: -0.500D-01 0.226D+00 0.860D+00
 Coeff:     -0.371D-04 0.306D-04 0.162D-02 0.372D-02-0.139D-02-0.402D-01
 Coeff:     -0.500D-01 0.226D+00 0.860D+00
 Gap=     0.375 Goal=   None    Shift=    0.000
 RMSDP=2.77D-06 MaxDP=5.80D-05 DE=-6.29D-08 OVMax= 8.70D-05

 Cycle  10  Pass 1  IDiag  1:
 E= -529.918519918830     Delta-E=       -0.000000010331 Rises=F Damp=F
 DIIS: error= 4.09D-06 at cycle  10 NSaved=  10.
 NSaved=10 IEnMin=10 EnMin= -529.918519918830     IErMin=10 ErrMin= 4.09D-06
 ErrMax= 4.09D-06  0.00D+00 EMaxC= 1.00D-01 BMatC= 1.26D-09 BMatP= 3.09D-09
 IDIUse=1 WtCom= 1.00D+00 WtEn= 0.00D+00
 Coeff-Com:  0.117D-04-0.698D-04 0.567D-03 0.130D-02 0.153D-02-0.622D-02
 Coeff-Com: -0.343D-01-0.141D+00 0.422D+00 0.757D+00
 Coeff:      0.117D-04-0.698D-04 0.567D-03 0.130D-02 0.153D-02-0.622D-02
 Coeff:     -0.343D-01-0.141D+00 0.422D+00 0.757D+00
 Gap=     0.375 Goal=   None    Shift=    0.000
 RMSDP=1.40D-06 MaxDP=2.65D-05 DE=-1.03D-08 OVMax= 5.72D-05

 Cycle  11  Pass 1  IDiag  1:
 E= -529.918519922502     Delta-E=       -0.000000003672 Rises=F Damp=F
 DIIS: error= 1.77D-06 at cycle  11 NSaved=  11.
 NSaved=11 IEnMin=11 EnMin= -529.918519922502     IErMin=11 ErrMin= 1.77D-06
 ErrMax= 1.77D-06  0.00D+00 EMaxC= 1.00D-01 BMatC= 1.10D-10 BMatP= 1.26D-09
 IDIUse=1 WtCom= 1.00D+00 WtEn= 0.00D+00
 Coeff-Com:  0.807D-05-0.361D-05-0.386D-03-0.899D-03 0.268D-03 0.913D-02
 Coeff-Com:  0.114D-01-0.381D-01-0.192D+00-0.708D-01 0.128D+01
 Coeff:      0.807D-05-0.361D-05-0.386D-03-0.899D-03 0.268D-03 0.913D-02
 Coeff:      0.114D-01-0.381D-01-0.192D+00-0.708D-01 0.128D+01
 Gap=     0.375 Goal=   None    Shift=    0.000
 RMSDP=9.38D-07 MaxDP=1.75D-05 DE=-3.67D-09 OVMax= 4.09D-05

 Cycle  12  Pass 1  IDiag  1:
 E= -529.918519923447     Delta-E=       -0.000000000945 Rises=F Damp=F
 DIIS: error= 4.56D-07 at cycle  12 NSaved=  12.
 NSaved=12 IEnMin=12 EnMin= -529.918519923447     IErMin=12 ErrMin= 4.56D-07
 ErrMax= 4.56D-07  0.00D+00 EMaxC= 1.00D-01 BMatC= 2.06D-11 BMatP= 1.10D-10
 IDIUse=1 WtCom= 1.00D+00 WtEn= 0.00D+00
 Coeff-Com:  0.129D-05 0.544D-05-0.169D-03-0.401D-03-0.718D-04 0.311D-02
 Coeff-Com:  0.739D-02 0.105D-01-0.111D+00-0.131D+00 0.369D+00 0.853D+00
 Coeff:      0.129D-05 0.544D-05-0.169D-03-0.401D-03-0.718D-04 0.311D-02
 Coeff:      0.739D-02 0.105D-01-0.111D+00-0.131D+00 0.369D+00 0.853D+00
 Gap=     0.375 Goal=   None    Shift=    0.000
 RMSDP=2.71D-07 MaxDP=5.64D-06 DE=-9.45D-10 OVMax= 1.06D-05

 Cycle  13  Pass 1  IDiag  1:
 E= -529.918519923524     Delta-E=       -0.000000000077 Rises=F Damp=F
 DIIS: error= 1.20D-07 at cycle  13 NSaved=  13.
 NSaved=13 IEnMin=13 EnMin= -529.918519923524     IErMin=13 ErrMin= 1.20D-07
 ErrMax= 1.20D-07  0.00D+00 EMaxC= 1.00D-01 BMatC= 1.56D-12 BMatP= 2.06D-11
 IDIUse=1 WtCom= 1.00D+00 WtEn= 0.00D+00
 Coeff-Com: -0.845D-06 0.773D-06 0.393D-04 0.835D-04-0.208D-04-0.104D-02
 Coeff-Com: -0.853D-03 0.657D-02 0.153D-01-0.821D-03-0.146D+00 0.584D-01
 Coeff-Com:  0.107D+01
 Coeff:     -0.845D-06 0.773D-06 0.393D-04 0.835D-04-0.208D-04-0.104D-02
 Coeff:     -0.853D-03 0.657D-02 0.153D-01-0.821D-03-0.146D+00 0.584D-01
 Coeff:      0.107D+01
 Gap=     0.375 Goal=   None    Shift=    0.000
 RMSDP=9.97D-08 MaxDP=2.30D-06 DE=-7.72D-11 OVMax= 3.21D-06

 Cycle  14  Pass 1  IDiag  1:
 E= -529.918519923527     Delta-E=       -0.000000000003 Rises=F Damp=F
 DIIS: error= 1.85D-08 at cycle  14 NSaved=  14.
 NSaved=14 IEnMin=14 EnMin= -529.918519923527     IErMin=14 ErrMin= 1.85D-08
 ErrMax= 1.85D-08  0.00D+00 EMaxC= 1.00D-01 BMatC= 7.72D-14 BMatP= 1.56D-12
 IDIUse=1 WtCom= 1.00D+00 WtEn= 0.00D+00
 Coeff-Com: -0.236D-06 0.136D-06 0.114D-04 0.243D-04 0.395D-05-0.268D-03
 Coeff-Com: -0.340D-03 0.491D-03 0.575D-02 0.524D-02-0.332D-01-0.268D-01
 Coeff-Com:  0.148D+00 0.901D+00
 Coeff:     -0.236D-06 0.136D-06 0.114D-04 0.243D-04 0.395D-05-0.268D-03
 Coeff:     -0.340D-03 0.491D-03 0.575D-02 0.524D-02-0.332D-01-0.268D-01
 Coeff:      0.148D+00 0.901D+00
 Gap=     0.375 Goal=   None    Shift=    0.000
 RMSDP=1.20D-08 MaxDP=3.37D-07 DE=-2.84D-12 OVMax= 2.65D-07

 Cycle  15  Pass 1  IDiag  1:
 E= -529.918519923531     Delta-E=       -0.000000000005 Rises=F Damp=F
 DIIS: error= 7.00D-09 at cycle  15 NSaved=  15.
 NSaved=15 IEnMin=15 EnMin= -529.918519923531     IErMin=15 ErrMin= 7.00D-09
 ErrMax= 7.00D-09  0.00D+00 EMaxC= 1.00D-01 BMatC= 1.35D-14 BMatP= 7.72D-14
 IDIUse=1 WtCom= 1.00D+00 WtEn= 0.00D+00
 Coeff-Com: -0.114D-07-0.417D-07 0.387D-06 0.803D-06 0.521D-05 0.254D-05
 Coeff-Com: -0.384D-04-0.537D-03 0.694D-03 0.228D-02 0.304D-02-0.182D-01
 Coeff-Com: -0.616D-01 0.318D+00 0.756D+00
 Coeff:     -0.114D-07-0.417D-07 0.387D-06 0.803D-06 0.521D-05 0.254D-05
 Coeff:     -0.384D-04-0.537D-03 0.694D-03 0.228D-02 0.304D-02-0.182D-01
 Coeff:     -0.616D-01 0.318D+00 0.756D+00
 Gap=     0.375 Goal=   None    Shift=    0.000
 RMSDP=4.24D-09 MaxDP=1.58D-07 DE=-4.89D-12 OVMax= 4.89D-08

 SCF Done:  E(RwB97XD) =  -529.918519924     A.U. after   15 cycles
            NFock= 15  Conv=0.42D-08     -V/T= 2.0044
 KE= 5.275787287009D+02 PE=-2.077948676931D+03 EE= 6.067426977268D+02
 Leave Link  502 at Wed May 26 08:25:17 2021, MaxMem=  2147483648 cpu:        31.5
 (Enter /opt/cluster/programs/g09_d.01/g09/l601.exe)
 Copying SCF densities to generalized density rwf, IOpCl= 0 IROHF=0.

 **********************************************************************

            Population analysis using the SCF density.

 **********************************************************************

 Orbital symmetries:
       Occupied  (A) (A) (A) (A) (A) (A) (A) (A) (A) (A) (A) (A)
                 (A) (A) (A) (A) (A) (A) (A) (A) (A) (A) (A) (A)
                 (A) (A) (A) (A) (A) (A) (A) (A)
       Virtual   (A) (A) (A) (A) (A) (A) (A) (A) (A) (A) (A) (A)
                 (A) (A) (A) (A) (A) (A) (A) (A) (A) (A) (A) (A)
                 (A) (A) (A) (A) (A) (A) (A) (A) (A) (A) (A) (A)
                 (A) (A) (A) (A) (A) (A) (A) (A) (A) (A) (A) (A)
                 (A) (A) (A) (A) (A) (A) (A) (A) (A) (A) (A) (A)
                 (A) (A) (A) (A) (A) (A) (A) (A) (A) (A) (A) (A)
                 (A) (A) (A) (A) (A) (A) (A) (A) (A) (A)
 The electronic state is 1-A.
 Alpha  occ. eigenvalues --  -24.89468 -24.89127 -24.88737 -19.29929 -10.59111
 Alpha  occ. eigenvalues --  -10.43062 -10.35549 -10.31765  -1.46563  -1.37146
 Alpha  occ. eigenvalues --   -1.36606  -1.19301  -0.95426  -0.86873  -0.80360
 Alpha  occ. eigenvalues --   -0.72089  -0.71543  -0.70136  -0.64498  -0.59540
 Alpha  occ. eigenvalues --   -0.58742  -0.58012  -0.57230  -0.55526  -0.54473
 Alpha  occ. eigenvalues --   -0.53791  -0.52749  -0.51295  -0.50574  -0.49113
 Alpha  occ. eigenvalues --   -0.45946  -0.36436
 Alpha virt. eigenvalues --    0.01088   0.05660   0.07968   0.09217   0.10142
 Alpha virt. eigenvalues --    0.10689   0.11749   0.12635   0.12758   0.13005
 Alpha virt. eigenvalues --    0.15723   0.16373   0.16442   0.17221   0.18129
 Alpha virt. eigenvalues --    0.19608   0.20141   0.20756   0.23525   0.24601
 Alpha virt. eigenvalues --    0.26299   0.27276   0.28595   0.29528   0.31686
 Alpha virt. eigenvalues --    0.33119   0.34636   0.35741   0.37056   0.38262
 Alpha virt. eigenvalues --    0.38556   0.39303   0.40756   0.41288   0.41745
 Alpha virt. eigenvalues --    0.43166   0.43615   0.44198   0.45051   0.45185
 Alpha virt. eigenvalues --    0.46239   0.49283   0.52083   0.53445   0.55223
 Alpha virt. eigenvalues --    0.70627   0.73834   0.78199   0.79063   0.81353
 Alpha virt. eigenvalues --    0.84049   0.85651   0.87746   0.90092   0.92287
 Alpha virt. eigenvalues --    0.95167   0.98325   1.13295   1.15273   1.19636
 Alpha virt. eigenvalues --    1.21411   1.23175   1.28127   1.35400   1.35725
 Alpha virt. eigenvalues --    1.44181   1.48510   1.49906   1.56162   1.59795
 Alpha virt. eigenvalues --    1.69157   1.69766   1.72037   1.74453   1.79935
 Alpha virt. eigenvalues --    1.83907   1.84530   1.87718   2.02031   2.34583
 Alpha virt. eigenvalues --    2.38706   2.70088
          Condensed to atoms (all electrons):
               1          2          3          4          5          6
     1  C    7.540397  -0.154726   0.343598   0.355972   0.340946  -1.806900
     2  C   -0.154726   6.071753  -0.003908  -0.021898  -0.056431  -0.659034
     3  H    0.343598  -0.003908   0.431705  -0.014476  -0.021500  -0.001382
     4  H    0.355972  -0.021898  -0.014476   0.449237  -0.028529   0.021629
     5  H    0.340946  -0.056431  -0.021500  -0.028529   0.506781   0.041743
     6  C   -1.806900  -0.659034  -0.001382   0.021629   0.041743   9.077864
     7  O   -0.171332   0.496765  -0.003085  -0.008803   0.008717  -0.233072
     8  C    0.079853   0.010998   0.004636  -0.002879  -0.003092   0.020396
     9  H    0.029203   0.007206   0.000131  -0.000050  -0.001317   0.282369
    10  H    0.019558   0.004111  -0.000092  -0.000118   0.000091   0.312871
    11  F    0.055719  -0.031104  -0.002479   0.000379  -0.003080  -0.180674
    12  F   -0.010940  -0.007761   0.000069   0.000032   0.000114  -0.126125
    13  F    0.021902   0.051604  -0.000627  -0.000007   0.000147  -0.204710
               7          8          9         10         11         12
     1  C   -0.171332   0.079853   0.029203   0.019558   0.055719  -0.010940
     2  C    0.496765   0.010998   0.007206   0.004111  -0.031104  -0.007761
     3  H   -0.003085   0.004636   0.000131  -0.000092  -0.002479   0.000069
     4  H   -0.008803  -0.002879  -0.000050  -0.000118   0.000379   0.000032
     5  H    0.008717  -0.003092  -0.001317   0.000091  -0.003080   0.000114
     6  C   -0.233072   0.020396   0.282369   0.312871  -0.180674  -0.126125
     7  O    8.277066  -0.014739   0.004542  -0.001882  -0.000775  -0.001389
     8  C   -0.014739   5.136175  -0.026025  -0.025519   0.079018   0.133966
     9  H    0.004542  -0.026025   0.457824  -0.022176  -0.006187  -0.006932
    10  H   -0.001882  -0.025519  -0.022176   0.419670   0.008630  -0.002754
    11  F   -0.000775   0.079018  -0.006187   0.008630   9.400024  -0.068830
    12  F   -0.001389   0.133966  -0.006932  -0.002754  -0.068830   9.374717
    13  F    0.011803   0.074118   0.010176  -0.005274  -0.067762  -0.076711
              13
     1  C    0.021902
     2  C    0.051604
     3  H   -0.000627
     4  H   -0.000007
     5  H    0.000147
     6  C   -0.204710
     7  O    0.011803
     8  C    0.074118
     9  H    0.010176
    10  H   -0.005274
    11  F   -0.067762
    12  F   -0.076711
    13  F    9.364926
 Mulliken charges:
               1
     1  C   -0.643250
     2  C    0.292425
     3  H    0.267410
     4  H    0.249510
     5  H    0.215409
     6  C   -0.544976
     7  O   -0.363816
     8  C    0.533091
     9  H    0.271235
    10  H    0.292883
    11  F   -0.182880
    12  F   -0.207457
    13  F   -0.179584
 Sum of Mulliken charges =   0.00000
 Mulliken charges with hydrogens summed into heavy atoms:
               1
     1  C    0.089079
     2  C    0.292425
     6  C    0.019142
     7  O   -0.363816
     8  C    0.533091
    11  F   -0.182880
    12  F   -0.207457
    13  F   -0.179584
 Electronic spatial extent (au):  <R**2>=            922.2604
 Charge=              0.0000 electrons
 Dipole moment (field-independent basis, Debye):
    X=              0.7998    Y=              2.2712    Z=              2.3748  Tot=              3.3820
 Quadrupole moment (field-independent basis, Debye-Ang):
   XX=            -51.2597   YY=            -48.9443   ZZ=            -43.3755
   XY=              6.5285   XZ=              1.5008   YZ=             -1.6118
 Traceless Quadrupole moment (field-independent basis, Debye-Ang):
   XX=             -3.3999   YY=             -1.0845   ZZ=              4.4843
   XY=              6.5285   XZ=              1.5008   YZ=             -1.6118
 Octapole moment (field-independent basis, Debye-Ang**2):
  XXX=            -17.5674  YYY=              2.9073  ZZZ=             -2.5994  XYY=            -11.8142
  XXY=             13.5947  XXZ=             -1.7509  XZZ=             -4.3538  YZZ=              0.8572
  YYZ=              2.1972  XYZ=             -1.5287
 Hexadecapole moment (field-independent basis, Debye-Ang**3):
 XXXX=           -680.8938 YYYY=           -251.1484 ZZZZ=           -141.7231 XXXY=             24.1941
 XXXZ=             15.1019 YYYX=              6.9924 YYYZ=             -0.3814 ZZZX=             -0.7836
 ZZZY=              0.0303 XXYY=           -164.8672 XXZZ=           -137.8548 YYZZ=            -61.2954
 XXYZ=             -4.0244 YYXZ=             -0.8718 ZZXY=             -1.2082
 N-N= 4.137087305795D+02 E-N=-2.077948677259D+03  KE= 5.275787287009D+02
 No NMR shielding tensors so no spin-rotation constants.
 Leave Link  601 at Wed May 26 08:25:17 2021, MaxMem=  2147483648 cpu:         0.6
 (Enter /opt/cluster/programs/g09_d.01/g09/l701.exe)
 Compute integral first derivatives.
 ... and contract with generalized density number  0.
 R6Disp: Adding Grimme-D2 dispersion energy 1st derivatives to the gradient.
 Leave Link  701 at Wed May 26 08:25:17 2021, MaxMem=  2147483648 cpu:         0.6
 (Enter /opt/cluster/programs/g09_d.01/g09/l702.exe)
 L702 exits ... SP integral derivatives will be done elsewhere.
 Leave Link  702 at Wed May 26 08:25:17 2021, MaxMem=  2147483648 cpu:         0.2
 (Enter /opt/cluster/programs/g09_d.01/g09/l703.exe)
 Compute integral first derivatives, UseDBF=F ICtDFT=           0.
 Integral derivatives from FoFJK, PRISM(SPDF).
 Calling FoFJK, ICntrl=      2127 FMM=F ISym2X=0 I1Cent= 0 IOpClX= 0 NMat=1 NMatS=1 NMatT=0.
 FoFJK:  IHMeth= 1 ICntrl=    2127 DoSepK=T KAlg= 0 I1Cent=   0 FoldK=F
 IRaf=         1 NMat=   1 IRICut=       1 DoRegI=T DoRafI=F ISym2E= 0.
 FoFCou: FMM=F IPFlag=           0 FMFlag=      100000 FMFlg1=         800
         NFxFlg=           0 DoJE=F BraDBF=F KetDBF=F FulRan=T
         wScrn=  0.000000 ICntrl=    2527 IOpCl=  0 I1Cent=           0 NGrid=           0
         NMat0=    1 NMatS0=      1 NMatT0=    0 NMatD0=    1 NMtDS0=    0 NMtDT0=    0
 Symmetry not used in FoFCou.
 Leave Link  703 at Wed May 26 08:25:18 2021, MaxMem=  2147483648 cpu:         8.5
 (Enter /opt/cluster/programs/g09_d.01/g09/l716.exe)
 Dipole        = 3.14650427D-01 8.93565547D-01 9.34322366D-01
 ***** Axes restored to original set *****
 -------------------------------------------------------------------
 Center     Atomic                   Forces (Hartrees/Bohr)
 Number     Number              X              Y              Z
 -------------------------------------------------------------------
      1        6           0.007526870    0.008139926    0.000159204
      2        6          -0.017161942    0.008335854    0.006271347
      3        1          -0.001498652   -0.000107229    0.001810050
      4        1          -0.003295756   -0.002953964   -0.001048855
      5        1          -0.002079928   -0.003417818    0.002672209
      6        6           0.003217000    0.012313814   -0.005793989
      7        8          -0.000765200    0.002385405   -0.007831163
      8        6           0.016306793    0.031260275   -0.006333694
      9        1           0.001065993   -0.007347138    0.001536387
     10        1          -0.001269238   -0.006081292   -0.000132088
     11        9          -0.014682038   -0.012224846    0.031681960
     12        9           0.032077431   -0.015081487   -0.001728321
     13        9          -0.019441332   -0.015221501   -0.021263048
 -------------------------------------------------------------------
 Cartesian Forces:  Max     0.032077431 RMS     0.012308076
 Leave Link  716 at Wed May 26 08:25:18 2021, MaxMem=  2147483648 cpu:         0.2
 (Enter /opt/cluster/programs/g09_d.01/g09/l103.exe)

 GradGradGradGradGradGradGradGradGradGradGradGradGradGradGradGradGradGrad
 Berny optimization.
 FormGI is forming the generalized inverse of G from B-inverse, IUseBI=4.
 Internal  Forces:  Max     0.036848127 RMS     0.009720734
 Search for a local minimum.
 Step number   1 out of a maximum of   64 on scan point     1 out of    18
 All quantities printed in internal units (Hartrees-Bohrs-Radians)
 RMS Force = .98118D-02 SwitMx=.10000D-02 MixMth= 1
 Mixed Optimization -- RFO/linear search
 Second derivative matrix not updated -- first step.
 ITU=  0
     Eigenvalues ---    0.00665   0.00740   0.00796   0.03583   0.05636
     Eigenvalues ---    0.07350   0.07498   0.08443   0.08919   0.09042
     Eigenvalues ---    0.11262   0.16000   0.16000   0.16000   0.21878
     Eigenvalues ---    0.24991   0.25000   0.25000   0.25000   0.25000
     Eigenvalues ---    0.31590   0.32464   0.32616   0.34282   0.34313
     Eigenvalues ---    0.34409   0.34476   0.34629   0.54197   0.54811
     Eigenvalues ---    0.55638   0.908221000.000001000.000001000.00000
     Eigenvalues --- 1000.000001000.000001000.000001000.000001000.00000
     Eigenvalues --- 1000.000001000.000001000.000001000.000001000.00000
     Eigenvalues --- 1000.000001000.000001000.000001000.000001000.00000
     Eigenvalues --- 1000.000001000.000001000.000001000.00000
 RFO step:  Lambda=-1.28798541D-02 EMin= 6.65101471D-03
 Linear search not attempted -- first point.
 Iteration  1 RMS(Cart)=  0.07686821 RMS(Int)=  0.00162863
 Iteration  2 RMS(Cart)=  0.00212482 RMS(Int)=  0.00075671
 Iteration  3 RMS(Cart)=  0.00000727 RMS(Int)=  0.00075670
 Iteration  4 RMS(Cart)=  0.00000002 RMS(Int)=  0.00075670
 Iteration  1 RMS(Cart)=  0.00005023 RMS(Int)=  0.00002942
 Iteration  2 RMS(Cart)=  0.00003068 RMS(Int)=  0.00003274
 Iteration  3 RMS(Cart)=  0.00001873 RMS(Int)=  0.00003741
 Iteration  4 RMS(Cart)=  0.00001144 RMS(Int)=  0.00004093
 Iteration  5 RMS(Cart)=  0.00000699 RMS(Int)=  0.00004327
 Iteration  6 RMS(Cart)=  0.00000427 RMS(Int)=  0.00004475
 Iteration  7 RMS(Cart)=  0.00000261 RMS(Int)=  0.00004568
 Iteration  8 RMS(Cart)=  0.00000159 RMS(Int)=  0.00004625
 Iteration  9 RMS(Cart)=  0.00000097 RMS(Int)=  0.00004660
 ITry= 1 IFail=0 DXMaxC= 1.97D-01 DCOld= 1.00D+10 DXMaxT= 3.00D-01 DXLimC= 3.00D+00 Rises=F
 Variable       Old X    -DE/DX   Delta X   Delta X   Delta X     New X
                                 (Linear)    (Quad)   (Total)
    R1        2.84900   0.00326   0.00000   0.00990   0.00990   2.85890
    R2        2.06281   0.00135   0.00000   0.00376   0.00376   2.06657
    R3        2.06645  -0.00059   0.00000  -0.00166  -0.00166   2.06479
    R4        2.06534  -0.00011   0.00000  -0.00031  -0.00031   2.06503
    R5        2.83303   0.02057   0.00000   0.06093   0.06093   2.89396
    R6        2.32557   0.00726   0.00000   0.00788   0.00788   2.33345
    R7        2.83031   0.01142   0.00000   0.03369   0.03369   2.86401
    R8        2.06857  -0.00163   0.00000  -0.00459  -0.00459   2.06399
    R9        2.06805  -0.00185   0.00000  -0.00520  -0.00520   2.06285
   R10        2.55300   0.03685   0.00000   0.06568   0.06568   2.61868
   R11        2.55853   0.03538   0.00000   0.06377   0.06377   2.62229
   R12        2.54569   0.03249   0.00000   0.05707   0.05707   2.60276
    A1        1.91447   0.00057   0.00000  -0.00461  -0.00466   1.90981
    A2        1.90441  -0.00046   0.00000  -0.00099  -0.00135   1.90306
    A3        1.92768   0.00510   0.00000   0.03565   0.03538   1.96306
    A4        1.91980  -0.00285   0.00000  -0.02899  -0.02914   1.89066
    A5        1.91315  -0.00363   0.00000  -0.02413  -0.02411   1.88904
    A6        1.88412   0.00127   0.00000   0.02333   0.02278   1.90690
    A7        2.06244   0.00381   0.00000   0.01476   0.01455   2.07699
    A8        2.10832   0.00195   0.00000   0.00766   0.00745   2.11577
    A9        2.11216  -0.00575   0.00000  -0.02161  -0.02182   2.09034
   A10        1.90468   0.01840   0.00000   0.08105   0.08176   1.98644
   A11        1.90803  -0.00150   0.00000   0.02058   0.02212   1.93015
   A12        1.90179  -0.00450   0.00000  -0.00654  -0.00520   1.89659
   A13        1.94302  -0.01043   0.00000  -0.06618  -0.06804   1.87498
   A14        1.93451  -0.00785   0.00000  -0.05182  -0.05278   1.88173
   A15        1.87113   0.00558   0.00000   0.02290   0.02022   1.89135
   A16        1.94598   0.00354   0.00000   0.01152   0.01133   1.95731
   A17        1.91928   0.00506   0.00000   0.02527   0.02511   1.94438
   A18        1.96396  -0.00187   0.00000  -0.01132  -0.01130   1.95266
   A19        1.86847  -0.00276   0.00000  -0.00237  -0.00272   1.86576
   A20        1.88773  -0.00316   0.00000  -0.02276  -0.02278   1.86495
   A21        1.87452  -0.00113   0.00000  -0.00094  -0.00089   1.87363
    D1       -1.69837  -0.00109   0.00000  -0.02140  -0.02143  -1.71980
    D2        1.41883  -0.00034   0.00000   0.01628   0.01645   1.43529
    D3        2.48067   0.00235   0.00000   0.01761   0.01766   2.49832
    D4       -0.68531   0.00309   0.00000   0.05528   0.05554  -0.62977
    D5        0.41222  -0.00197   0.00000  -0.03159  -0.03192   0.38030
    D6       -2.75376  -0.00122   0.00000   0.00608   0.00597  -2.74779
    D7        1.39248  -0.00029   0.00000   0.00000   0.00000   1.39248
    D8       -0.73638   0.00191   0.00000   0.01754   0.01644  -0.71994
    D9       -2.77616  -0.00139   0.00000  -0.01781  -0.01773  -2.79389
   D10       -1.72467  -0.00115   0.00000  -0.03819  -0.03774  -1.76241
   D11        2.42966   0.00104   0.00000  -0.02065  -0.02131   2.40835
   D12        0.38988  -0.00226   0.00000  -0.05600  -0.05548   0.33440
   D13       -1.04686   0.00065   0.00000  -0.00210  -0.00173  -1.04859
   D14       -3.11657  -0.00141   0.00000  -0.02272  -0.02255  -3.13912
   D15        1.07779  -0.00221   0.00000  -0.03141  -0.03112   1.04667
   D16        1.06074   0.00431   0.00000   0.03504   0.03362   1.09436
   D17       -1.00897   0.00225   0.00000   0.01442   0.01281  -0.99616
   D18       -3.09780   0.00145   0.00000   0.00573   0.00424  -3.09356
   D19       -3.14136  -0.00068   0.00000  -0.01372  -0.01240   3.12943
   D20        1.07212  -0.00274   0.00000  -0.03434  -0.03322   1.03890
   D21       -1.01671  -0.00354   0.00000  -0.04303  -0.04178  -1.05850
         Item               Value     Threshold  Converged?
 Maximum Force            0.036848     0.000450     NO 
 RMS     Force            0.009812     0.000300     NO 
 Maximum Displacement     0.197018     0.001800     NO 
 RMS     Displacement     0.077929     0.001200     NO 
 Predicted change in Energy=-6.745346D-03
 Lowest energy point so far.  Saving SCF results.
 GradGradGradGradGradGradGradGradGradGradGradGradGradGradGradGradGradGrad

 Leave Link  103 at Wed May 26 08:25:18 2021, MaxMem=  2147483648 cpu:         0.1
 (Enter /opt/cluster/programs/g09_d.01/g09/l202.exe)
                          Input orientation:                          
 ---------------------------------------------------------------------
 Center     Atomic      Atomic             Coordinates (Angstroms)
 Number     Number       Type             X           Y           Z
 ---------------------------------------------------------------------
      1          6           0       -3.113094    1.517706    1.381816
      2          6           0       -2.531155    1.314913    0.000157
      3          1           0       -3.759028    0.671527    1.632165
      4          1           0       -3.720675    2.425838    1.382861
      5          1           0       -2.342158    1.598976    2.152009
      6          6           0       -1.112398    0.753983   -0.132974
      7          8           0       -3.172929    1.606079   -1.013797
      8          6           0       -1.031049   -0.750303    0.032707
      9          1           0       -0.450980    1.201414    0.612188
     10          1           0       -0.730367    1.001853   -1.125057
     11          9           0       -1.482544   -1.164101    1.275776
     12          9           0        0.274258   -1.203892   -0.093882
     13          9           0       -1.788879   -1.411994   -0.907969
 ---------------------------------------------------------------------
                    Distance matrix (angstroms):
                    1          2          3          4          5
     1  C    0.000000
     2  C    1.512865   0.000000
     3  H    1.093584   2.141277   0.000000
     4  H    1.092638   2.135646   1.772351   0.000000
     5  H    1.092769   2.178733   1.771418   1.782021   0.000000
     6  C    2.623099   1.531417   3.182321   3.449053   2.729005
     7  O    2.397989   1.234809   2.866708   2.591524   3.273004
     8  C    3.361379   2.552743   3.467237   4.375485   3.424844
     9  H    2.789125   2.171311   3.502044   3.575480   2.470963
    10  H    3.496842   2.146381   4.109037   4.154435   3.700485
    11  F    3.140387   2.978642   2.946002   4.231827   3.023461
    12  F    4.589001   3.771414   4.771146   5.595998   4.443616
    13  F    3.947126   2.968449   3.830774   4.869157   4.328455
                    6          7          8          9         10
     6  C    0.000000
     7  O    2.397438   0.000000
     8  C    1.515567   3.351918   0.000000
     9  H    1.092215   3.196339   2.116950   0.000000
    10  H    1.091612   2.518647   2.121528   1.770848   0.000000
    11  F    2.408450   3.971580   1.385748   2.664608   3.319809
    12  F    2.399503   4.541506   1.387658   2.609598   2.633990
    13  F    2.397853   3.321982   1.377321   3.306169   2.644662
                   11         12         13
    11  F    0.000000
    12  F    2.227981   0.000000
    13  F    2.219017   2.227684   0.000000
 Stoichiometry    C4H5F3O
 Framework group  C1[X(C4H5F3O)]
 Deg. of freedom    33
 Full point group                 C1      NOp   1
 RotChk:  IX=0 Diff= 3.48D-02
 Largest Abelian subgroup         C1      NOp   1
 Largest concise Abelian subgroup C1      NOp   1
                         Standard orientation:                         
 ---------------------------------------------------------------------
 Center     Atomic      Atomic             Coordinates (Angstroms)
 Number     Number       Type             X           Y           Z
 ---------------------------------------------------------------------
      1          6           0        2.113247    1.131223   -0.032020
      2          6           0        1.482400   -0.224669    0.196778
      3          1           0        1.908463    1.459690   -1.054810
      4          1           0        3.195564    1.046128    0.091300
      5          1           0        1.730956    1.890974    0.654110
      6          6           0        0.128044   -0.303121    0.907274
      7          8           0        2.045703   -1.262100   -0.165409
      8          6           0       -1.053132    0.003720    0.008600
      9          1           0        0.092516    0.397095    1.744752
     10          1           0       -0.003401   -1.313832    1.298175
     11          9           0       -0.984306    1.279883   -0.527092
     12          9           0       -2.252111   -0.078437    0.702353
     13          9           0       -1.131703   -0.871020   -1.052376
 ---------------------------------------------------------------------
 Rotational constants (GHZ):      3.3884627      1.3711081      1.2254598
 Leave Link  202 at Wed May 26 08:25:19 2021, MaxMem=  2147483648 cpu:         0.0
 (Enter /opt/cluster/programs/g09_d.01/g09/l301.exe)
 Standard basis: 6-31+G (6D, 7F)
 Ernie: Thresh=  0.10000D-02 Tol=  0.10000D-05 Strict=F.
 There are   114 symmetry adapted cartesian basis functions of A   symmetry.
 There are   114 symmetry adapted basis functions of A   symmetry.
   114 basis functions,   228 primitive gaussians,   114 cartesian basis functions
    32 alpha electrons       32 beta electrons
       nuclear repulsion energy       404.3554572946 Hartrees.
 IExCor= 4639 DFT=T Ex+Corr=wB97XD ExCW=0 ScaHFX=  1.000000
 ScaDFX=  1.000000  1.000000  1.000000  1.000000 ScalE2=  1.000000  1.000000
 IRadAn=      0 IRanWt=     -1 IRanGd=            0 ICorTp=0 IEmpDi=121
  HFx wShort=  0.000000 wLong=  0.200000 cFull=  0.222036 cShort=  0.000000 cLong=  0.777964
  DFx wShort=  0.000000 wLong=  0.200000 cFull=  0.000000 cShort=  0.000000 cLong=  1.000000
 NAtoms=   13 NActive=   13 NUniq=   13 SFac= 1.00D+00 NAtFMM=   60 NAOKFM=F Big=F
 Integral buffers will be    131072 words long.
 Raffenetti 2 integral format.
 Two-electron integral symmetry is turned on.
 R6Disp:  Grimme-D2 Dispersion energy=       -0.0060271947 Hartrees.
 Nuclear repulsion after empirical dispersion term =      404.3494301000 Hartrees.
 Leave Link  301 at Wed May 26 08:25:19 2021, MaxMem=  2147483648 cpu:         0.3
 (Enter /opt/cluster/programs/g09_d.01/g09/l302.exe)
 NPDir=0 NMtPBC=     1 NCelOv=     1 NCel=       1 NClECP=     1 NCelD=      1
         NCelK=      1 NCelE2=     1 NClLst=     1 CellRange=     0.0.
 One-electron integrals computed using PRISM.
 NBasis=   114 RedAO= T EigKep=  9.87D-05  NBF=   114
 NBsUse=   114 1.00D-06 EigRej= -1.00D+00 NBFU=   114
 Precomputing XC quadrature grid using
 IXCGrd= 4 IRadAn=           0 IRanWt=          -1 IRanGd=           0 AccXCQ= 0.00D+00.
 Generated NRdTot=       0 NPtTot=           0 NUsed=           0 NTot=          32
 NSgBfM=   114   114   114   114   114 MxSgAt=    13 MxSgA2=    13.
 Leave Link  302 at Wed May 26 08:25:19 2021, MaxMem=  2147483648 cpu:         1.0
 (Enter /opt/cluster/programs/g09_d.01/g09/l303.exe)
 DipDrv:  MaxL=1.
 Leave Link  303 at Wed May 26 08:25:19 2021, MaxMem=  2147483648 cpu:         0.3
 (Enter /opt/cluster/programs/g09_d.01/g09/l401.exe)
 Initial guess from the checkpoint file:  "/home/unibas/boittier/RDKit_G2/N.pdb/SCAN_1_2_6_8_S_17_20.0/N.pdb.chk"
 B after Tr=     0.000000    0.000000    0.000000
         Rot=    0.999890   -0.014200   -0.002976   -0.002942 Ang=  -1.70 deg.
 Guess basis will be translated and rotated to current coordinates.
 JPrj=2 DoOrth=T DoCkMO=T.
 Generating alternative initial guess.
 ExpMin= 4.38D-02 ExpMax= 7.00D+03 ExpMxC= 1.05D+03 IAcc=2 IRadAn=         4 AccDes= 0.00D+00
 Harris functional with IExCor= 4639 and IRadAn=       4 diagonalized for initial guess.
 HarFok:  IExCor= 4639 AccDes= 0.00D+00 IRadAn=         4 IDoV= 1 UseB2=F ITyADJ=14
 ICtDFT=  3500011 ScaDFX=  1.000000  1.000000  1.000000  1.000000
 FoFCou: FMM=F IPFlag=           0 FMFlag=      100000 FMFlg1=           0
         NFxFlg=           0 DoJE=T BraDBF=F KetDBF=T FulRan=T
         wScrn=  0.000000 ICntrl=     500 IOpCl=  0 I1Cent=   200000004 NGrid=           0
         NMat0=    1 NMatS0=      1 NMatT0=    0 NMatD0=    1 NMtDS0=    0 NMtDT0=    0
 Petite list used in FoFCou.
 Harris En= -511.188491835843    
 Leave Link  401 at Wed May 26 08:25:19 2021, MaxMem=  2147483648 cpu:         2.5
 (Enter /opt/cluster/programs/g09_d.01/g09/l502.exe)
 Closed shell SCF:
 Using DIIS extrapolation, IDIIS=  1040.
 Integral symmetry usage will be decided dynamically.
 Keep R1 ints in memory in canonical form, NReq=43969700.
 IVT=       59316 IEndB=       59316 NGot=  2147483648 MDV=  2104449753
 LenX=  2104449753 LenY=  2104436316
 Requested convergence on RMS density matrix=1.00D-08 within 128 cycles.
 Requested convergence on MAX density matrix=1.00D-06.
 Requested convergence on             energy=1.00D-06.
 No special actions if energy rises.
 FoFCou: FMM=F IPFlag=           0 FMFlag=           0 FMFlg1=           0
         NFxFlg=           0 DoJE=F BraDBF=F KetDBF=F FulRan=T
         wScrn=  0.000000 ICntrl=     600 IOpCl=  0 I1Cent=           0 NGrid=           0
         NMat0=    1 NMatS0=   6555 NMatT0=    0 NMatD0=    1 NMtDS0=    0 NMtDT0=    0
 Symmetry not used in FoFCou.

 Cycle   1  Pass 1  IDiag  1:
 E= -529.917283696313    
 DIIS: error= 3.61D-03 at cycle   1 NSaved=   1.
 NSaved= 1 IEnMin= 1 EnMin= -529.917283696313     IErMin= 1 ErrMin= 3.61D-03
 ErrMax= 3.61D-03  0.00D+00 EMaxC= 1.00D-01 BMatC= 4.62D-03 BMatP= 4.62D-03
 IDIUse=3 WtCom= 9.64D-01 WtEn= 3.61D-02
 Coeff-Com:  0.100D+01
 Coeff-En:   0.100D+01
 Coeff:      0.100D+01
 Gap=     0.640 Goal=   None    Shift=    0.000
 GapD=    0.640 DampG=2.000 DampE=1.000 DampFc=2.0000 IDamp=-1.
 RMSDP=2.23D-03 MaxDP=5.57D-02              OVMax= 1.91D-02

 Cycle   2  Pass 1  IDiag  1:
 E= -529.924334674745     Delta-E=       -0.007050978432 Rises=F Damp=F
 DIIS: error= 1.15D-03 at cycle   2 NSaved=   2.
 NSaved= 2 IEnMin= 2 EnMin= -529.924334674745     IErMin= 2 ErrMin= 1.15D-03
 ErrMax= 1.15D-03  0.00D+00 EMaxC= 1.00D-01 BMatC= 2.98D-04 BMatP= 4.62D-03
 IDIUse=3 WtCom= 9.89D-01 WtEn= 1.15D-02
 Coeff-Com: -0.384D-01 0.104D+01
 Coeff-En:   0.000D+00 0.100D+01
 Coeff:     -0.380D-01 0.104D+01
 Gap=     0.372 Goal=   None    Shift=    0.000
 RMSDP=5.96D-04 MaxDP=1.55D-02 DE=-7.05D-03 OVMax= 7.96D-03

 Cycle   3  Pass 1  IDiag  1:
 E= -529.924647579741     Delta-E=       -0.000312904995 Rises=F Damp=F
 DIIS: error= 1.26D-03 at cycle   3 NSaved=   3.
 NSaved= 3 IEnMin= 3 EnMin= -529.924647579741     IErMin= 2 ErrMin= 1.15D-03
 ErrMax= 1.26D-03  0.00D+00 EMaxC= 1.00D-01 BMatC= 3.15D-04 BMatP= 2.98D-04
 IDIUse=3 WtCom= 9.87D-01 WtEn= 1.26D-02
 Coeff-Com: -0.814D-01 0.562D+00 0.519D+00
 Coeff-En:   0.000D+00 0.000D+00 0.100D+01
 Coeff:     -0.804D-01 0.555D+00 0.525D+00
 Gap=     0.375 Goal=   None    Shift=    0.000
 RMSDP=3.88D-04 MaxDP=1.39D-02 DE=-3.13D-04 OVMax= 5.25D-03

 Cycle   4  Pass 1  IDiag  1:
 E= -529.924891321001     Delta-E=       -0.000243741261 Rises=F Damp=F
 DIIS: error= 3.15D-04 at cycle   4 NSaved=   4.
 NSaved= 4 IEnMin= 4 EnMin= -529.924891321001     IErMin= 4 ErrMin= 3.15D-04
 ErrMax= 3.15D-04  0.00D+00 EMaxC= 1.00D-01 BMatC= 2.25D-05 BMatP= 2.98D-04
 IDIUse=3 WtCom= 9.97D-01 WtEn= 3.15D-03
 Coeff-Com: -0.324D-01 0.109D+00 0.229D+00 0.695D+00
 Coeff-En:   0.000D+00 0.000D+00 0.000D+00 0.100D+01
 Coeff:     -0.323D-01 0.109D+00 0.228D+00 0.696D+00
 Gap=     0.375 Goal=   None    Shift=    0.000
 RMSDP=1.08D-04 MaxDP=2.85D-03 DE=-2.44D-04 OVMax= 1.93D-03

 Cycle   5  Pass 1  IDiag  1:
 E= -529.924914437575     Delta-E=       -0.000023116574 Rises=F Damp=F
 DIIS: error= 1.41D-04 at cycle   5 NSaved=   5.
 NSaved= 5 IEnMin= 5 EnMin= -529.924914437575     IErMin= 5 ErrMin= 1.41D-04
 ErrMax= 1.41D-04  0.00D+00 EMaxC= 1.00D-01 BMatC= 2.40D-06 BMatP= 2.25D-05
 IDIUse=3 WtCom= 9.99D-01 WtEn= 1.41D-03
 Coeff-Com:  0.111D-02-0.427D-01 0.550D-02 0.235D+00 0.801D+00
 Coeff-En:   0.000D+00 0.000D+00 0.000D+00 0.000D+00 0.100D+01
 Coeff:      0.110D-02-0.427D-01 0.549D-02 0.235D+00 0.801D+00
 Gap=     0.375 Goal=   None    Shift=    0.000
 RMSDP=4.13D-05 MaxDP=1.24D-03 DE=-2.31D-05 OVMax= 1.36D-03

 Cycle   6  Pass 1  IDiag  1:
 E= -529.924918678636     Delta-E=       -0.000004241061 Rises=F Damp=F
 DIIS: error= 6.32D-05 at cycle   6 NSaved=   6.
 NSaved= 6 IEnMin= 6 EnMin= -529.924918678636     IErMin= 6 ErrMin= 6.32D-05
 ErrMax= 6.32D-05  0.00D+00 EMaxC= 1.00D-01 BMatC= 7.27D-07 BMatP= 2.40D-06
 IDIUse=1 WtCom= 1.00D+00 WtEn= 0.00D+00
 Coeff-Com:  0.578D-02-0.398D-01-0.317D-01 0.905D-02 0.408D+00 0.648D+00
 Coeff:      0.578D-02-0.398D-01-0.317D-01 0.905D-02 0.408D+00 0.648D+00
 Gap=     0.375 Goal=   None    Shift=    0.000
 RMSDP=1.88D-05 MaxDP=3.32D-04 DE=-4.24D-06 OVMax= 7.30D-04

 Cycle   7  Pass 1  IDiag  1:
 E= -529.924919889806     Delta-E=       -0.000001211170 Rises=F Damp=F
 DIIS: error= 4.07D-05 at cycle   7 NSaved=   7.
 NSaved= 7 IEnMin= 7 EnMin= -529.924919889806     IErMin= 7 ErrMin= 4.07D-05
 ErrMax= 4.07D-05  0.00D+00 EMaxC= 1.00D-01 BMatC= 5.07D-08 BMatP= 7.27D-07
 IDIUse=1 WtCom= 1.00D+00 WtEn= 0.00D+00
 Coeff-Com: -0.118D-02 0.148D-01 0.371D-02-0.527D-01-0.220D+00-0.887D-01
 Coeff-Com:  0.134D+01
 Coeff:     -0.118D-02 0.148D-01 0.371D-02-0.527D-01-0.220D+00-0.887D-01
 Coeff:      0.134D+01
 Gap=     0.375 Goal=   None    Shift=    0.000
 RMSDP=1.74D-05 MaxDP=3.29D-04 DE=-1.21D-06 OVMax= 7.96D-04

 Cycle   8  Pass 1  IDiag  1:
 E= -529.924920299735     Delta-E=       -0.000000409929 Rises=F Damp=F
 DIIS: error= 1.30D-05 at cycle   8 NSaved=   8.
 NSaved= 8 IEnMin= 8 EnMin= -529.924920299735     IErMin= 8 ErrMin= 1.30D-05
 ErrMax= 1.30D-05  0.00D+00 EMaxC= 1.00D-01 BMatC= 7.54D-09 BMatP= 5.07D-08
 IDIUse=1 WtCom= 1.00D+00 WtEn= 0.00D+00
 Coeff-Com: -0.818D-03 0.750D-02 0.356D-02-0.134D-01-0.902D-01-0.782D-01
 Coeff-Com:  0.300D+00 0.872D+00
 Coeff:     -0.818D-03 0.750D-02 0.356D-02-0.134D-01-0.902D-01-0.782D-01
 Coeff:      0.300D+00 0.872D+00
 Gap=     0.375 Goal=   None    Shift=    0.000
 RMSDP=4.50D-06 MaxDP=8.21D-05 DE=-4.10D-07 OVMax= 2.06D-04

 Cycle   9  Pass 1  IDiag  1:
 E= -529.924920336146     Delta-E=       -0.000000036411 Rises=F Damp=F
 DIIS: error= 4.91D-06 at cycle   9 NSaved=   9.
 NSaved= 9 IEnMin= 9 EnMin= -529.924920336146     IErMin= 9 ErrMin= 4.91D-06
 ErrMax= 4.91D-06  0.00D+00 EMaxC= 1.00D-01 BMatC= 2.47D-09 BMatP= 7.54D-09
 IDIUse=1 WtCom= 1.00D+00 WtEn= 0.00D+00
 Coeff-Com:  0.367D-04-0.165D-02 0.278D-03 0.113D-01 0.309D-01-0.547D-02
 Coeff-Com: -0.283D+00 0.349D+00 0.899D+00
 Coeff:      0.367D-04-0.165D-02 0.278D-03 0.113D-01 0.309D-01-0.547D-02
 Coeff:     -0.283D+00 0.349D+00 0.899D+00
 Gap=     0.375 Goal=   None    Shift=    0.000
 RMSDP=2.61D-06 MaxDP=4.63D-05 DE=-3.64D-08 OVMax= 1.16D-04

 Cycle  10  Pass 1  IDiag  1:
 E= -529.924920344847     Delta-E=       -0.000000008701 Rises=F Damp=F
 DIIS: error= 1.12D-06 at cycle  10 NSaved=  10.
 NSaved=10 IEnMin=10 EnMin= -529.924920344847     IErMin=10 ErrMin= 1.12D-06
 ErrMax= 1.12D-06  0.00D+00 EMaxC= 1.00D-01 BMatC= 2.36D-10 BMatP= 2.47D-09
 IDIUse=1 WtCom= 1.00D+00 WtEn= 0.00D+00
 Coeff-Com:  0.953D-04-0.129D-02-0.274D-03 0.476D-02 0.202D-01 0.727D-02
 Coeff-Com: -0.123D+00 0.509D-02 0.283D+00 0.804D+00
 Coeff:      0.953D-04-0.129D-02-0.274D-03 0.476D-02 0.202D-01 0.727D-02
 Coeff:     -0.123D+00 0.509D-02 0.283D+00 0.804D+00
 Gap=     0.375 Goal=   None    Shift=    0.000
 RMSDP=6.31D-07 MaxDP=1.62D-05 DE=-8.70D-09 OVMax= 2.52D-05

 Cycle  11  Pass 1  IDiag  1:
 E= -529.924920345457     Delta-E=       -0.000000000610 Rises=F Damp=F
 DIIS: error= 2.87D-07 at cycle  11 NSaved=  11.
 NSaved=11 IEnMin=11 EnMin= -529.924920345457     IErMin=11 ErrMin= 2.87D-07
 ErrMax= 2.87D-07  0.00D+00 EMaxC= 1.00D-01 BMatC= 2.35D-11 BMatP= 2.36D-10
 IDIUse=1 WtCom= 1.00D+00 WtEn= 0.00D+00
 Coeff-Com:  0.145D-04-0.319D-04-0.110D-03-0.767D-03-0.595D-03 0.248D-02
 Coeff-Com:  0.193D-01-0.571D-01-0.836D-01 0.185D+00 0.935D+00
 Coeff:      0.145D-04-0.319D-04-0.110D-03-0.767D-03-0.595D-03 0.248D-02
 Coeff:      0.193D-01-0.571D-01-0.836D-01 0.185D+00 0.935D+00
 Gap=     0.375 Goal=   None    Shift=    0.000
 RMSDP=2.53D-07 MaxDP=9.02D-06 DE=-6.10D-10 OVMax= 7.37D-06

 Cycle  12  Pass 1  IDiag  1:
 E= -529.924920345514     Delta-E=       -0.000000000058 Rises=F Damp=F
 DIIS: error= 5.33D-08 at cycle  12 NSaved=  12.
 NSaved=12 IEnMin=12 EnMin= -529.924920345514     IErMin=12 ErrMin= 5.33D-08
 ErrMax= 5.33D-08  0.00D+00 EMaxC= 1.00D-01 BMatC= 7.52D-13 BMatP= 2.35D-11
 IDIUse=1 WtCom= 1.00D+00 WtEn= 0.00D+00
 Coeff-Com: -0.385D-05 0.733D-04 0.170D-05-0.349D-03-0.131D-02-0.736D-04
 Coeff-Com:  0.944D-02-0.674D-02-0.260D-01-0.268D-01 0.105D+00 0.947D+00
 Coeff:     -0.385D-05 0.733D-04 0.170D-05-0.349D-03-0.131D-02-0.736D-04
 Coeff:      0.944D-02-0.674D-02-0.260D-01-0.268D-01 0.105D+00 0.947D+00
 Gap=     0.375 Goal=   None    Shift=    0.000
 RMSDP=3.50D-08 MaxDP=6.86D-07 DE=-5.75D-11 OVMax= 7.93D-07

 Cycle  13  Pass 1  IDiag  1:
 E= -529.924920345517     Delta-E=       -0.000000000002 Rises=F Damp=F
 DIIS: error= 2.31D-08 at cycle  13 NSaved=  13.
 NSaved=13 IEnMin=13 EnMin= -529.924920345517     IErMin=13 ErrMin= 2.31D-08
 ErrMax= 2.31D-08  0.00D+00 EMaxC= 1.00D-01 BMatC= 7.68D-14 BMatP= 7.52D-13
 IDIUse=1 WtCom= 1.00D+00 WtEn= 0.00D+00
 Coeff-Com: -0.194D-05 0.205D-04 0.734D-05-0.448D-04-0.296D-03-0.174D-03
 Coeff-Com:  0.129D-02 0.145D-02-0.172D-02-0.168D-01-0.259D-01 0.224D+00
 Coeff-Com:  0.818D+00
 Coeff:     -0.194D-05 0.205D-04 0.734D-05-0.448D-04-0.296D-03-0.174D-03
 Coeff:      0.129D-02 0.145D-02-0.172D-02-0.168D-01-0.259D-01 0.224D+00
 Coeff:      0.818D+00
 Gap=     0.375 Goal=   None    Shift=    0.000
 RMSDP=7.15D-09 MaxDP=1.00D-07 DE=-2.16D-12 OVMax= 1.38D-07

 SCF Done:  E(RwB97XD) =  -529.924920346     A.U. after   13 cycles
            NFock= 13  Conv=0.72D-08     -V/T= 2.0052
 KE= 5.271958707400D+02 PE=-2.059054521965D+03 EE= 5.975843007796D+02
 Leave Link  502 at Wed May 26 08:25:23 2021, MaxMem=  2147483648 cpu:        27.6
 (Enter /opt/cluster/programs/g09_d.01/g09/l701.exe)
 Compute integral first derivatives.
 ... and contract with generalized density number  0.
 R6Disp: Adding Grimme-D2 dispersion energy 1st derivatives to the gradient.
 Leave Link  701 at Wed May 26 08:25:23 2021, MaxMem=  2147483648 cpu:         0.6
 (Enter /opt/cluster/programs/g09_d.01/g09/l702.exe)
 L702 exits ... SP integral derivatives will be done elsewhere.
 Leave Link  702 at Wed May 26 08:25:23 2021, MaxMem=  2147483648 cpu:         0.2
 (Enter /opt/cluster/programs/g09_d.01/g09/l703.exe)
 Compute integral first derivatives, UseDBF=F ICtDFT=           0.
 Integral derivatives from FoFJK, PRISM(SPDF).
 Calling FoFJK, ICntrl=      2127 FMM=F ISym2X=0 I1Cent= 0 IOpClX= 0 NMat=1 NMatS=1 NMatT=0.
 FoFJK:  IHMeth= 1 ICntrl=    2127 DoSepK=T KAlg= 0 I1Cent=   0 FoldK=F
 IRaf=         1 NMat=   1 IRICut=       1 DoRegI=T DoRafI=F ISym2E= 0.
 FoFCou: FMM=F IPFlag=           0 FMFlag=      100000 FMFlg1=         800
         NFxFlg=           0 DoJE=F BraDBF=F KetDBF=F FulRan=T
         wScrn=  0.000000 ICntrl=    2527 IOpCl=  0 I1Cent=           0 NGrid=           0
         NMat0=    1 NMatS0=      1 NMatT0=    0 NMatD0=    1 NMtDS0=    0 NMtDT0=    0
 Symmetry not used in FoFCou.
 Leave Link  703 at Wed May 26 08:25:24 2021, MaxMem=  2147483648 cpu:         8.4
 (Enter /opt/cluster/programs/g09_d.01/g09/l716.exe)
 Dipole        = 4.29438935D-01 8.86911083D-01 9.23182615D-01
 ***** Axes restored to original set *****
 -------------------------------------------------------------------
 Center     Atomic                   Forces (Hartrees/Bohr)
 Number     Number              X              Y              Z
 -------------------------------------------------------------------
      1        6           0.004729700    0.001476256   -0.002355056
      2        6          -0.003595920    0.000913229    0.002299657
      3        1          -0.000673820   -0.001300320    0.000326353
      4        1          -0.001229985   -0.000925459   -0.000636377
      5        1          -0.000040820   -0.001288538   -0.000519542
      6        6           0.001526192   -0.003209739   -0.000304150
      7        8           0.003127116   -0.000399501    0.000939827
      8        6           0.000121012    0.012698506   -0.002052975
      9        1          -0.000159867    0.000073959    0.001462189
     10        1          -0.000913629   -0.000993052   -0.001006037
     11        9          -0.001690668   -0.002026801    0.006379575
     12        9           0.002024457   -0.000454933   -0.000031898
     13        9          -0.003223769   -0.004563606   -0.004501566
 -------------------------------------------------------------------
 Cartesian Forces:  Max     0.012698506 RMS     0.003011051
 Leave Link  716 at Wed May 26 08:25:24 2021, MaxMem=  2147483648 cpu:         0.2
 (Enter /opt/cluster/programs/g09_d.01/g09/l103.exe)

 GradGradGradGradGradGradGradGradGradGradGradGradGradGradGradGradGradGrad
 Berny optimization.
 Using GEDIIS/GDIIS optimizer.
 FormGI is forming the generalized inverse of G from B-inverse, IUseBI=4.
 Internal  Forces:  Max     0.007041419 RMS     0.002019301
 Search for a local minimum.
 Step number   2 out of a maximum of   64 on scan point     1 out of    18
 All quantities printed in internal units (Hartrees-Bohrs-Radians)
 RMS Force = .20173D-02 SwitMx=.10000D-02 MixMth= 1
 Mixed Optimization -- RFO/linear search
 Update second derivatives using D2CorX and points    1    2
 DE= -6.40D-03 DEPred=-6.75D-03 R= 9.49D-01
 TightC=F SS=  1.41D+00  RLast= 2.32D-01 DXNew= 5.0454D-01 6.9478D-01
 Trust test= 9.49D-01 RLast= 2.32D-01 DXMaxT set to 5.05D-01
 ITU=  1  0
 Use linear search instead of GDIIS.
     Eigenvalues ---    0.00664   0.00744   0.00797   0.03255   0.05761
     Eigenvalues ---    0.07029   0.07497   0.08568   0.08632   0.09492
     Eigenvalues ---    0.11851   0.15992   0.16000   0.16074   0.22604
     Eigenvalues ---    0.24665   0.24999   0.25000   0.25000   0.25552
     Eigenvalues ---    0.31479   0.32348   0.34232   0.34305   0.34408
     Eigenvalues ---    0.34467   0.34571   0.36051   0.47861   0.54827
     Eigenvalues ---    0.55446   0.912111000.000001000.000001000.00000
     Eigenvalues --- 1000.000001000.000001000.000001000.000001000.00000
     Eigenvalues --- 1000.000001000.000001000.000001000.000001000.00000
     Eigenvalues --- 1000.000001000.000001000.000001000.000001000.00000
     Eigenvalues --- 1000.000001000.000001000.000001000.00000
 RFO step:  Lambda=-7.94281657D-04 EMin= 6.64423975D-03
 Quartic linear search produced a step of  0.03336.
 Iteration  1 RMS(Cart)=  0.01944146 RMS(Int)=  0.00020977
 Iteration  2 RMS(Cart)=  0.00024140 RMS(Int)=  0.00006233
 Iteration  3 RMS(Cart)=  0.00000004 RMS(Int)=  0.00006233
 Iteration  1 RMS(Cart)=  0.00001615 RMS(Int)=  0.00000943
 Iteration  2 RMS(Cart)=  0.00000987 RMS(Int)=  0.00001049
 Iteration  3 RMS(Cart)=  0.00000604 RMS(Int)=  0.00001199
 Iteration  4 RMS(Cart)=  0.00000369 RMS(Int)=  0.00001312
 Iteration  5 RMS(Cart)=  0.00000226 RMS(Int)=  0.00001387
 Iteration  6 RMS(Cart)=  0.00000138 RMS(Int)=  0.00001435
 Iteration  7 RMS(Cart)=  0.00000084 RMS(Int)=  0.00001464
 ITry= 1 IFail=0 DXMaxC= 5.63D-02 DCOld= 1.00D+10 DXMaxT= 5.05D-01 DXLimC= 3.00D+00 Rises=F
 Variable       Old X    -DE/DX   Delta X   Delta X   Delta X     New X
                                 (Linear)    (Quad)   (Total)
    R1        2.85890  -0.00423   0.00033  -0.01360  -0.01327   2.84563
    R2        2.06657   0.00148   0.00013   0.00449   0.00462   2.07119
    R3        2.06479  -0.00009  -0.00006  -0.00031  -0.00036   2.06442
    R4        2.06503  -0.00048  -0.00001  -0.00145  -0.00146   2.06357
    R5        2.89396  -0.00271   0.00203  -0.00721  -0.00518   2.88878
    R6        2.33345  -0.00249   0.00026  -0.00266  -0.00240   2.33105
    R7        2.86401  -0.00579   0.00112  -0.01755  -0.01643   2.84758
    R8        2.06399   0.00092  -0.00015   0.00268   0.00253   2.06651
    R9        2.06285   0.00037  -0.00017   0.00101   0.00083   2.06368
   R10        2.61868   0.00687   0.00219   0.01441   0.01660   2.63528
   R11        2.62229   0.00206   0.00213   0.00534   0.00746   2.62976
   R12        2.60276   0.00704   0.00190   0.01433   0.01624   2.61900
    A1        1.90981  -0.00050  -0.00016  -0.00715  -0.00733   1.90248
    A2        1.90306   0.00013  -0.00005   0.00317   0.00308   1.90613
    A3        1.96306  -0.00042   0.00118  -0.00033   0.00079   1.96385
    A4        1.89066  -0.00035  -0.00097  -0.00613  -0.00712   1.88354
    A5        1.88904  -0.00019  -0.00080  -0.00609  -0.00692   1.88212
    A6        1.90690   0.00132   0.00076   0.01624   0.01692   1.92382
    A7        2.07699  -0.00216   0.00049  -0.00869  -0.00834   2.06865
    A8        2.11577   0.00339   0.00025   0.01399   0.01409   2.12987
    A9        2.09034  -0.00122  -0.00073  -0.00562  -0.00647   2.08388
   A10        1.98644  -0.00261   0.00273  -0.01394  -0.01124   1.97520
   A11        1.93015   0.00063   0.00074   0.00272   0.00348   1.93362
   A12        1.89659   0.00067  -0.00017  -0.00003  -0.00027   1.89632
   A13        1.87498   0.00009  -0.00227   0.00103  -0.00126   1.87373
   A14        1.88173   0.00082  -0.00176  -0.00489  -0.00677   1.87496
   A15        1.89135   0.00052   0.00067   0.01647   0.01705   1.90839
   A16        1.95731  -0.00030   0.00038  -0.00126  -0.00092   1.95639
   A17        1.94438  -0.00103   0.00084  -0.00592  -0.00509   1.93930
   A18        1.95266   0.00270  -0.00038   0.01339   0.01301   1.96566
   A19        1.86576  -0.00005  -0.00009  -0.00490  -0.00503   1.86073
   A20        1.86495  -0.00064  -0.00076   0.00094   0.00015   1.86510
   A21        1.87363  -0.00081  -0.00003  -0.00283  -0.00284   1.87079
    D1       -1.71980   0.00051  -0.00071   0.01953   0.01870  -1.70110
    D2        1.43529   0.00010   0.00055   0.04750   0.04816   1.48345
    D3        2.49832   0.00114   0.00059   0.02925   0.02975   2.52807
    D4       -0.62977   0.00074   0.00185   0.05722   0.05921  -0.57056
    D5        0.38030  -0.00035  -0.00106   0.00672   0.00552   0.38582
    D6       -2.74779  -0.00075   0.00020   0.03469   0.03498  -2.71281
    D7        1.39248  -0.00132   0.00000   0.00000  -0.00001   1.39248
    D8       -0.71994  -0.00007   0.00055   0.00646   0.00694  -0.71301
    D9       -2.79389  -0.00150  -0.00059  -0.01525  -0.01589  -2.80978
   D10       -1.76241  -0.00089  -0.00126  -0.02740  -0.02850  -1.79091
   D11        2.40835   0.00036  -0.00071  -0.02094  -0.02156   2.38679
   D12        0.33440  -0.00106  -0.00185  -0.04265  -0.04439   0.29001
   D13       -1.04859  -0.00043  -0.00006  -0.01243  -0.01248  -1.06107
   D14       -3.13912   0.00055  -0.00075  -0.00120  -0.00196  -3.14108
   D15        1.04667   0.00044  -0.00104  -0.00269  -0.00371   1.04296
   D16        1.09436  -0.00128   0.00112  -0.01738  -0.01629   1.07808
   D17       -0.99616  -0.00030   0.00043  -0.00615  -0.00576  -1.00193
   D18       -3.09356  -0.00041   0.00014  -0.00764  -0.00751  -3.10108
   D19        3.12943  -0.00020  -0.00041  -0.00011  -0.00050   3.12893
   D20        1.03890   0.00078  -0.00111   0.01112   0.01002   1.04893
   D21       -1.05850   0.00067  -0.00139   0.00963   0.00827  -1.05022
         Item               Value     Threshold  Converged?
 Maximum Force            0.007041     0.000450     NO 
 RMS     Force            0.002017     0.000300     NO 
 Maximum Displacement     0.056276     0.001800     NO 
 RMS     Displacement     0.019513     0.001200     NO 
 Predicted change in Energy=-4.018897D-04
 Lowest energy point so far.  Saving SCF results.
 GradGradGradGradGradGradGradGradGradGradGradGradGradGradGradGradGradGrad

 Leave Link  103 at Wed May 26 08:25:24 2021, MaxMem=  2147483648 cpu:         0.1
 (Enter /opt/cluster/programs/g09_d.01/g09/l202.exe)
                          Input orientation:                          
 ---------------------------------------------------------------------
 Center     Atomic      Atomic             Coordinates (Angstroms)
 Number     Number       Type             X           Y           Z
 ---------------------------------------------------------------------
      1          6           0       -3.102777    1.510746    1.376500
      2          6           0       -2.530445    1.314728   -0.002477
      3          1           0       -3.729248    0.647560    1.628926
      4          1           0       -3.738157    2.399411    1.379055
      5          1           0       -2.328931    1.597709    2.142041
      6          6           0       -1.112291    0.758942   -0.132053
      7          8           0       -3.152638    1.629748   -1.019954
      8          6           0       -1.044154   -0.737044    0.035441
      9          1           0       -0.451816    1.201680    0.618688
     10          1           0       -0.734886    0.993893   -1.129520
     11          9           0       -1.491632   -1.145096    1.291614
     12          9           0        0.263477   -1.196418   -0.089634
     13          9           0       -1.807502   -1.413859   -0.902629
 ---------------------------------------------------------------------
                    Distance matrix (angstroms):
                    1          2          3          4          5
     1  C    0.000000
     2  C    1.505844   0.000000
     3  H    1.096027   2.131601   0.000000
     4  H    1.092447   2.131605   1.769604   0.000000
     5  H    1.091995   2.172475   1.768321   1.791868   0.000000
     6  C    2.608252   1.528675   3.156251   3.445252   2.712056
     7  O    2.399925   1.233540   2.883356   2.586592   3.267680
     8  C    3.330004   2.533823   3.415560   4.347447   3.396982
     9  H    2.774418   2.172400   3.474075   3.579491   2.449696
    10  H    3.486285   2.144106   4.085974   4.157892   3.688996
    11  F    3.107490   2.967244   2.886922   4.197386   2.991200
    12  F    4.561793   3.757585   4.721818   5.576747   4.416797
    13  F    3.927529   2.962787   3.788315   4.845053   4.314098
                    6          7          8          9         10
     6  C    0.000000
     7  O    2.389496   0.000000
     8  C    1.506874   3.340848   0.000000
     9  H    1.093552   3.187920   2.109429   0.000000
    10  H    1.092052   2.502367   2.109247   1.783125   0.000000
    11  F    2.407507   3.975180   1.394530   2.653566   3.318107
    12  F    2.391227   4.530183   1.391607   2.600815   2.622128
    13  F    2.407939   3.329670   1.385913   3.315620   2.645611
                   11         12         13
    11  F    0.000000
    12  F    2.234030   0.000000
    13  F    2.233094   2.235441   0.000000
 Stoichiometry    C4H5F3O
 Framework group  C1[X(C4H5F3O)]
 Deg. of freedom    33
 Full point group                 C1      NOp   1
 RotChk:  IX=0 Diff= 1.43D-02
 Largest Abelian subgroup         C1      NOp   1
[...]
           R11          1.39081   1.38951   1.38975   1.39011   1.39036
           R12          1.39698   1.39630   1.39503   1.39428   1.39393
           A1         110.13827 111.18077 110.95611 110.69774 110.87805
           A2         109.64557 109.47516 109.12363 108.83273 108.74034
           A3         110.74669 110.11222 110.56650 111.01512 110.86883
           A4         109.48675 110.19640 109.99302 109.66435 109.58266
           A5         107.15960 107.00667 107.02953 107.09812 107.17678
           A6         109.62420 108.81562 109.13981 109.51187 109.57531
           A7         117.97075 118.56628 119.69558 120.97725 121.55083
           A8         122.71070 122.54520 122.34781 122.11263 122.02335
           A9         119.27366 118.83007 117.88496 116.87496 116.42582
           A10        113.84863 114.55862 116.32544 117.81715 118.39995
           A11        108.19642 107.90595 107.84532 107.81102 107.69638
           A12        110.60720 109.87790 108.68410 107.88281 107.69137
           A13        107.51289 107.97325 108.32158 108.25171 107.85344
           A14        107.33017 107.59416 107.52676 107.53621 107.84796
           A15        109.23408 108.79800 107.86084 107.08295 106.81601
           A16        112.76398 112.41728 112.40972 112.68099 112.95043
           A17        111.18434 111.38951 111.22220 111.01978 110.91679
           A18        112.42440 112.68787 113.06388 113.08300 112.95488
           A19        107.12339 107.11725 106.90088 106.67058 106.49217
           A20        106.54711 106.45001 106.48927 106.54456 106.59129
           A21        106.40259 106.37760 106.33163 106.40417 106.48976
           D1         -58.16429 -44.13346 -50.61998 -58.27118 -59.49279
           D2         119.37836 133.05135 126.23535 119.50443 120.48347
           D3        -178.70686-166.12191-171.97272-178.86420 179.96278
           D4          -1.16421  11.06289   4.88261  -1.08859  -0.06096
           D5          60.19142  74.28693  67.97768  60.53421  59.43314
           D6        -122.26593-108.52827-115.16699-121.69019-120.59060
           D7         -80.21665 -60.21664 -40.21663 -20.21675  -0.21668
           D8         160.33456 179.50637-162.06953-142.99934-122.78882
           D9          40.72565  61.02249  81.25067 101.66813 122.34384
           D10        102.15365 122.49215 142.78889 161.89540 179.80580
           D11        -17.29514   2.21516  20.93600  39.11280  57.23365
           D12       -136.90406-116.26872 -95.74381 -76.21973 -57.63368
           D13        -55.74211 -50.06216 -51.31280 -56.42967 -60.51093
           D14       -176.07826-170.29527-171.14577-176.01153-179.97520
           D15         64.74152  70.23459  69.30290  64.47421  60.56059
           D16         64.09360  70.17748  70.28857  66.12922  61.98228
           D17        -56.24254 -50.05563 -49.54441 -53.45264 -57.48200
           D18       -175.42276-169.52577-169.09574-172.96690-176.94620
           D19       -178.49793-172.54769-173.39105-178.49185 177.00725
           D20         61.16592  67.21920  66.77597  61.92628  57.54298
           D21        -58.01430 -52.25093 -52.77536 -57.58797 -61.92122
                          16        17        18
     Eigenvalues --  -529.92763-529.92788-529.92720
           R1           1.50053   1.50088   1.50149
           R2           1.09478   1.09560   1.09634
           R3           1.09027   1.09035   1.09057
           R4           1.09515   1.09478   1.09431
           R5           1.53057   1.52942   1.52988
           R6           1.23499   1.23423   1.23337
           R7           1.49889   1.50055   1.50263
           R8           1.09621   1.09638   1.09500
           R9           1.09312   1.09209   1.09187
           R10          1.39427   1.39498   1.39626
           R11          1.39013   1.38977   1.38950
           R12          1.39359   1.39246   1.39002
           A1         111.01592 110.57782 110.11020
           A2         108.82081 109.11050 109.47055
           A3         110.70844 110.96008 111.18766
           A4         109.50803 109.14520 108.81367
           A5         107.09557 107.03988 107.00496
           A6         109.67145 109.97549 110.19973
           A7         121.00539 119.73075 118.58188
           A8         122.10355 122.33709 122.54271
           A9         116.85709 117.86133 118.81648
           A10        117.84544 116.37102 114.58413
           A11        107.87565 108.67239 109.85251
           A12        107.79741 107.84146 107.90451
           A13        107.53986 107.52553 107.59971
           A14        108.24584 108.30939 107.98305
           A15        107.07468 107.83961 108.78255
           A16        113.08016 113.07941 112.70006
           A17        111.01436 111.20886 111.39012
           A18        112.69219 112.41138 112.40826
           A19        106.40512 106.32767 106.37720
           A20        106.54691 106.49285 106.44985
           A21        106.66384 106.89679 107.11375
           D1         -60.58434 -67.80339 -74.32366
           D2         121.60270 115.32390 108.50336
           D3         178.82607 172.14171 166.09167
           D4           1.01310  -4.73101 -11.08130
           D5          58.22528  50.81694  44.09761
           D6        -119.58768-126.05578-133.07536
           D7          19.78337  39.78327  59.78322
           D8        -102.12052 -81.70508 -61.46186
           D9         142.56716 161.64847-179.91200
           D10       -162.29318-143.20534-122.93668
           D11         75.80292  95.30630 115.81824
           D12        -39.50939 -21.34014  -2.63190
           D13        -64.36568 -69.20751 -70.23616
           D14        176.12461 171.24503 170.28543
           D15         56.54756  51.42546  50.06266
           D16         57.70986  52.88562  52.23786
           D17        -61.79985 -66.66185 -67.24055
           D18        178.62310 173.51859 172.53668
           D19        173.07804 169.17416 169.50262
           D20         53.56833  49.62670  50.02421
           D21        -66.00872 -70.19286 -70.19857
 Largest change from initial coordinates is atom   11       0.694 Angstoms.
 Leave Link  103 at Wed May 26 08:36:28 2021, MaxMem=  2147483648 cpu:         0.1
 (Enter /opt/cluster/programs/g09_d.01/g09/l202.exe)
                          Input orientation:                          
 ---------------------------------------------------------------------
 Center     Atomic      Atomic             Coordinates (Angstroms)
 Number     Number       Type             X           Y           Z
 ---------------------------------------------------------------------
      1          6           0       -3.328965    1.578179    0.363171
      2          6           0       -2.374571    0.940837    1.331358
      3          1           0       -2.776831    2.171624   -0.375028
      4          1           0       -4.010624    2.235509    0.904089
      5          1           0       -3.893414    0.822283   -0.191378
      6          6           0       -1.543080   -0.253861    0.860336
      7          8           0       -2.272999    1.310647    2.503586
      8          6           0       -0.644667    0.032183   -0.309673
      9          1           0       -2.204923   -1.078481    0.575740
     10          1           0       -0.917373   -0.577181    1.694684
     11          9           0       -1.352386    0.227979   -1.497246
     12          9           0        0.231738   -1.020120   -0.544821
     13          9           0        0.127093    1.172403   -0.118818
 ---------------------------------------------------------------------
                    Distance matrix (angstroms):
                    1          2          3          4          5
     1  C    0.000000
     2  C    1.501486   0.000000
     3  H    1.096343   2.142056   0.000000
     4  H    1.090566   2.129649   1.778332   0.000000
     5  H    1.094306   2.153988   1.761025   1.791925   0.000000
     6  C    2.606325   1.529883   2.988519   3.505375   2.790745
     7  O    2.401670   1.233368   3.046563   2.536356   3.182307
     8  C    3.169902   2.551706   3.021193   4.202087   3.345536
     9  H    2.892490   2.162726   3.434272   3.788258   2.655631
    10  H    3.497754   2.135371   3.911167   4.254935   3.791115
    11  F    3.031675   3.090959   2.658228   4.106436   2.918101
    12  F    4.500468   3.762745   4.389482   5.540406   4.531694
    13  F    3.513020   2.900855   3.081698   4.392862   4.036376
                    6          7          8          9         10
     6  C    0.000000
     7  O    2.383430   0.000000
     8  C    1.502628   3.492902   0.000000
     9  H    1.095002   3.070693   2.109960   0.000000
    10  H    1.091871   2.460882   2.112615   1.777955   0.000000
    11  F    2.413862   4.245746   1.396256   2.594403   3.320532
    12  F    2.389895   4.582463   1.389504   2.682607   2.555784
    13  F    2.404673   3.557606   1.390015   3.314693   2.727773
                   11         12         13
    11  F    0.000000
    12  F    2.230317   0.000000
    13  F    2.231783   2.235976   0.000000
 Stoichiometry    C4H5F3O
 Framework group  C1[X(C4H5F3O)]
 Deg. of freedom    33
 Full point group                 C1      NOp   1
 RotChk:  IX=2 Diff= 2.34D-15
 Largest Abelian subgroup         C1      NOp   1
 Largest concise Abelian subgroup C1      NOp   1
                         Standard orientation:                         
 ---------------------------------------------------------------------
 Center     Atomic      Atomic             Coordinates (Angstroms)
 Number     Number       Type             X           Y           Z
 ---------------------------------------------------------------------
      1          6           0        1.870857    1.224217    0.014696
      2          6           0        1.506466   -0.226377    0.146817
      3          1           0        1.308234    1.680786   -0.808083
      4          1           0        2.937098    1.313424   -0.196272
      5          1           0        1.617551    1.779935    0.922726
      6          6           0        0.149972   -0.587832    0.754942
      7          8           0        2.277902   -1.135614   -0.168413
      8          6           0       -1.034869   -0.042668    0.008726
      9          1           0        0.092813   -0.216698    1.783543
     10          1           0        0.067755   -1.676513    0.768932
     11          9           0       -1.156331    1.343088    0.128964
     12          9           0       -2.224312   -0.582763    0.482271
     13          9           0       -0.975049   -0.315886   -1.352860
 ---------------------------------------------------------------------
 Rotational constants (GHZ):      3.4008399      1.3746227      1.2274208
 Leave Link  202 at Wed May 26 08:36:28 2021, MaxMem=  2147483648 cpu:         0.0
 (Enter /opt/cluster/programs/g09_d.01/g09/l601.exe)
 Copying SCF densities to generalized density rwf, IOpCl= 0 IROHF=0.

 **********************************************************************

            Population analysis using the SCF density.

 **********************************************************************

 Orbital symmetries:
       Occupied  (A) (A) (A) (A) (A) (A) (A) (A) (A) (A) (A) (A)
                 (A) (A) (A) (A) (A) (A) (A) (A) (A) (A) (A) (A)
                 (A) (A) (A) (A) (A) (A) (A) (A)
       Virtual   (A) (A) (A) (A) (A) (A) (A) (A) (A) (A) (A) (A)
                 (A) (A) (A) (A) (A) (A) (A) (A) (A) (A) (A) (A)
                 (A) (A) (A) (A) (A) (A) (A) (A) (A) (A) (A) (A)
                 (A) (A) (A) (A) (A) (A) (A) (A) (A) (A) (A) (A)
                 (A) (A) (A) (A) (A) (A) (A) (A) (A) (A) (A) (A)
                 (A) (A) (A) (A) (A) (A) (A) (A) (A) (A) (A) (A)
                 (A) (A) (A) (A) (A) (A) (A) (A) (A) (A)
 The electronic state is 1-A.
 Alpha  occ. eigenvalues --  -24.89131 -24.89129 -24.89059 -19.30459 -10.59578
 Alpha  occ. eigenvalues --  -10.43888 -10.36308 -10.32167  -1.43963  -1.35497
 Alpha  occ. eigenvalues --   -1.35387  -1.19563  -0.95295  -0.87321  -0.80039
 Alpha  occ. eigenvalues --   -0.71062  -0.70307  -0.69177  -0.64250  -0.59619
 Alpha  occ. eigenvalues --   -0.58491  -0.57583  -0.56865  -0.55485  -0.54266
 Alpha  occ. eigenvalues --   -0.53714  -0.52633  -0.51668  -0.50655  -0.49702
 Alpha  occ. eigenvalues --   -0.46410  -0.37010
 Alpha virt. eigenvalues --    0.01042   0.05976   0.07931   0.09193   0.10179
 Alpha virt. eigenvalues --    0.10675   0.11185   0.12239   0.12602   0.13234
 Alpha virt. eigenvalues --    0.14091   0.15843   0.16602   0.16854   0.17501
 Alpha virt. eigenvalues --    0.18094   0.18248   0.19260   0.21966   0.22207
 Alpha virt. eigenvalues --    0.26375   0.26636   0.27945   0.28587   0.30908
 Alpha virt. eigenvalues --    0.33341   0.34006   0.35361   0.35682   0.37673
 Alpha virt. eigenvalues --    0.38592   0.39550   0.40092   0.40774   0.40978
 Alpha virt. eigenvalues --    0.42794   0.43722   0.44068   0.44542   0.44832
 Alpha virt. eigenvalues --    0.46343   0.49372   0.51963   0.52740   0.54204
 Alpha virt. eigenvalues --    0.69352   0.73375   0.76244   0.77680   0.80497
 Alpha virt. eigenvalues --    0.83205   0.85753   0.87743   0.90299   0.92564
 Alpha virt. eigenvalues --    0.96041   1.01584   1.10324   1.16275   1.18092
 Alpha virt. eigenvalues --    1.21954   1.22264   1.26092   1.35253   1.38907
 Alpha virt. eigenvalues --    1.42798   1.46747   1.49094   1.55564   1.59291
 Alpha virt. eigenvalues --    1.66574   1.68311   1.71018   1.72958   1.81058
 Alpha virt. eigenvalues --    1.81769   1.84319   1.84956   1.97992   2.30068
 Alpha virt. eigenvalues --    2.33260   2.65488
          Condensed to atoms (all electrons):
               1          2          3          4          5          6
     1  C    8.322187  -0.707130   0.326551   0.346553   0.313100  -1.921777
     2  C   -0.707130   6.166076  -0.004981  -0.022920  -0.018626  -0.471604
     3  H    0.326551  -0.004981   0.449605  -0.017849  -0.022529  -0.012402
     4  H    0.346553  -0.022920  -0.017849   0.446157  -0.021628   0.027126
     5  H    0.313100  -0.018626  -0.022529  -0.021628   0.476403   0.055677
     6  C   -1.921777  -0.471604  -0.012402   0.027126   0.055677   9.077963
     7  O   -0.158459   0.496058   0.003253  -0.005925   0.003923  -0.222343
     8  C    0.104140   0.089154   0.018455  -0.002192  -0.021402  -0.229429
     9  H    0.019203  -0.004773   0.000102  -0.000064  -0.000510   0.336995
    10  H    0.025514   0.014001  -0.000111  -0.000081  -0.000023   0.291313
    11  F    0.040355  -0.024173  -0.002597   0.000286  -0.002206  -0.124644
    12  F   -0.011309   0.002620   0.000219   0.000023  -0.000061  -0.113540
    13  F   -0.014575   0.080897   0.000275  -0.000018  -0.000003  -0.161973
               7          8          9         10         11         12
     1  C   -0.158459   0.104140   0.019203   0.025514   0.040355  -0.011309
     2  C    0.496058   0.089154  -0.004773   0.014001  -0.024173   0.002620
     3  H    0.003253   0.018455   0.000102  -0.000111  -0.002597   0.000219
     4  H   -0.005925  -0.002192  -0.000064  -0.000081   0.000286   0.000023
     5  H    0.003923  -0.021402  -0.000510  -0.000023  -0.002206  -0.000061
     6  C   -0.222343  -0.229429   0.336995   0.291313  -0.124644  -0.113540
     7  O    8.297117  -0.016009   0.001905  -0.001611  -0.000708  -0.001034
     8  C   -0.016009   5.340258  -0.054565  -0.026683   0.099712   0.147609
     9  H    0.001905  -0.054565   0.439647  -0.018179  -0.005563  -0.004626
    10  H   -0.001611  -0.026683  -0.018179   0.419304   0.007050  -0.001336
    11  F   -0.000708   0.099712  -0.005563   0.007050   9.306948  -0.052044
    12  F   -0.001034   0.147609  -0.004626  -0.001336  -0.052044   9.294474
    13  F   -0.000141   0.099093   0.007938  -0.004061  -0.049669  -0.059653
              13
     1  C   -0.014575
     2  C    0.080897
     3  H    0.000275
     4  H   -0.000018
     5  H   -0.000003
     6  C   -0.161973
     7  O   -0.000141
     8  C    0.099093
     9  H    0.007938
    10  H   -0.004061
    11  F   -0.049669
    12  F   -0.059653
    13  F    9.281144
 Mulliken charges:
               1
     1  C   -0.684351
     2  C    0.405402
     3  H    0.262008
     4  H    0.250534
     5  H    0.237885
     6  C   -0.531362
     7  O   -0.396025
     8  C    0.451860
     9  H    0.282490
    10  H    0.294902
    11  F   -0.192747
    12  F   -0.201340
    13  F   -0.179254
 Sum of Mulliken charges =   0.00000
 Mulliken charges with hydrogens summed into heavy atoms:
               1
     1  C    0.066075
     2  C    0.405402
     6  C    0.046030
     7  O   -0.396025
     8  C    0.451860
    11  F   -0.192747
    12  F   -0.201340
    13  F   -0.179254
 Electronic spatial extent (au):  <R**2>=            969.6259
 Charge=              0.0000 electrons
 Dipole moment (field-independent basis, Debye):
    X=              0.5313    Y=              1.5826    Z=              2.1481  Tot=              2.7205
 Quadrupole moment (field-independent basis, Debye-Ang):
   XX=            -54.6484   YY=            -47.3052   ZZ=            -44.4185
   XY=              6.8495   XZ=              1.4173   YZ=             -1.6875
 Traceless Quadrupole moment (field-independent basis, Debye-Ang):
   XX=             -5.8577   YY=              1.4855   ZZ=              4.3722
   XY=              6.8495   XZ=              1.4173   YZ=             -1.6875
 Octapole moment (field-independent basis, Debye-Ang**2):
  XXX=            -27.5461  YYY=              0.8152  ZZZ=              0.9562  XYY=             -9.5307
  XXY=             18.1658  XXZ=             -0.9470  XZZ=             -4.6087  YZZ=              1.5328
  YYZ=             -0.6659  XYZ=             -1.6057
 Hexadecapole moment (field-independent basis, Debye-Ang**3):
 XXXX=           -758.5203 YYYY=           -255.5617 ZZZZ=           -137.3194 XXXY=             30.8703
 XXXZ=             10.7188 YYYX=              9.8260 YYYZ=             -0.5848 ZZZX=             -1.8543
 ZZZY=              2.0074 XXYY=           -176.0629 XXZZ=           -143.4352 YYZZ=            -63.7612
 XXYZ=             -2.4555 YYXZ=              1.9000 ZZXY=             -1.9779
 N-N= 4.049995563698D+02 E-N=-2.060304510417D+03  KE= 5.271909508620D+02
 No NMR shielding tensors so no spin-rotation constants.
 Leave Link  601 at Wed May 26 08:36:28 2021, MaxMem=  2147483648 cpu:         0.6
 (Enter /opt/cluster/programs/g09_d.01/g09/l9999.exe)
 1\1\GINC-NODE05\Scan\RwB97XD\6-31+G\C4H5F3O1\BOITTIER\26-May-2021\0\\#
 p wB97XD/6-31+G Opt=ModRedun\\N.pdb\\0,1\C,-3.3289653275,1.5781786245,
 0.3631705787\C,-2.3745707552,0.9408369312,1.3313578762\H,-2.7768310219
 ,2.171624278,-0.3750279213\H,-4.0106235271,2.2355092848,0.9040887658\H
 ,-3.8934140445,0.8222827324,-0.1913781817\C,-1.5430800697,-0.253861222
 3,0.8603364938\O,-2.2729988645,1.3106473564,2.503586157\C,-0.644666755
 6,0.0321826602,-0.3096733479\H,-2.204923029,-1.0784808423,0.5757401493
 \H,-0.9173727941,-0.5771811708,1.6946841109\F,-1.3523856089,0.22797851
 95,-1.4972456257\F,0.2317384073,-1.020120279,-0.5448205701\F,0.1270933
 908,1.1724031274,-0.1188184851\\Version=ES64L-G09RevD.01\State=1-A\HF=
 -529.9260523,-529.9252681,-529.9242486,-529.9239884,-529.9245973,-529.
 9247577,-529.9246109,-529.9239969,-529.9242299,-529.9252475,-529.92603
 61,-529.9271699,-529.9278757,-529.9276409,-529.9273549,-529.9276334,-5
 29.9278781,-529.9271978\RMSD=5.141e-09,9.513e-09,3.035e-09,4.213e-09,7
 .885e-09,3.682e-09,4.916e-09,8.380e-09,7.662e-09,9.320e-09,8.758e-09,8
 .381e-09,4.910e-09,8.324e-09,9.700e-09,8.024e-09,6.139e-09,5.485e-09\P
 G=C01 [X(C4H5F3O1)]\\@


 E PUR SI MUOVE    -- GALILEO GALILEI
 Job cpu time:       0 days  1 hours 22 minutes  6.2 seconds.
 File lengths (MBytes):  RWF=      9 Int=      0 D2E=      0 Chk=      4 Scr=      1
 Normal termination of Gaussian 09 at Wed May 26 08:36:28 2021.
