L.pdb                                                                   
FOpt      RwB97XD                                                     6-31+G              
Number of atoms                            I                8
Info1-9                                    I   N=           9
          19          19           0           0           0         110
           2          18        -802
Charge                                     I                0
Multiplicity                               I                1
Number of electrons                        I               30
Number of alpha electrons                  I               15
Number of beta electrons                   I               15
Number of basis functions                  I               60
Number of independent functions            I               60
Number of point charges in /Mol/           I                0
Number of translation vectors              I                0
Atomic numbers                             I   N=           8
           6           6           6           8           1           1
           1           1
Nuclear charges                            R   N=           8
  6.00000000E+00  6.00000000E+00  6.00000000E+00  8.00000000E+00  1.00000000E+00
  1.00000000E+00  1.00000000E+00  1.00000000E+00
Current cartesian coordinates              R   N=          24
  2.79670884E+00 -8.82457339E-01  7.12565634E-02  1.25597051E+00  1.11847331E+00
 -1.23235241E-01 -1.51248928E+00  8.85368535E-01  1.35310460E-01 -2.69525798E+00
 -1.11635595E+00 -1.23848301E-01 -2.54468109E+00  2.64207953E+00  5.53331429E-01
  4.83288216E+00 -6.92823267E-01 -6.66126063E-02  2.03299150E+00 -2.76460101E+00
  3.70250907E-01  1.99973082E+00  3.01788529E+00 -3.66174021E-01
Force Field                                I                0
Int Atom Types                             I   N=           8
           0           0           0           0           0           0
           0           0
MM charges                                 R   N=           8
  0.00000000E+00  0.00000000E+00  0.00000000E+00  0.00000000E+00  0.00000000E+00
  0.00000000E+00  0.00000000E+00  0.00000000E+00
Integer atomic weights                     I   N=           8
          12          12          12          16           1           1
           1           1
Real atomic weights                        R   N=           8
  1.20000000E+01  1.20000000E+01  1.20000000E+01  1.59949146E+01  1.00782504E+00
  1.00782504E+00  1.00782504E+00  1.00782504E+00
Atom fragment info                         I   N=           8
           0           0           0           0           0           0
           0           0
Atom residue num                           I   N=           8
           0           0           0           0           0           0
           0           0
Nuclear spins                              I   N=           8
           0           0           0           0           1           1
           1           1
Nuclear ZEff                               R   N=           8
 -3.60000000E+00 -3.60000000E+00 -3.60000000E+00 -5.60000000E+00 -1.00000000E+00
 -1.00000000E+00 -1.00000000E+00 -1.00000000E+00
Nuclear ZNuc                               R   N=           8
  6.00000000E+00  6.00000000E+00  6.00000000E+00  8.00000000E+00  1.00000000E+00
  1.00000000E+00  1.00000000E+00  1.00000000E+00
Nuclear QMom                               R   N=           8
  0.00000000E+00  0.00000000E+00  0.00000000E+00  0.00000000E+00  0.00000000E+00
  0.00000000E+00  0.00000000E+00  0.00000000E+00
Nuclear GFac                               R   N=           8
  0.00000000E+00  0.00000000E+00  0.00000000E+00  0.00000000E+00  2.79284600E+00
  2.79284600E+00  2.79284600E+00  2.79284600E+00
MicOpt                                     I   N=           8
          -1          -1          -1          -1          -1          -1
          -1          -1
Number of contracted shells                I               24
Number of primitive shells                 I               60
Pure/Cartesian d shells                    I                1
Pure/Cartesian f shells                    I                0
Highest angular momentum                   I                1
Largest degree of contraction              I                6
Shell types                                I   N=          24
           0          -1          -1          -1           0          -1
          -1          -1           0          -1          -1          -1
           0          -1          -1          -1           0           0
           0           0           0           0           0           0
Number of primitives per shell             I   N=          24
           6           3           1           1           6           3
           1           1           6           3           1           1
           6           3           1           1           3           1
           3           1           3           1           3           1
Shell to atom map                          I   N=          24
           1           1           1           1           2           2
           2           2           3           3           3           3
           4           4           4           4           5           5
           6           6           7           7           8           8
Primitive exponents                        R   N=          60
  3.04752488E+03  4.57369518E+02  1.03948685E+02  2.92101553E+01  9.28666296E+00
  3.16392696E+00  7.86827235E+00  1.88128854E+00  5.44249258E-01  1.68714478E-01
  4.38000000E-02  3.04752488E+03  4.57369518E+02  1.03948685E+02  2.92101553E+01
  9.28666296E+00  3.16392696E+00  7.86827235E+00  1.88128854E+00  5.44249258E-01
  1.68714478E-01  4.38000000E-02  3.04752488E+03  4.57369518E+02  1.03948685E+02
  2.92101553E+01  9.28666296E+00  3.16392696E+00  7.86827235E+00  1.88128854E+00
  5.44249258E-01  1.68714478E-01  4.38000000E-02  5.48467166E+03  8.25234946E+02
  1.88046958E+02  5.29645000E+01  1.68975704E+01  5.79963534E+00  1.55396162E+01
  3.59993359E+00  1.01376175E+00  2.70005823E-01  8.45000000E-02  1.87311370E+01
  2.82539436E+00  6.40121692E-01  1.61277759E-01  1.87311370E+01  2.82539436E+00
  6.40121692E-01  1.61277759E-01  1.87311370E+01  2.82539436E+00  6.40121692E-01
  1.61277759E-01  1.87311370E+01  2.82539436E+00  6.40121692E-01  1.61277759E-01
Contraction coefficients                   R   N=          60
  1.83473713E-03  1.40373228E-02  6.88426223E-02  2.32184443E-01  4.67941348E-01
  3.62311985E-01 -1.19332420E-01 -1.60854152E-01  1.14345644E+00  1.00000000E+00
  1.00000000E+00  1.83473713E-03  1.40373228E-02  6.88426223E-02  2.32184443E-01
  4.67941348E-01  3.62311985E-01 -1.19332420E-01 -1.60854152E-01  1.14345644E+00
  1.00000000E+00  1.00000000E+00  1.83473713E-03  1.40373228E-02  6.88426223E-02
  2.32184443E-01  4.67941348E-01  3.62311985E-01 -1.19332420E-01 -1.60854152E-01
  1.14345644E+00  1.00000000E+00  1.00000000E+00  1.83107443E-03  1.39501722E-02
  6.84450781E-02  2.32714336E-01  4.70192898E-01  3.58520853E-01 -1.10777550E-01
 -1.48026263E-01  1.13076702E+00  1.00000000E+00  1.00000000E+00  3.34946043E-02
  2.34726953E-01  8.13757326E-01  1.00000000E+00  3.34946043E-02  2.34726953E-01
  8.13757326E-01  1.00000000E+00  3.34946043E-02  2.34726953E-01  8.13757326E-01
  1.00000000E+00  3.34946043E-02  2.34726953E-01  8.13757326E-01  1.00000000E+00
P(S=P) Contraction coefficients            R   N=          60
  0.00000000E+00  0.00000000E+00  0.00000000E+00  0.00000000E+00  0.00000000E+00
  0.00000000E+00  6.89990666E-02  3.16423961E-01  7.44308291E-01  1.00000000E+00
  1.00000000E+00  0.00000000E+00  0.00000000E+00  0.00000000E+00  0.00000000E+00
  0.00000000E+00  0.00000000E+00  6.89990666E-02  3.16423961E-01  7.44308291E-01
  1.00000000E+00  1.00000000E+00  0.00000000E+00  0.00000000E+00  0.00000000E+00
  0.00000000E+00  0.00000000E+00  0.00000000E+00  6.89990666E-02  3.16423961E-01
  7.44308291E-01  1.00000000E+00  1.00000000E+00  0.00000000E+00  0.00000000E+00
  0.00000000E+00  0.00000000E+00  0.00000000E+00  0.00000000E+00  7.08742682E-02
  3.39752839E-01  7.27158577E-01  1.00000000E+00  1.00000000E+00  0.00000000E+00
  0.00000000E+00  0.00000000E+00  0.00000000E+00  0.00000000E+00  0.00000000E+00
  0.00000000E+00  0.00000000E+00  0.00000000E+00  0.00000000E+00  0.00000000E+00
  0.00000000E+00  0.00000000E+00  0.00000000E+00  0.00000000E+00  0.00000000E+00
Coordinates of each shell                  R   N=          72
  2.79670884E+00 -8.82457339E-01  7.12565634E-02  2.79670884E+00 -8.82457339E-01
  7.12565634E-02  2.79670884E+00 -8.82457339E-01  7.12565634E-02  2.79670884E+00
 -8.82457339E-01  7.12565634E-02  1.25597051E+00  1.11847331E+00 -1.23235241E-01
  1.25597051E+00  1.11847331E+00 -1.23235241E-01  1.25597051E+00  1.11847331E+00
 -1.23235241E-01  1.25597051E+00  1.11847331E+00 -1.23235241E-01 -1.51248928E+00
  8.85368535E-01  1.35310460E-01 -1.51248928E+00  8.85368535E-01  1.35310460E-01
 -1.51248928E+00  8.85368535E-01  1.35310460E-01 -1.51248928E+00  8.85368535E-01
  1.35310460E-01 -2.69525798E+00 -1.11635595E+00 -1.23848301E-01 -2.69525798E+00
 -1.11635595E+00 -1.23848301E-01 -2.69525798E+00 -1.11635595E+00 -1.23848301E-01
 -2.69525798E+00 -1.11635595E+00 -1.23848301E-01 -2.54468109E+00  2.64207953E+00
  5.53331429E-01 -2.54468109E+00  2.64207953E+00  5.53331429E-01  4.83288216E+00
 -6.92823267E-01 -6.66126063E-02  4.83288216E+00 -6.92823267E-01 -6.66126063E-02
  2.03299150E+00 -2.76460101E+00  3.70250907E-01  2.03299150E+00 -2.76460101E+00
  3.70250907E-01  1.99973082E+00  3.01788529E+00 -3.66174021E-01  1.99973082E+00
  3.01788529E+00 -3.66174021E-01
Constraint Structure                       R   N=          24
  2.81901364E+00 -8.81372120E-01  6.92643839E-02  1.25581167E+00  1.11446235E+00
 -1.24619628E-01 -1.51290549E+00  8.85979723E-01  1.34123564E-01 -2.71961684E+00
 -1.11740193E+00 -1.20851514E-01 -2.53637525E+00  2.65406432E+00  5.47419898E-01
  4.85580585E+00 -6.77860233E-01 -6.29673125E-02  2.07453687E+00 -2.77228112E+00
  3.65730289E-01  1.99144830E+00  3.02087277E+00 -3.55980688E-01
Num ILSW                                   I              100
ILSW                                       I   N=         100
           0           1           0           0           2           0
           0           0           0           0        4639          -1
           0           0           0           0           2           0
           0           0           0           0           1           0
           1           0           0           0           0           0
           0           0      100000           0          -1           0
           0           0           0           0           0           0
           0           0           0           1           0           0
           0           0           1           0           0           0
           0           0         121          41           0           0
           0           0          58           0           0           0
           0           0           0           8           0           0
           0           0           0           0           0           0
           0           0           0           0           0           0
           0           0           0           0           0           0
           0           0           0           0           0           0
           0           0           0           0
Num RLSW                                   I               41
RLSW                                       R   N=          41
  1.00000000E+00  1.00000000E+00  1.00000000E+00  1.00000000E+00  1.00000000E+00
  0.00000000E+00  2.00000000E-01  2.22036000E-01  0.00000000E+00  7.77964000E-01
  0.00000000E+00  2.00000000E-01  0.00000000E+00  0.00000000E+00  1.00000000E+00
  0.00000000E+00  0.00000000E+00  1.00000000E+00  0.00000000E+00  0.00000000E+00
  0.00000000E+00  0.00000000E+00  1.00000000E+00  0.00000000E+00  0.00000000E+00
  0.00000000E+00  0.00000000E+00  1.00000000E+00  0.00000000E+00  0.00000000E+00
  0.00000000E+00  0.00000000E+00  1.00000000E+00  0.00000000E+00  0.00000000E+00
  0.00000000E+00  0.00000000E+00  0.00000000E+00  1.00000000E+00  1.00000000E+00
  0.00000000E+00
MxBond                                     I                3
NBond                                      I   N=           8
           3           3           3           1           1           1
           1           1
IBond                                      I   N=          24
           2           6           7           1           3           8
           2           4           5           3           0           0
           3           0           0           1           0           0
           1           0           0           2           0           0
RBond                                      R   N=          24
  2.00000000E+00  1.00000000E+00  1.00000000E+00  2.00000000E+00  1.00000000E+00
  1.00000000E+00  1.00000000E+00  2.00000000E+00  1.00000000E+00  2.00000000E+00
  0.00000000E+00  0.00000000E+00  1.00000000E+00  0.00000000E+00  0.00000000E+00
  1.00000000E+00  0.00000000E+00  0.00000000E+00  1.00000000E+00  0.00000000E+00
  0.00000000E+00  1.00000000E+00  0.00000000E+00  0.00000000E+00
Virial Ratio                               R      2.005805643909941E+00
SCF Energy                                 R     -1.917925024863865E+02
Total Energy                               R     -1.917925024863865E+02
RMS Force                                  R      1.421747908470050E-03
RMS Density                                R      4.976693437155098E-09
External E-field                           R   N=          35
  0.00000000E+00  0.00000000E+00  0.00000000E+00  0.00000000E+00  0.00000000E+00
  0.00000000E+00  0.00000000E+00  0.00000000E+00  0.00000000E+00  0.00000000E+00
  0.00000000E+00  0.00000000E+00  0.00000000E+00  0.00000000E+00  0.00000000E+00
  0.00000000E+00  0.00000000E+00  0.00000000E+00  0.00000000E+00  0.00000000E+00
  0.00000000E+00  0.00000000E+00  0.00000000E+00  0.00000000E+00  0.00000000E+00
  0.00000000E+00  0.00000000E+00  0.00000000E+00  0.00000000E+00  0.00000000E+00
  0.00000000E+00  0.00000000E+00  0.00000000E+00  0.00000000E+00  0.00000000E+00
IOpCl                                      I                0
IROHF                                      I                0
Alpha Orbital Energies                     R   N=          60
 -1.92868691E+01 -1.04045098E+01 -1.03319583E+01 -1.03285064E+01 -1.16953770E+00
 -9.10013184E-01 -7.69746396E-01 -6.51410420E-01 -6.15291058E-01 -5.44941289E-01
 -5.26612487E-01 -4.91503214E-01 -4.77222757E-01 -3.76772047E-01 -3.52369329E-01
 -1.42239038E-02  6.97840774E-02  8.17023393E-02  9.56337423E-02  1.03371011E-01
  1.17013644E-01  1.26221975E-01  1.31987127E-01  1.50257020E-01  1.60432757E-01
  1.75967086E-01  1.80148256E-01  2.02622107E-01  2.22185642E-01  2.61130734E-01
  2.81494238E-01  3.14367450E-01  3.24363597E-01  3.27165065E-01  3.45604511E-01
  3.67348260E-01  3.91611443E-01  4.16909914E-01  4.62554005E-01  5.38734686E-01
  7.14211515E-01  7.29951424E-01  7.70379698E-01  7.90068275E-01  8.06484665E-01
  8.29549711E-01  8.88882738E-01  9.87596604E-01  1.02510778E+00  1.05257862E+00
  1.10751593E+00  1.14052435E+00  1.22778101E+00  1.23490873E+00  1.28915519E+00
  1.31367265E+00  1.39460582E+00  1.41583431E+00  1.42775223E+00  1.91762928E+00
Alpha MO coefficients                      R   N=        3600
  2.98308357E-06  5.40463923E-05 -1.25261082E-04  1.11715397E-04  2.50077101E-05
  3.81813730E-03 -8.48729506E-04  1.00338666E-03 -3.60704721E-04  3.57248158E-03
 -4.04934559E-04  3.25988023E-04  2.39519542E-04  5.35280322E-05  2.53402517E-04
  2.67501473E-04 -1.92907686E-04 -2.80913394E-05 -2.65506548E-03 -7.59406934E-04
  4.93569879E-03  1.09257493E-04  6.95408960E-03 -3.37413351E-03  3.99206735E-04
 -3.72986669E-04  2.06326677E-04  1.63106394E-04 -1.62061825E-04  1.08876631E-04
  9.51195275E-06  7.01629941E-03 -1.77504784E-03 -7.73171590E-03 -9.64572988E-04
 -1.45655944E-02 -2.09087985E-03  2.03942576E-03  9.04080412E-04  9.95227986E-01
  2.94956945E-02  1.17766814E-03  1.80813124E-03  2.46716535E-04 -2.20115559E-02
 -3.04566818E-03 -4.09994313E-03 -5.29837797E-04  8.24034386E-03  6.90304715E-04
  3.37640626E-04 -1.45795783E-04 -6.70231873E-06  1.84967644E-03 -7.28512280E-05
 -2.92417726E-04 -6.88954124E-05 -4.39248343E-04 -2.87032501E-04 -1.74398969E-03
 -5.99270484E-05 -3.59702710E-04  6.12491440E-05 -8.91992297E-05 -2.19081460E-05
  2.43114474E-04  1.87368729E-04  1.56812076E-04  8.71606023E-05 -1.09351137E-02
  2.50655838E-03 -2.26099293E-03 -2.64531172E-05  1.69658133E-03 -7.17701718E-04
  5.63867589E-04  7.44719311E-06 -6.47964324E-05  5.66953860E-03 -3.32171570E-03
 -5.01786336E-04  2.93042353E-04  5.95831424E-03  1.97726593E-03 -1.08524033E-03
  6.43808606E-04  9.95441335E-01  3.61609411E-02 -6.04652045E-04 -1.25777333E-03
 -1.73195178E-04 -3.23270519E-02 -6.93168581E-04  2.47072988E-03  5.36058677E-04
  2.56777230E-03  2.87754187E-03 -9.76089414E-04 -6.07423123E-04 -1.21750252E-04
 -4.28896419E-05 -3.28021992E-04 -4.99518293E-04 -4.57661816E-05  1.26552980E-03
  4.22538719E-04  5.22469831E-05 -1.10217298E-04  1.12263902E-02  2.99639265E-03
  5.19035402E-03  9.10827364E-04 -5.74872625E-04  3.40788799E-03 -5.12312914E-05
  4.58292683E-04 -8.22414995E-05 -1.72882160E-04 -9.11803283E-05 -1.09132071E-04
  9.87935534E-01  3.48619555E-02 -1.89402872E-04  3.01294582E-04 -6.39493917E-06
 -2.91393247E-02  1.74202059E-03 -2.75812183E-03  2.68117648E-04  2.07021623E-02
 -3.68749593E-03  6.09222881E-03 -5.91657032E-04  1.20862846E-01  3.20001150E-03
 -6.94570385E-04  9.08664208E-04 -8.39328855E-05  3.92294343E-03  4.23182234E-03
 -3.87033027E-03  3.31426192E-04  1.54007250E-02 -1.40431110E-02 -2.80837481E-05
  8.92367332E-04 -2.15419196E-04 -4.46756087E-04 -2.66234516E-04  3.52873921E-05
  2.69496487E-05  1.51944317E-03  1.88526971E-03 -1.75643399E-05 -3.17983557E-04
 -3.60064405E-02 -8.66760201E-03  1.13505944E-03  7.41982839E-04  9.44710872E-06
  7.72024574E-05 -5.82902154E-05 -2.06796331E-05 -7.06590548E-06 -4.92716535E-04
 -1.39407278E-04  1.52339151E-04  6.23526438E-05  2.72834646E-03 -3.03041084E-04
  5.74512545E-04  2.21560495E-04 -5.56241700E-05  1.07167173E-03 -7.38874285E-04
  4.35621162E-03 -6.73253183E-04  3.63981510E-03 -2.21319883E-04  6.18879549E-04
 -1.21096129E-01 -5.61484548E-03  6.27103324E-04 -8.02412316E-04  8.13565864E-05
  1.40823177E-02 -4.94144214E-03  3.56711556E-03 -2.31632445E-04 -4.55961360E-02
  7.34628011E-03 -8.31467867E-03  7.23464736E-04  9.88032123E-01  3.62297147E-02
  3.26674677E-05 -5.91625850E-04  1.75408060E-04 -3.61313762E-02  1.09784849E-03
  5.68861646E-03 -9.81188399E-04  6.83139077E-02  6.01539110E-04 -1.42964719E-02
  2.20567058E-03 -1.68351826E-03 -9.28439977E-04 -5.98131041E-04 -8.78925608E-05
  1.00220130E-04  8.05265769E-03  4.65108383E-03 -1.34561128E-03 -5.80837613E-04
 -2.15248917E-02 -5.21647463E-03  2.08980890E-03 -4.58992346E-05  8.25109277E-06
  2.36365188E-05 -6.32762780E-05 -9.42072708E-05  3.84629222E-05 -1.18698671E-03
 -3.54917387E-04  5.47677782E-05 -1.68905726E-04  8.40896857E-04 -5.36161322E-04
 -2.34695602E-04  4.31292261E-04 -9.98965282E-05  8.39505057E-04 -4.21191760E-05
  6.22552719E-04 -2.76160283E-04 -1.13087550E-03 -7.44715003E-04  2.67549237E-03
 -7.25053936E-03  1.15465485E-02 -7.41893905E-03  3.64589532E-03 -4.73498785E-04
 -1.28051045E-02 -2.34518467E-03 -8.43636741E-03  2.80403947E-03  1.64738414E-02
 -9.41442149E-03  1.93725749E-03 -2.82622052E-04 -2.03417508E-02  3.81606778E-02
 -2.66600362E-02 -1.08973147E-02  1.91895229E-03  1.61227552E-02  1.31626690E-02
 -2.90294683E-02 -2.42539362E-03 -7.59907351E-02  2.49773464E-02  6.82286471E-03
 -1.46943584E-03 -1.15991166E-01  2.36753147E-01 -8.72465423E-02 -1.61478832E-01
 -2.14042762E-02  4.98125746E-02  2.87070250E-02  6.76597891E-02  8.28692580E-03
  6.77517261E-02  4.09630742E-03 -5.31770433E-03 -2.79755910E-03 -1.92298019E-01
  4.23804103E-01  9.35342255E-02  1.52714151E-01  2.00072328E-02  4.24042039E-01
  4.14969959E-02  6.24853868E-02  8.72405778E-03  2.52048288E-03  3.73151194E-03
  7.08975183E-03  9.61187326E-04  2.82821266E-02 -2.30168549E-02  2.07794197E-03
  4.47236439E-03  3.67374508E-03 -1.17882065E-03  5.94329452E-03  8.67415408E-03
 -1.40301453E-01  2.72736986E-01 -6.78400225E-02  8.31268852E-02 -6.43499343E-03
  2.21277877E-01 -9.44635606E-03  6.69102236E-03 -5.00879862E-04  2.89232746E-02
 -7.87800040E-03  8.76970762E-04  1.01524498E-03 -1.64110130E-01  3.19942773E-01
  2.59325026E-02 -7.32968248E-02  1.42222958E-02  2.21391503E-01 -2.69604913E-03
  2.54556972E-02  1.38372284E-03 -8.18472649E-02  2.26087022E-02  1.74719051E-02
 -4.74747938E-03 -4.91489312E-02  9.61265399E-02  1.25994441E-01  5.28384942E-02
 -1.48861969E-04  1.01985913E-01  1.69063392E-02 -2.53552829E-02 -3.17159314E-03
  5.78535519E-02  1.10465587E-02 -1.50489745E-03 -2.64888925E-04  4.42956563E-02
 -9.98141620E-02  1.18580380E-02 -1.95961760E-02 -3.69986397E-03 -1.27756269E-01
 -3.38289614E-03 -1.29630266E-02 -2.01928784E-03 -1.80387161E-02 -2.93942986E-04
 -7.52113242E-03 -1.74009517E-03  2.65913748E-02  1.72770635E-02  6.97528781E-02
  8.74890812E-03  6.95441230E-02  5.66353670E-03  8.33073341E-02  1.48209133E-03
  1.26706385E-01 -2.51999432E-01 -3.39562214E-02  1.35343802E-02  2.13153579E-03
 -2.29549508E-01 -1.70544119E-02  1.15200401E-02 -5.18935677E-04  1.20490877E-01
 -1.83128556E-02  2.66821061E-02 -1.82529411E-03 -5.01730249E-02  1.00975797E-01
 -1.94363955E-01  1.21287095E-01  3.85504153E-03  9.59742330E-02 -4.05462963E-02
  2.77060568E-02  6.31169210E-04 -7.00864250E-02 -4.37618691E-02  2.40480624E-02
 -3.40906604E-03 -1.20892918E-01  2.53725744E-01  1.01405578E-01  1.47590861E-01
  8.64518873E-03  2.49561904E-01  1.22298977E-02  4.37836176E-02  4.11057925E-03
 -4.97098487E-02 -1.11823796E-02  5.83195780E-03  4.50207764E-03  5.95296897E-02
 -1.38589501E-01  1.59168996E-02  3.78424297E-02  1.12593222E-03 -1.66447851E-01
  4.65506516E-03  1.24921187E-02  1.07190930E-05 -2.44197913E-02 -6.58368819E-03
 -1.01429130E-02 -2.51233303E-03  1.24488672E-01  3.66969382E-02 -1.12578491E-01
 -3.60231299E-02 -9.85804243E-02 -2.89134668E-02  5.62040678E-02  2.09145621E-02
 -7.03584472E-02  1.42447835E-01  1.03622395E-01 -1.89889832E-01  2.56100579E-02
  1.64122414E-01  4.07767241E-02 -5.79574917E-02  9.49023971E-03 -7.22869655E-02
  1.99630598E-02 -1.94226845E-02  3.17980941E-03  9.44257564E-02 -1.93047116E-01
 -8.30502909E-02 -6.04607272E-02  2.30158225E-02 -1.94304340E-01 -2.68827662E-02
 -4.87056543E-02  9.74845010E-03  9.00864649E-02  2.06129842E-03 -2.64763546E-02
  9.42237770E-04 -8.75236383E-02  1.90022887E-01 -1.51453060E-01  1.43562380E-01
  5.14721518E-02  2.19853662E-01 -5.69396925E-02  6.61551742E-02  2.08198174E-02
 -7.42748112E-03 -7.85134617E-03  1.15054220E-02  3.17222944E-03  5.40699767E-02
 -1.25844535E-01 -2.04836000E-02  1.31135711E-01  3.31675000E-02 -1.75481031E-01
 -1.16256586E-02  4.84048092E-02  1.38943604E-02 -3.21287622E-02 -1.57197674E-03
 -6.65477555E-03 -7.25286666E-04  1.82115643E-01  7.69259150E-02  1.11557523E-01
  4.85254401E-02  1.32626369E-01  6.12623218E-02 -1.34791974E-01 -5.10784093E-02
  2.74907598E-03 -6.09278794E-03 -2.05640153E-01 -1.34865226E-01  2.65101752E-02
 -1.09289622E-02 -8.79346258E-02 -6.03368079E-02  1.17849022E-02 -3.10758475E-02
 -2.28810753E-03 -1.01869320E-02  1.39017631E-03  1.32730212E-02 -2.12126047E-02
 -2.18599565E-01 -2.21186203E-01  3.31759891E-02 -5.95106725E-02 -5.51751768E-02
 -7.54991326E-02  1.02375381E-02  4.89659164E-03  3.82156444E-03 -1.28680587E-02
  5.03881693E-04 -1.75430486E-02  4.16618973E-02  2.32326843E-01 -1.61475207E-01
 -3.10027903E-02  5.78202407E-02  8.82559291E-02 -8.70005551E-02 -1.47143608E-02
  1.97284647E-02  1.80902061E-02 -2.40947261E-03 -2.56224080E-03  2.38237016E-02
 -5.37499379E-02  1.75199815E-01 -3.90865311E-02 -7.96437269E-03 -9.75013565E-02
  8.01701402E-02 -3.26640152E-02 -5.03317934E-03 -2.89809887E-02 -7.13447563E-03
 -1.23348092E-03  8.54098538E-04 -1.08047132E-01 -4.57012747E-02 -1.16879906E-01
 -5.50819747E-02  1.02260668E-01  4.64441158E-02 -1.66153754E-01 -9.58044360E-02
 -2.69078434E-03  1.07982235E-02 -1.54786755E-01  2.84290512E-01 -2.85482400E-02
 -3.44622541E-02 -3.90866758E-02  1.00073585E-01 -1.04343036E-02 -6.10676725E-02
 -4.86996968E-03  4.87108860E-03  1.16480693E-03 -8.61710938E-03  2.06451620E-02
  2.09445568E-01 -2.44189296E-01  2.39415366E-02  7.37320227E-03  5.63394012E-02
 -8.03904106E-02  1.10358150E-02  6.15611242E-02  2.38024129E-02 -3.34153754E-02
  6.70573345E-04 -2.32010188E-02  6.89659503E-02 -2.25509911E-01 -1.49014045E-01
  3.78013299E-02  7.90821041E-02 -9.00637200E-02 -5.96958354E-02  1.86037763E-02
 -7.04543236E-04 -1.51243875E-02  7.22137858E-03  1.95185176E-03  6.17321144E-02
 -1.34225696E-01  7.90892029E-02  3.05963140E-01  8.31554841E-02 -2.64325724E-01
  1.46538438E-02  1.17977525E-01  3.86310726E-02 -8.45611972E-02  1.53525704E-04
  4.56931615E-03  1.72462704E-03  2.41211904E-02  1.40349546E-02 -7.66150581E-02
 -5.67504680E-02 -1.26585322E-01 -7.83083179E-02 -8.53841982E-02 -6.13585609E-02
  8.95835225E-03 -2.24066451E-02  2.90472316E-01 -2.33606563E-02 -4.18943821E-02
 -1.81131041E-02  1.13037855E-01 -1.14637026E-03 -2.06703734E-02 -5.03788222E-02
  1.62104551E-02 -1.30460187E-02 -8.63472964E-04  1.37890638E-02 -2.71405788E-02
 -8.96493763E-02  1.38656483E-01 -7.35587404E-02 -4.25928066E-02 -4.53154398E-04
  3.06206075E-02 -3.52450049E-02 -4.16579581E-02  3.47546468E-02 -9.32638925E-03
 -2.99158093E-03 -3.11955051E-02  9.10973262E-02  6.59566383E-02 -2.60237733E-01
 -1.51797332E-01  7.82845785E-02  6.89682846E-02 -7.14900094E-02 -7.00947821E-02
  9.22002415E-02  3.49772894E-02 -1.43214149E-04 -9.53171067E-03  5.19156925E-02
 -1.13855483E-01  2.82002734E-01  2.19033863E-01 -8.39860689E-02 -1.99592293E-01
  1.31158513E-01  9.07605363E-02 -5.23928515E-02 -5.43092084E-02  4.53396722E-03
  1.30943205E-02  6.03551298E-05 -1.27901508E-01 -8.75881959E-02  1.76132116E-01
  1.23286105E-01 -6.56113409E-02 -3.79581920E-02  4.84190785E-02  4.02516836E-02
  8.43816357E-03 -2.21804113E-02  1.39282089E-01  4.02763839E-02  8.05415405E-02
 -1.08659698E-02  4.41186410E-02  2.93302380E-02  4.60009778E-02  1.12699860E-01
 -1.14707740E-02  2.17607066E-02  5.43691116E-03  5.16463211E-03 -8.90611215E-03
 -4.09416816E-02  4.82546009E-02  1.60116910E-01 -3.53741330E-02 -1.61466842E-03
  2.66983278E-02  7.68710599E-02 -1.47975238E-01 -1.41347137E-02  3.86127918E-02
 -6.58585197E-03 -7.92527884E-03  1.85126990E-02  1.05860550E-01 -9.41829084E-02
  3.30665901E-01  2.74313834E-02  6.61387813E-02 -4.45149472E-02  1.77996535E-01
  3.24628544E-02  1.81361293E-02 -1.43866794E-02  2.63604379E-02 -5.66743036E-05
  3.69590841E-04  9.94296032E-02 -9.66955213E-02  4.02027959E-01  4.25719082E-03
  5.60461602E-02 -5.61645876E-02  2.44431734E-01  3.53053744E-03  2.10748905E-03
  2.66284217E-03  9.24650687E-03 -3.09211031E-02 -2.07992707E-02  8.40710455E-02
  7.01670439E-02 -5.74571044E-02 -3.45803630E-02 -4.62431612E-04 -1.40758818E-03
 -6.80987658E-03  1.87458126E-02  1.64871823E-01  2.61937563E-01 -6.19108791E-02
 -1.77404088E-02  1.04798322E-01  1.26185547E-01 -3.36310258E-02 -4.64823837E-02
  2.39511324E-02  1.42842303E-02 -6.55218422E-03  9.47335787E-03 -1.34004428E-02
 -1.06361373E-01 -2.41026619E-01  1.46569368E-02 -5.81831651E-02 -5.45685547E-02
 -1.33090184E-01  8.51043654E-03  8.53991921E-02 -2.61788947E-02 -3.85442022E-02
  9.77307850E-03 -1.81862421E-02  2.76944271E-02  1.72755262E-01  1.49092930E-01
 -4.78207551E-02  6.25954382E-02  5.77798672E-02  5.32043086E-02 -3.11713270E-02
 -5.24773138E-02 -1.11617185E-02  7.98858450E-03 -5.19266989E-03 -2.72549157E-02
  5.77896550E-02 -5.80621020E-02 -2.26480101E-01 -1.26896247E-01  1.15691355E-01
 -1.93228967E-02 -1.03304755E-01 -7.40017736E-02  4.48242477E-02 -4.94993834E-04
 -1.55293875E-02 -4.03107402E-03  4.83640830E-02  3.57282244E-02  1.50058643E-01
  1.02596294E-01 -2.07339000E-01 -1.34477368E-01 -2.08186097E-01 -1.43853258E-01
 -2.99561423E-04  2.23913198E-03  2.06804464E-02  4.49383164E-02  3.68952270E-01
 -2.67236563E-02  3.02703024E-02  1.63050830E-02  2.32041461E-01 -1.49630389E-01
  2.45803840E-02 -2.00477688E-02  2.85701953E-02 -8.22282133E-04 -2.08087736E-03
  5.69369917E-03  4.40744558E-02  3.69276861E-01  3.41799655E-02  1.03984784E-02
  2.41758681E-03  2.61405757E-01  1.52328350E-01  2.78890555E-02 -4.29104073E-02
  6.64691276E-02  1.79377258E-03 -4.85083420E-05  1.12425787E-02 -1.76138160E-02
 -5.36485118E-02 -2.43898410E-02 -2.35986180E-03  1.15141677E-02 -4.27256019E-02
  3.65598772E-03  4.50786486E-04  4.13619203E-03 -3.76334992E-02 -1.70952727E-03
  5.17705015E-03 -4.01080800E-02  9.05099967E-02 -2.59847963E-01  1.39250673E-02
 -3.05832933E-02  6.15384827E-02 -1.77414130E-01 -9.47448665E-03 -5.56965720E-03
  6.84936347E-03 -1.53326999E-02 -3.59078479E-02 -4.43769770E-02  9.18067287E-04
 -4.67190856E-03  1.06557013E-04 -4.40721665E-03 -2.02540027E-03  1.76165079E-03
 -3.02640327E-03  4.39447427E-03 -4.03841354E-02  4.78197167E-02  2.42936422E-02
  1.19133310E-02 -8.10665041E-02  1.81590556E-02  1.69611971E-02  1.49528518E-01
 -5.31416622E-02  1.66945663E-02 -3.98010595E-03  3.67158909E-02 -6.97071557E-02
  2.20863056E-01  3.36838000E-02  1.73113647E-02 -3.03864083E-01  2.02846036E-01
  4.72346313E-02  3.48874635E-03 -2.91556490E-01  3.64060841E-02  4.72231867E-02
  3.91966550E-03 -1.69686743E-03 -1.44310560E-02 -1.29308430E-01  7.15425412E-02
  2.46322204E-02  8.96521099E-02  9.59554372E-02  1.35446539E-02 -1.01707101E-02
  1.38668177E-01  5.26233650E-02  1.96773812E-02 -7.84582309E-03  2.06810265E-03
 -6.65893393E-03  5.01020710E-01 -2.79479815E-01 -1.29985503E-01  7.13107744E-04
  3.40931596E-01 -1.85065405E-01 -8.64577760E-02  2.98503295E-02  5.12706345E-02