N.pdb                                                                   
Freq      RwB97XD                                                     6-31+G              
Number of atoms                            I               13
Info1-9                                    I   N=           9
          22          22        1002           0           0         100
           6          18        -802
Charge                                     I                0
Multiplicity                               I                1
Number of electrons                        I               64
Number of alpha electrons                  I               32
Number of beta electrons                   I               32
Number of basis functions                  I              114
Number of independent functions            I              114
Number of point charges in /Mol/           I                0
Number of translation vectors              I                0
Atomic numbers                             I   N=          13
           6           6           1           1           1           6
           8           6           1           1           9           9
           9
Nuclear charges                            R   N=          13
  6.00000000E+00  6.00000000E+00  1.00000000E+00  1.00000000E+00  1.00000000E+00
  6.00000000E+00  8.00000000E+00  6.00000000E+00  1.00000000E+00  1.00000000E+00
  9.00000000E+00  9.00000000E+00  9.00000000E+00
Current cartesian coordinates              R   N=          39
  3.27157288E+00  2.38097804E+00  6.38625784E-02  2.90037269E+00 -4.28731887E-01
  1.68589068E-01  2.13272078E+00  3.21274015E+00 -1.45151345E+00  5.26181981E+00
  2.78429547E+00 -2.85014774E-01  2.67143303E+00  3.27173704E+00  1.83223786E+00
  3.33109967E-01 -1.51701977E+00  9.30233079E-01  4.63717500E+00 -1.93121237E+00
 -2.40091198E-01 -1.95978481E+00 -1.28415353E-01  7.44630063E-03  2.32267725E-01
 -1.58286722E+00  2.99872292E+00  2.39044476E-01 -3.45780624E+00  2.34227784E-01
 -2.25970800E+00  2.23742756E+00  1.13092663E+00 -4.15534409E+00 -1.47436553E+00
  5.24240000E-01 -1.90787126E+00  2.79241701E-01 -2.59169073E+00
Force Field                                I                0
Int Atom Types                             I   N=          13
           0           0           0           0           0           0
           0           0           0           0           0           0
           0
MM charges                                 R   N=          13
  0.00000000E+00  0.00000000E+00  0.00000000E+00  0.00000000E+00  0.00000000E+00
  0.00000000E+00  0.00000000E+00  0.00000000E+00  0.00000000E+00  0.00000000E+00
  0.00000000E+00  0.00000000E+00  0.00000000E+00
Integer atomic weights                     I   N=          13
          12          12           1           1           1          12
          16          12           1           1          19          19
          19
Real atomic weights                        R   N=          13
  1.20000000E+01  1.20000000E+01  1.00782504E+00  1.00782504E+00  1.00782504E+00
  1.20000000E+01  1.59949146E+01  1.20000000E+01  1.00782504E+00  1.00782504E+00
  1.89984032E+01  1.89984032E+01  1.89984032E+01
Atom fragment info                         I   N=          13
           0           0           0           0           0           0
           0           0           0           0           0           0
           0
Atom residue num                           I   N=          13
           0           0           0           0           0           0
           0           0           0           0           0           0
           0
Nuclear spins                              I   N=          13
           0           0           1           1           1           0
           0           0           1           1           1           1
           1
Nuclear ZEff                               R   N=          13
 -3.60000000E+00 -3.60000000E+00 -1.00000000E+00 -1.00000000E+00 -1.00000000E+00
 -3.60000000E+00 -5.60000000E+00 -3.60000000E+00 -1.00000000E+00 -1.00000000E+00
 -6.75000000E+00 -6.75000000E+00 -6.75000000E+00
Nuclear ZNuc                               R   N=          13
  6.00000000E+00  6.00000000E+00  1.00000000E+00  1.00000000E+00  1.00000000E+00
  6.00000000E+00  8.00000000E+00  6.00000000E+00  1.00000000E+00  1.00000000E+00
  9.00000000E+00  9.00000000E+00  9.00000000E+00
Nuclear QMom                               R   N=          13
  0.00000000E+00  0.00000000E+00  0.00000000E+00  0.00000000E+00  0.00000000E+00
  0.00000000E+00  0.00000000E+00  0.00000000E+00  0.00000000E+00  0.00000000E+00
  0.00000000E+00  0.00000000E+00  0.00000000E+00
Nuclear GFac                               R   N=          13
  0.00000000E+00  0.00000000E+00  2.79284600E+00  2.79284600E+00  2.79284600E+00
  0.00000000E+00  0.00000000E+00  0.00000000E+00  2.79284600E+00  2.79284600E+00
  2.62886700E+00  2.62886700E+00  2.62886700E+00
MicOpt                                     I   N=          13
          -1          -1          -1          -1          -1          -1
          -1          -1          -1          -1          -1          -1
          -1
Number of contracted shells                I               42
Number of primitive shells                 I              108
Pure/Cartesian d shells                    I                1
Pure/Cartesian f shells                    I                0
Highest angular momentum                   I                1
Largest degree of contraction              I                6
Shell types                                I   N=          42
           0          -1          -1          -1           0          -1
          -1          -1           0           0           0           0
           0           0           0          -1          -1          -1
           0          -1          -1          -1           0          -1
          -1          -1           0           0           0           0
           0          -1          -1          -1           0          -1
          -1          -1           0          -1          -1          -1
Number of primitives per shell             I   N=          42
           6           3           1           1           6           3
           1           1           3           1           3           1
           3           1           6           3           1           1
           6           3           1           1           6           3
           1           1           3           1           3           1
           6           3           1           1           6           3
           1           1           6           3           1           1
Shell to atom map                          I   N=          42
           1           1           1           1           2           2
           2           2           3           3           4           4
           5           5           6           6           6           6
           7           7           7           7           8           8
           8           8           9           9          10          10
          11          11          11          11          12          12
          12          12          13          13          13          13
Primitive exponents                        R   N=         108
  3.04752488E+03  4.57369518E+02  1.03948685E+02  2.92101553E+01  9.28666296E+00
  3.16392696E+00  7.86827235E+00  1.88128854E+00  5.44249258E-01  1.68714478E-01
  4.38000000E-02  3.04752488E+03  4.57369518E+02  1.03948685E+02  2.92101553E+01
  9.28666296E+00  3.16392696E+00  7.86827235E+00  1.88128854E+00  5.44249258E-01
  1.68714478E-01  4.38000000E-02  1.87311370E+01  2.82539436E+00  6.40121692E-01
  1.61277759E-01  1.87311370E+01  2.82539436E+00  6.40121692E-01  1.61277759E-01
  1.87311370E+01  2.82539436E+00  6.40121692E-01  1.61277759E-01  3.04752488E+03
  4.57369518E+02  1.03948685E+02  2.92101553E+01  9.28666296E+00  3.16392696E+00
  7.86827235E+00  1.88128854E+00  5.44249258E-01  1.68714478E-01  4.38000000E-02
  5.48467166E+03  8.25234946E+02  1.88046958E+02  5.29645000E+01  1.68975704E+01
  5.79963534E+00  1.55396162E+01  3.59993359E+00  1.01376175E+00  2.70005823E-01
  8.45000000E-02  3.04752488E+03  4.57369518E+02  1.03948685E+02  2.92101553E+01
  9.28666296E+00  3.16392696E+00  7.86827235E+00  1.88128854E+00  5.44249258E-01
  1.68714478E-01  4.38000000E-02  1.87311370E+01  2.82539436E+00  6.40121692E-01
  1.61277759E-01  1.87311370E+01  2.82539436E+00  6.40121692E-01  1.61277759E-01
  7.00171309E+03  1.05136609E+03  2.39285690E+02  6.73974453E+01  2.15199573E+01
  7.40310130E+00  2.08479528E+01  4.80830834E+00  1.34406986E+00  3.58151393E-01
  1.07600000E-01  7.00171309E+03  1.05136609E+03  2.39285690E+02  6.73974453E+01
  2.15199573E+01  7.40310130E+00  2.08479528E+01  4.80830834E+00  1.34406986E+00
  3.58151393E-01  1.07600000E-01  7.00171309E+03  1.05136609E+03  2.39285690E+02
  6.73974453E+01  2.15199573E+01  7.40310130E+00  2.08479528E+01  4.80830834E+00
  1.34406986E+00  3.58151393E-01  1.07600000E-01
Contraction coefficients                   R   N=         108
  1.83473713E-03  1.40373228E-02  6.88426223E-02  2.32184443E-01  4.67941348E-01
  3.62311985E-01 -1.19332420E-01 -1.60854152E-01  1.14345644E+00  1.00000000E+00
  1.00000000E+00  1.83473713E-03  1.40373228E-02  6.88426223E-02  2.32184443E-01
  4.67941348E-01  3.62311985E-01 -1.19332420E-01 -1.60854152E-01  1.14345644E+00
  1.00000000E+00  1.00000000E+00  3.34946043E-02  2.34726953E-01  8.13757326E-01
  1.00000000E+00  3.34946043E-02  2.34726953E-01  8.13757326E-01  1.00000000E+00
  3.34946043E-02  2.34726953E-01  8.13757326E-01  1.00000000E+00  1.83473713E-03
  1.40373228E-02  6.88426223E-02  2.32184443E-01  4.67941348E-01  3.62311985E-01
 -1.19332420E-01 -1.60854152E-01  1.14345644E+00  1.00000000E+00  1.00000000E+00
  1.83107443E-03  1.39501722E-02  6.84450781E-02  2.32714336E-01  4.70192898E-01
  3.58520853E-01 -1.10777550E-01 -1.48026263E-01  1.13076702E+00  1.00000000E+00
  1.00000000E+00  1.83473713E-03  1.40373228E-02  6.88426223E-02  2.32184443E-01
  4.67941348E-01  3.62311985E-01 -1.19332420E-01 -1.60854152E-01  1.14345644E+00
  1.00000000E+00  1.00000000E+00  3.34946043E-02  2.34726953E-01  8.13757326E-01
  1.00000000E+00  3.34946043E-02  2.34726953E-01  8.13757326E-01  1.00000000E+00
  1.81961690E-03  1.39160796E-02  6.84053245E-02  2.33185760E-01  4.71267439E-01
  3.56618546E-01 -1.08506975E-01 -1.46451658E-01  1.12868858E+00  1.00000000E+00
  1.00000000E+00  1.81961690E-03  1.39160796E-02  6.84053245E-02  2.33185760E-01
  4.71267439E-01  3.56618546E-01 -1.08506975E-01 -1.46451658E-01  1.12868858E+00
  1.00000000E+00  1.00000000E+00  1.81961690E-03  1.39160796E-02  6.84053245E-02
  2.33185760E-01  4.71267439E-01  3.56618546E-01 -1.08506975E-01 -1.46451658E-01
  1.12868858E+00  1.00000000E+00  1.00000000E+00
P(S=P) Contraction coefficients            R   N=         108
  0.00000000E+00  0.00000000E+00  0.00000000E+00  0.00000000E+00  0.00000000E+00
  0.00000000E+00  6.89990666E-02  3.16423961E-01  7.44308291E-01  1.00000000E+00
  1.00000000E+00  0.00000000E+00  0.00000000E+00  0.00000000E+00  0.00000000E+00
  0.00000000E+00  0.00000000E+00  6.89990666E-02  3.16423961E-01  7.44308291E-01
  1.00000000E+00  1.00000000E+00  0.00000000E+00  0.00000000E+00  0.00000000E+00
  0.00000000E+00  0.00000000E+00  0.00000000E+00  0.00000000E+00  0.00000000E+00
  0.00000000E+00  0.00000000E+00  0.00000000E+00  0.00000000E+00  0.00000000E+00
  0.00000000E+00  0.00000000E+00  0.00000000E+00  0.00000000E+00  0.00000000E+00
  6.89990666E-02  3.16423961E-01  7.44308291E-01  1.00000000E+00  1.00000000E+00
  0.00000000E+00  0.00000000E+00  0.00000000E+00  0.00000000E+00  0.00000000E+00
  0.00000000E+00  7.08742682E-02  3.39752839E-01  7.27158577E-01  1.00000000E+00
  1.00000000E+00  0.00000000E+00  0.00000000E+00  0.00000000E+00  0.00000000E+00
  0.00000000E+00  0.00000000E+00  6.89990666E-02  3.16423961E-01  7.44308291E-01
  1.00000000E+00  1.00000000E+00  0.00000000E+00  0.00000000E+00  0.00000000E+00
  0.00000000E+00  0.00000000E+00  0.00000000E+00  0.00000000E+00  0.00000000E+00
  0.00000000E+00  0.00000000E+00  0.00000000E+00  0.00000000E+00  0.00000000E+00
  0.00000000E+00  7.16287242E-02  3.45912103E-01  7.22469956E-01  1.00000000E+00
  1.00000000E+00  0.00000000E+00  0.00000000E+00  0.00000000E+00  0.00000000E+00
  0.00000000E+00  0.00000000E+00  7.16287242E-02  3.45912103E-01  7.22469956E-01
  1.00000000E+00  1.00000000E+00  0.00000000E+00  0.00000000E+00  0.00000000E+00
  0.00000000E+00  0.00000000E+00  0.00000000E+00  7.16287242E-02  3.45912103E-01
  7.22469956E-01  1.00000000E+00  1.00000000E+00
Coordinates of each shell                  R   N=         126
  3.27157288E+00  2.38097804E+00  6.38625784E-02  3.27157288E+00  2.38097804E+00
  6.38625784E-02  3.27157288E+00  2.38097804E+00  6.38625784E-02  3.27157288E+00
  2.38097804E+00  6.38625784E-02  2.90037269E+00 -4.28731887E-01  1.68589068E-01
  2.90037269E+00 -4.28731887E-01  1.68589068E-01  2.90037269E+00 -4.28731887E-01
  1.68589068E-01  2.90037269E+00 -4.28731887E-01  1.68589068E-01  2.13272078E+00
  3.21274015E+00 -1.45151345E+00  2.13272078E+00  3.21274015E+00 -1.45151345E+00
  5.26181981E+00  2.78429547E+00 -2.85014774E-01  5.26181981E+00  2.78429547E+00
 -2.85014774E-01  2.67143303E+00  3.27173704E+00  1.83223786E+00  2.67143303E+00
  3.27173704E+00  1.83223786E+00  3.33109967E-01 -1.51701977E+00  9.30233079E-01
  3.33109967E-01 -1.51701977E+00  9.30233079E-01  3.33109967E-01 -1.51701977E+00
  9.30233079E-01  3.33109967E-01 -1.51701977E+00  9.30233079E-01  4.63717500E+00
 -1.93121237E+00 -2.40091198E-01  4.63717500E+00 -1.93121237E+00 -2.40091198E-01
  4.63717500E+00 -1.93121237E+00 -2.40091198E-01  4.63717500E+00 -1.93121237E+00
 -2.40091198E-01 -1.95978481E+00 -1.28415353E-01  7.44630063E-03 -1.95978481E+00
 -1.28415353E-01  7.44630063E-03 -1.95978481E+00 -1.28415353E-01  7.44630063E-03
 -1.95978481E+00 -1.28415353E-01  7.44630063E-03  2.32267725E-01 -1.58286722E+00
  2.99872292E+00  2.32267725E-01 -1.58286722E+00  2.99872292E+00  2.39044476E-01
 -3.45780624E+00  2.34227784E-01  2.39044476E-01 -3.45780624E+00  2.34227784E-01
 -2.25970800E+00  2.23742756E+00  1.13092663E+00 -2.25970800E+00  2.23742756E+00
  1.13092663E+00 -2.25970800E+00  2.23742756E+00  1.13092663E+00 -2.25970800E+00
  2.23742756E+00  1.13092663E+00 -4.15534409E+00 -1.47436553E+00  5.24240000E-01
 -4.15534409E+00 -1.47436553E+00  5.24240000E-01 -4.15534409E+00 -1.47436553E+00
  5.24240000E-01 -4.15534409E+00 -1.47436553E+00  5.24240000E-01 -1.90787126E+00
  2.79241701E-01 -2.59169073E+00 -1.90787126E+00  2.79241701E-01 -2.59169073E+00
 -1.90787126E+00  2.79241701E-01 -2.59169073E+00 -1.90787126E+00  2.79241701E-01
 -2.59169073E+00
Constraint Structure                       R   N=          39
  3.27157288E+00  2.38097804E+00  6.38625784E-02  2.90037269E+00 -4.28731887E-01
  1.68589068E-01  2.13272078E+00  3.21274015E+00 -1.45151345E+00  5.26181981E+00
  2.78429547E+00 -2.85014774E-01  2.67143303E+00  3.27173704E+00  1.83223786E+00
  3.33109967E-01 -1.51701977E+00  9.30233079E-01  4.63717500E+00 -1.93121237E+00
 -2.40091198E-01 -1.95978481E+00 -1.28415353E-01  7.44630063E-03  2.32267725E-01
 -1.58286722E+00  2.99872292E+00  2.39044476E-01 -3.45780624E+00  2.34227784E-01
 -2.25970800E+00  2.23742756E+00  1.13092663E+00 -4.15534409E+00 -1.47436553E+00
  5.24240000E-01 -1.90787126E+00  2.79241701E-01 -2.59169073E+00
Num ILSW                                   I              100
ILSW                                       I   N=         100
           0           1           0           0           2           0
           0           0           0           0        4639          -1
           0           0           0           0           2           0
           0           0           0           0           1           0
           1           0           0           0           0           0
           0           0      100000           0          -1           0
           0           0           0           0           0           0
           0           0           0           1           0           0
           0           0           1           0           0           0
           0           0         121          41           0           0
           0           0          58           0           0           0
           0           0           0          13           0           0
           0           0           0           0           0           0
           0           0           0           0           0           0
           0           0           0           0           0           0
           0           0           0           0           0           0
           0           0           0           0
Num RLSW                                   I               41
RLSW                                       R   N=          41
  1.00000000E+00  1.00000000E+00  1.00000000E+00  1.00000000E+00  1.00000000E+00
  0.00000000E+00  2.00000000E-01  2.22036000E-01  0.00000000E+00  7.77964000E-01
  0.00000000E+00  2.00000000E-01  0.00000000E+00  0.00000000E+00  1.00000000E+00
  0.00000000E+00  0.00000000E+00  1.00000000E+00  0.00000000E+00  0.00000000E+00
  0.00000000E+00  0.00000000E+00  1.00000000E+00  0.00000000E+00  0.00000000E+00
  0.00000000E+00  0.00000000E+00  1.00000000E+00  0.00000000E+00  0.00000000E+00
  0.00000000E+00  0.00000000E+00  1.00000000E+00  0.00000000E+00  0.00000000E+00
  0.00000000E+00  0.00000000E+00  0.00000000E+00  1.00000000E+00  1.00000000E+00
  0.00000000E+00
MxBond                                     I                4
NBond                                      I   N=          13
           4           3           1           1           1           4
           1           4           1           1           1           1
           1
IBond                                      I   N=          52
           2           3           4           5           1           6
           7           0           1           0           0           0
           1           0           0           0           1           0
           0           0           2           8           9          10
           2           0           0           0           6          11
          12          13           6           0           0           0
           6           0           0           0           8           0
           0           0           8           0           0           0
           8           0           0           0
RBond                                      R   N=          52
  1.00000000E+00  1.00000000E+00  1.00000000E+00  1.00000000E+00  1.00000000E+00
  1.00000000E+00  2.00000000E+00  0.00000000E+00  1.00000000E+00  0.00000000E+00
  0.00000000E+00  0.00000000E+00  1.00000000E+00  0.00000000E+00  0.00000000E+00
  0.00000000E+00  1.00000000E+00  0.00000000E+00  0.00000000E+00  0.00000000E+00
  1.00000000E+00  1.00000000E+00  1.00000000E+00  1.00000000E+00  2.00000000E+00
  0.00000000E+00  0.00000000E+00  0.00000000E+00  1.00000000E+00  1.00000000E+00
  1.00000000E+00  1.00000000E+00  1.00000000E+00  0.00000000E+00  0.00000000E+00
  0.00000000E+00  1.00000000E+00  0.00000000E+00  0.00000000E+00  0.00000000E+00
  1.00000000E+00  0.00000000E+00  0.00000000E+00  0.00000000E+00  1.00000000E+00
  0.00000000E+00  0.00000000E+00  0.00000000E+00  1.00000000E+00  0.00000000E+00
  0.00000000E+00  0.00000000E+00
Virial Ratio                               R      2.005192309368263E+00
SCF Energy                                 R     -5.299278839166657E+02
Total Energy                               R     -5.299278839166657E+02
RMS Force                                  R      3.681221115191847E-05
RMS Density                                R      9.017196566059974E-10
External E-field                           R   N=          35
  0.00000000E+00  0.00000000E+00  0.00000000E+00  0.00000000E+00  0.00000000E+00
  0.00000000E+00  0.00000000E+00  0.00000000E+00  0.00000000E+00  0.00000000E+00
  0.00000000E+00  0.00000000E+00  0.00000000E+00  0.00000000E+00  0.00000000E+00
  0.00000000E+00  0.00000000E+00  0.00000000E+00  0.00000000E+00  0.00000000E+00
  0.00000000E+00  0.00000000E+00  0.00000000E+00  0.00000000E+00  0.00000000E+00
  0.00000000E+00  0.00000000E+00  0.00000000E+00  0.00000000E+00  0.00000000E+00
  0.00000000E+00  0.00000000E+00  0.00000000E+00  0.00000000E+00  0.00000000E+00
IOpCl                                      I                0
IROHF                                      I                0
Alpha Orbital Energies                     R   N=         114
 -2.48923894E+01 -2.48923657E+01 -2.48909569E+01 -1.93031185E+01 -1.05956733E+01
 -1.04394502E+01 -1.03640192E+01 -1.03207361E+01 -1.44029804E+00 -1.35548879E+00
 -1.35478926E+00 -1.19492327E+00 -9.52992749E-01 -8.72628154E-01 -8.02016160E-01
 -7.10960032E-01 -7.04064493E-01 -6.92737368E-01 -6.42724745E-01 -5.97512031E-01
 -5.84925366E-01 -5.76904648E-01 -5.69855365E-01 -5.52899865E-01 -5.42559201E-01
 -5.37553469E-01 -5.27197356E-01 -5.21332969E-01 -5.04829157E-01 -4.96097283E-01
 -4.62163923E-01 -3.69936604E-01  1.30855993E-02  6.22261275E-02  8.08469852E-02
  9.36255483E-02  1.01081533E-01  1.07140656E-01  1.11648368E-01  1.18816364E-01
  1.27757424E-01  1.34547924E-01  1.36402601E-01  1.58918284E-01  1.67645867E-01
  1.72142645E-01  1.77833853E-01  1.78992896E-01  1.83999581E-01  1.96710191E-01
  2.10220402E-01  2.20034001E-01  2.57703588E-01  2.65533779E-01  2.79281591E-01
  2.90357721E-01  3.13030763E-01  3.34849337E-01  3.42497742E-01  3.46794857E-01
  3.64579720E-01  3.72504206E-01  3.82311232E-01  3.88091190E-01  3.93963928E-01
  4.08898561E-01  4.13564772E-01  4.30704798E-01  4.33327404E-01  4.41052213E-01
  4.49368350E-01  4.53667007E-01  4.58570140E-01  4.94353651E-01  5.11815376E-01
  5.26105569E-01  5.37621313E-01  7.11945380E-01  7.34491982E-01  7.55200130E-01
  7.70179645E-01  8.07412839E-01  8.30747834E-01  8.47800037E-01  8.70684391E-01
  9.06347983E-01  9.45979153E-01  9.62550481E-01  1.04569088E+00  1.10355852E+00
  1.15230217E+00  1.16749726E+00  1.21398612E+00  1.22316452E+00  1.23377357E+00
  1.34824025E+00  1.39754564E+00  1.44129087E+00  1.46636989E+00  1.51306598E+00
  1.56365866E+00  1.59685648E+00  1.64137226E+00  1.67418983E+00  1.69091551E+00
  1.73462214E+00  1.79974364E+00  1.82246099E+00  1.83605489E+00  1.85098543E+00
  1.98202101E+00  2.29743689E+00  2.33300645E+00  2.66878334E+00
Alpha MO coefficients                      R   N=       12996
  2.35869863E-05  2.79524115E-04 -1.91278053E-04 -3.90569581E-05 -1.16430431E-05
  1.33712507E-04  8.91047754E-04  1.33907745E-04 -1.55314152E-04  1.17542369E-02
 -1.56298458E-03 -2.40570360E-03 -4.86156489E-04 -7.54266293E-07  1.58291091E-04
 -1.48727675E-04  6.27652233E-05 -2.63580344E-05  1.76825102E-03 -2.83378630E-04
 -7.66921960E-04  2.40851707E-04 -4.66283041E-03 -2.46686795E-04 -5.17818413E-03
  9.91474768E-04  2.19309840E-04 -5.01209743E-04 -3.98516616E-05 -7.64652600E-04
  1.12303460E-04 -7.04043898E-05  1.10714965E-04  5.55004113E-04  2.62173298E-04
 -1.86398167E-04  8.95322450E-05 -3.87212819E-03  2.01066858E-04 -1.10218366E-03
  1.02776463E-03  1.85971963E-02 -7.35495006E-03  3.58113760E-03 -1.53782933E-03
  5.27868649E-06  6.11706090E-05 -1.63583881E-05  3.15413001E-05  3.04148726E-05
 -4.37084097E-04  2.94258095E-04 -2.03060855E-04 -1.73173804E-04 -7.94267711E-04
 -1.58286689E-04  3.15016445E-04 -1.29691062E-04 -2.53616375E-04 -1.14221958E-03
 -2.21036433E-04  5.79362911E-04 -3.05617603E-04  9.35999453E-03 -4.29999719E-04
  1.26384067E-03 -1.19588134E-03 -3.04297403E-02 -7.49168592E-03  2.02741213E-03
 -2.25459372E-03  1.28444200E-04  1.67483885E-04  1.53782763E-04  5.19698868E-04
  6.98285335E-01  1.99144366E-02  1.53984814E-04 -9.08569991E-04 -4.48004225E-04
 -1.28344224E-02 -3.90783828E-04  2.15437788E-03  1.38771474E-03  7.67902874E-03
  6.93651168E-04 -1.55550044E-03 -1.07366446E-04  7.03682973E-03  6.03869653E-04
  4.16060762E-05  4.00334850E-05 -2.53713354E-05 -1.82852368E-03 -8.73177992E-04
 -8.74556832E-04  4.31023555E-04 -1.36679175E-03 -3.72284676E-04 -9.18656201E-04
  4.61979545E-04  7.08879131E-01  2.02015249E-02  2.34591315E-05 -1.43495185E-04
  1.04340166E-03 -1.29973101E-02 -4.11884915E-05  1.20259330E-04 -2.68185863E-03
  6.95306645E-03  7.38451319E-04 -7.73909581E-04  9.54650801E-04  5.03856610E-05
  4.00561237E-04 -6.23833158E-05  8.32259997E-05  3.50406610E-05 -2.63653681E-03
  1.14078497E-03  7.67455027E-04 -2.13182768E-04 -7.76565888E-03  1.26008761E-03
  1.82929504E-03  1.69076133E-04 -3.34798316E-05 -3.27648860E-04  6.02013713E-05
 -7.56148261E-05  2.73045318E-05  1.30439762E-03 -8.83364908E-04  2.09064948E-03
  2.57394263E-04  1.44854421E-02 -2.89971465E-03  1.87932721E-03 -5.93008108E-05
  7.83670031E-05  7.20871552E-04 -6.06267960E-06 -3.02087449E-04  1.93431237E-04
  1.01880805E-04  1.67498268E-05  1.11116944E-04 -6.74586743E-05  8.11957742E-05
  9.99615520E-05 -9.47256462E-04  6.35657309E-04 -1.99931566E-03 -1.73610026E-03
 -1.03055144E-02 -3.82330889E-04 -1.74638753E-03  1.10453024E-03 -6.11556111E-06
 -5.22273654E-05 -9.50306692E-06  8.72299525E-06  3.87759552E-07  8.01518875E-04
 -2.11297698E-04  2.77548332E-06  3.47923370E-05 -3.27867422E-04  3.87578699E-04
 -1.81403091E-05  1.31548417E-04 -1.34720812E-05 -5.59440759E-05 -4.43904489E-05
  3.93896076E-04  7.36868111E-04  8.78757439E-04  8.49439226E-05  3.92084486E-04
  1.50132056E-03  4.21111248E-03  1.00336063E-03 -4.98522171E-04 -5.15813101E-04
  3.22625072E-04  3.98787768E-04 -2.96507016E-04 -6.71299864E-04  7.08852244E-01
  1.96865595E-02  1.46307130E-04 -8.93884322E-04 -4.17084575E-04 -1.09220887E-02
 -2.79853681E-04  1.35419680E-03  3.94686134E-04  8.05224063E-03  8.26548743E-04
 -2.12310878E-03 -1.80155584E-03  1.53281910E-03  8.95006198E-05  1.04261665E-05
  1.14731264E-05  2.08167348E-05 -2.28163304E-04 -7.00491929E-05 -2.27875816E-04
 -3.83770924E-04 -1.01633518E-05  1.22247458E-04 -3.78909674E-04 -7.72926231E-04
 -6.98272162E-01 -1.93739904E-02 -1.92257335E-06  1.54443335E-04 -9.70053265E-04
  1.06855027E-02  5.03224052E-05 -4.12459799E-04  1.26052544E-03 -8.40447407E-03
 -2.47165495E-04 -2.45319091E-04 -2.76621970E-03  8.57400286E-06  3.72430311E-05
  3.73144571E-05  4.12561570E-05 -3.12602364E-05 -1.06810931E-03  2.00783676E-04
  4.24533759E-04  2.96378356E-04  2.39264356E-04  6.93025309E-04 -1.21097378E-04
 -1.46821479E-05 -5.60220207E-06 -1.19246683E-04  8.22143444E-05 -6.28896800E-05
  4.53212165E-05 -1.04585573E-03 -5.55216574E-04  1.79217217E-03 -4.36320825E-04
 -6.79955215E-05 -1.12819338E-03 -1.01957008E-03  3.56151980E-04  1.12729874E-06
  4.73833275E-04  1.53245696E-05  3.96288259E-05  2.64765966E-05 -2.02879243E-04
  6.33875328E-05  2.36552447E-04  8.50430717E-05 -5.74307317E-05  8.19312606E-05
 -2.08379688E-03  2.82628506E-03 -4.44637640E-04 -1.24761213E-04  1.14675263E-02
 -2.62171605E-03  1.78584404E-03 -1.33290622E-03 -9.69804623E-06 -1.24156059E-04
  1.05164888E-05 -1.02329023E-05 -2.02526288E-05  1.01574516E-03 -3.33552751E-04
  1.63276295E-04  2.19576273E-04  1.94782949E-04  3.25751931E-04  2.83574898E-04
 -3.45897482E-05 -2.06449330E-04 -1.03941439E-03 -6.13132001E-04 -3.39912843E-04
  1.00122691E-04  8.98213614E-03 -1.84110224E-03 -7.89338413E-04  5.61268268E-04
 -1.35285916E-02 -1.87076515E-03  2.82975228E-03 -1.24775694E-03  2.82160671E-04
 -2.85982735E-04  1.94088720E-04 -5.60390322E-04 -5.98067494E-03  1.56695125E-04
 -2.40054701E-05 -2.89403825E-05  9.31771900E-06 -1.32351190E-03  3.10354943E-04
  9.71180866E-04  2.20523518E-04 -1.76505673E-03  6.21764820E-04  1.14404971E-03
  1.86835887E-04  9.95014255E-01  2.79317700E-02  1.23608661E-03  7.51740346E-04
 -2.80117695E-04 -1.65799165E-02 -2.52543319E-03 -1.60872522E-03  5.88071992E-04
  8.80498067E-03  1.88580735E-03  1.05668149E-03 -4.63853575E-04 -3.89529530E-03
  1.44966115E-04 -3.58202173E-05 -2.59054984E-05  2.10489637E-05 -9.98420902E-04
  4.86811760E-04  3.66775382E-04 -8.24658436E-04 -2.05380986E-03  3.76686718E-04
  4.48904873E-04 -1.17284306E-03 -3.09650374E-05 -4.43572604E-04 -3.84173386E-05
  1.06082148E-04  9.11484589E-06  3.46617722E-03 -2.30550321E-03 -1.04426837E-03
  5.41039289E-04  1.43439010E-02 -3.31737061E-04 -3.64124323E-03  1.65964111E-04
  2.27878843E-04  3.99539857E-04 -7.46188675E-05  1.63348076E-04 -1.77231171E-05
  7.65906395E-03  6.44950578E-03 -8.24507126E-03 -1.55101068E-03 -2.82949963E-02
  7.72723743E-04 -2.29924979E-03 -5.31313444E-04 -9.10657634E-05 -5.72639840E-04
  1.07239985E-04  3.22362023E-04 -1.60674052E-04 -5.29682177E-04 -1.30845885E-05
 -3.58078468E-04 -6.56508816E-05 -1.26162058E-04 -8.73600272E-05  8.98922735E-04
 -2.03866144E-03  2.75377973E-03  1.49260789E-03  8.59552698E-03  2.57905988E-03
  1.59380500E-03  6.95609485E-04  9.95245043E-01  2.98510574E-02 -1.71659543E-03
  1.41460941E-03  4.09270617E-04 -2.40062707E-02  4.72090601E-03 -3.59484662E-03
 -1.08187622E-03  7.95155002E-03 -8.13097220E-04  4.65994254E-04  5.50881608E-05
 -2.42413842E-05 -2.91884416E-04 -2.10846043E-04 -1.86195957E-05  8.92345722E-05
 -5.92747835E-04  9.28798678E-04  1.10504732E-03 -2.32190900E-03  1.37732380E-03
  4.64107683E-04 -7.96135131E-04 -9.13795811E-04 -7.95984208E-05 -1.16383156E-03
  1.67395379E-04  1.09332458E-03 -6.00930112E-07  1.44639891E-05  2.99891785E-05
 -5.01345459E-06 -3.68605360E-05  6.72250479E-05 -1.68118947E-04 -2.97014574E-05
  2.40649392E-04 -2.73090081E-04 -4.30359956E-04 -1.00833109E-04  6.42822828E-05
 -5.25177209E-06 -1.08050928E-04 -3.05818396E-05 -3.07728781E-05 -2.14797139E-05
  5.56690554E-04  2.96615221E-04  2.14051125E-04  1.37048748E-04  9.87404982E-04
  2.77515212E-04  2.36585001E-04 -5.96752899E-05  5.85359806E-06  7.43485336E-05
 -1.24775674E-05  1.87313819E-05  3.03233076E-05 -5.66807894E-04 -3.45869116E-05
 -7.73667490E-05 -3.66503251E-04 -1.40137119E-03  4.07717430E-04  1.27748439E-04