 Entering Gaussian System, Link 0=/opt/cluster/programs/g09_d.01/g09//g09
 Input=/home/unibas/boittier/RDKit_G2/O.pdb/SCAN_1_2_6_8_S_17_20.0/8_SCAN_1_2_6_8_F/8_SCAN_O.pdb.com
 Output=/scratch/boittier/8_SCAN_O.pdb/8_SCAN_O.pdb.out
 Initial command:
 /opt/cluster/programs/g09_d.01/g09/l1.exe "/scratch/boittier/8_SCAN_O.pdb/Gau-144807.inp" -scrdir="/scratch/boittier/8_SCAN_O.pdb/"
 Entering Link 1 = /opt/cluster/programs/g09_d.01/g09/l1.exe PID=    144809.
  
 Copyright (c) 1988,1990,1992,1993,1995,1998,2003,2009,2013,
            Gaussian, Inc.  All Rights Reserved.
  
 This is part of the Gaussian(R) 09 program.  It is based on
 the Gaussian(R) 03 system (copyright 2003, Gaussian, Inc.),
 the Gaussian(R) 98 system (copyright 1998, Gaussian, Inc.),
 the Gaussian(R) 94 system (copyright 1995, Gaussian, Inc.),
 the Gaussian 92(TM) system (copyright 1992, Gaussian, Inc.),
 the Gaussian 90(TM) system (copyright 1990, Gaussian, Inc.),
 the Gaussian 88(TM) system (copyright 1988, Gaussian, Inc.),
 the Gaussian 86(TM) system (copyright 1986, Carnegie Mellon
 University), and the Gaussian 82(TM) system (copyright 1983,
 Carnegie Mellon University). Gaussian is a federally registered
 trademark of Gaussian, Inc.
  
 This software contains proprietary and confidential information,
 including trade secrets, belonging to Gaussian, Inc.
  
 This software is provided under written license and may be
 used, copied, transmitted, or stored only in accord with that
 written license.
  
 The following legend is applicable only to US Government
 contracts under FAR:
  
                    RESTRICTED RIGHTS LEGEND
  
 Use, reproduction and disclosure by the US Government is
 subject to restrictions as set forth in subparagraphs (a)
 and (c) of the Commercial Computer Software - Restricted
 Rights clause in FAR 52.227-19.
  
 Gaussian, Inc.
 340 Quinnipiac St., Bldg. 40, Wallingford CT 06492
  
  
 ---------------------------------------------------------------
 Warning -- This program may not be used in any manner that
 competes with the business of Gaussian, Inc. or will provide
 assistance to any competitor of Gaussian, Inc.  The licensee
 of this program is prohibited from giving any competitor of
 Gaussian, Inc. access to this program.  By using this program,
 the user acknowledges that Gaussian, Inc. is engaged in the
 business of creating and licensing software in the field of
 computational chemistry and represents and warrants to the
 licensee that it is not a competitor of Gaussian, Inc. and that
 it will not use this program in any manner prohibited above.
 ---------------------------------------------------------------
  

 Cite this work as:
 Gaussian 09, Revision D.01,
 M. J. Frisch, G. W. Trucks, H. B. Schlegel, G. E. Scuseria, 
 M. A. Robb, J. R. Cheeseman, G. Scalmani, V. Barone, B. Mennucci, 
 G. A. Petersson, H. Nakatsuji, M. Caricato, X. Li, H. P. Hratchian, 
 A. F. Izmaylov, J. Bloino, G. Zheng, J. L. Sonnenberg, M. Hada, 
 M. Ehara, K. Toyota, R. Fukuda, J. Hasegawa, M. Ishida, T. Nakajima, 
 Y. Honda, O. Kitao, H. Nakai, T. Vreven, J. A. Montgomery, Jr., 
 J. E. Peralta, F. Ogliaro, M. Bearpark, J. J. Heyd, E. Brothers, 
 K. N. Kudin, V. N. Staroverov, T. Keith, R. Kobayashi, J. Normand, 
 K. Raghavachari, A. Rendell, J. C. Burant, S. S. Iyengar, J. Tomasi, 
 M. Cossi, N. Rega, J. M. Millam, M. Klene, J. E. Knox, J. B. Cross, 
 V. Bakken, C. Adamo, J. Jaramillo, R. Gomperts, R. E. Stratmann, 
 O. Yazyev, A. J. Austin, R. Cammi, C. Pomelli, J. W. Ochterski, 
 R. L. Martin, K. Morokuma, V. G. Zakrzewski, G. A. Voth, 
 P. Salvador, J. J. Dannenberg, S. Dapprich, A. D. Daniels, 
 O. Farkas, J. B. Foresman, J. V. Ortiz, J. Cioslowski, 
 and D. J. Fox, Gaussian, Inc., Wallingford CT, 2013.
 
 ******************************************
 Gaussian 09:  ES64L-G09RevD.01 24-Apr-2013
                26-May-2021 
 ******************************************
 %chk=/home/unibas/boittier/RDKit_G2/O.pdb/SCAN_1_2_6_8_S_17_20.0/8_SCAN_1_2_6_8_
 F/O.pdb.chk
 %nproc=8
 Will use up to    8 processors via shared memory.
 %mem=16GB
 -----------------------------
 #p wB97XD/6-31+G Opt=ModRedun
 -----------------------------
 1/14=-1,18=120,19=15,26=3,38=1/1,3;
 2/9=110,12=2,17=6,18=5,40=1/2;
 3/5=1,6=6,7=10,11=2,16=1,25=1,30=1,71=1,74=-58/1,2,3;
 4//1;
 5/5=2,38=5/2;
 6/7=2,8=2,9=2,10=2,28=1/1;
 7//1,2,3,16;
 1/14=-1,18=20,19=15,26=3/3(2);
 2/9=110/2;
 99//99;
 2/9=110/2;
 3/5=1,6=6,7=10,11=2,16=1,25=1,30=1,71=1,74=-58/1,2,3;
 4/5=5,16=3,69=1/1;
 5/5=2,38=5/2;
 7//1,2,3,16;
 1/14=-1,18=20,19=15,26=3/3(-5);
 2/9=110/2;
 6/7=2,8=2,9=2,10=2,19=2,28=1/1;
 99/9=1/99;
 Leave Link    1 at Wed May 26 09:01:13 2021, MaxMem=  2147483648 cpu:         0.2
 (Enter /opt/cluster/programs/g09_d.01/g09/l101.exe)
 -----
 O.pdb
 -----
 Symbolic Z-matrix:
 Charge =  0 Multiplicity = 1
 C                     0.69688  -1.34411   0.02615 
 C                     0.6092    0.16063   0.00362 
 H                     0.29496  -1.73909   0.9651 
 H                     1.74452  -1.62865  -0.06272 
 H                     0.1355   -1.79641  -0.7977 
 O                    -0.63432   0.72712   0.16559 
 O                     1.58124   0.89991  -0.08131 
 C                    -1.85066  -0.02977  -0.08723 
 H                    -1.88915  -0.35972  -1.12894 
 H                    -2.6577    0.67297   0.10681 
 H                    -1.93602  -0.88581   0.58794 
 
 The following ModRedundant input section has been read:
 D       1       2       6       8 F                                           
 
 NAtoms=     11 NQM=       11 NQMF=       0 NMMI=      0 NMMIF=      0
                NMic=       0 NMicF=      0.
                    Isotopes and Nuclear Properties:
 (Nuclear quadrupole moments (NQMom) in fm**2, nuclear magnetic moments (NMagM)
  in nuclear magnetons)

  Atom         1           2           3           4           5           6           7           8           9          10
 IAtWgt=          12          12           1           1           1          16          16          12           1           1
 AtmWgt=  12.0000000  12.0000000   1.0078250   1.0078250   1.0078250  15.9949146  15.9949146  12.0000000   1.0078250   1.0078250
 NucSpn=           0           0           1           1           1           0           0           0           1           1
 AtZEff=   0.0000000   0.0000000   0.0000000   0.0000000   0.0000000   0.0000000   0.0000000   0.0000000   0.0000000   0.0000000
 NQMom=    0.0000000   0.0000000   0.0000000   0.0000000   0.0000000   0.0000000   0.0000000   0.0000000   0.0000000   0.0000000
 NMagM=    0.0000000   0.0000000   2.7928460   2.7928460   2.7928460   0.0000000   0.0000000   0.0000000   2.7928460   2.7928460
 AtZNuc=   6.0000000   6.0000000   1.0000000   1.0000000   1.0000000   8.0000000   8.0000000   6.0000000   1.0000000   1.0000000

  Atom        11
 IAtWgt=           1
 AtmWgt=   1.0078250
 NucSpn=           1
 AtZEff=   0.0000000
 NQMom=    0.0000000
 NMagM=    2.7928460
 AtZNuc=   1.0000000
 Leave Link  101 at Wed May 26 09:01:14 2021, MaxMem=  2147483648 cpu:         4.2
 (Enter /opt/cluster/programs/g09_d.01/g09/l103.exe)

 GradGradGradGradGradGradGradGradGradGradGradGradGradGradGradGradGradGrad
 Berny optimization.
 Initialization pass.
                           ----------------------------
                           !    Initial Parameters    !
                           ! (Angstroms and Degrees)  !
 --------------------------                            --------------------------
 ! Name  Definition              Value          Derivative Info.                !
 --------------------------------------------------------------------------------
 ! R1    R(1,2)                  1.5075         estimate D2E/DX2                !
 ! R2    R(1,3)                  1.0951         estimate D2E/DX2                !
 ! R3    R(1,4)                  1.0892         estimate D2E/DX2                !
 ! R4    R(1,5)                  1.0947         estimate D2E/DX2                !
 ! R5    R(2,6)                  1.376          estimate D2E/DX2                !
 ! R6    R(2,7)                  1.2242         estimate D2E/DX2                !
 ! R7    R(6,8)                  1.4547         estimate D2E/DX2                !
 ! R8    R(8,9)                  1.0934         estimate D2E/DX2                !
 ! R9    R(8,10)                 1.0876         estimate D2E/DX2                !
 ! R10   R(8,11)                 1.0936         estimate D2E/DX2                !
 ! A1    A(2,1,3)              110.5793         estimate D2E/DX2                !
 ! A2    A(2,1,4)              108.3898         estimate D2E/DX2                !
 ! A3    A(2,1,5)              111.7988         estimate D2E/DX2                !
 ! A4    A(3,1,4)              109.1927         estimate D2E/DX2                !
 ! A5    A(3,1,5)              107.9412         estimate D2E/DX2                !
 ! A6    A(4,1,5)              108.8978         estimate D2E/DX2                !
 ! A7    A(1,2,6)              117.4996         estimate D2E/DX2                !
 ! A8    A(1,2,7)              123.8945         estimate D2E/DX2                !
 ! A9    A(6,2,7)              118.4971         estimate D2E/DX2                !
 ! A10   A(2,6,8)              121.3956         estimate D2E/DX2                !
 ! A11   A(6,8,9)              110.6104         estimate D2E/DX2                !
 ! A12   A(6,8,10)             104.6701         estimate D2E/DX2                !
 ! A13   A(6,8,11)             111.4225         estimate D2E/DX2                !
 ! A14   A(9,8,10)             109.8064         estimate D2E/DX2                !
 ! A15   A(9,8,11)             110.441          estimate D2E/DX2                !
 ! A16   A(10,8,11)            109.7384         estimate D2E/DX2                !
 ! D1    D(3,1,2,6)            -57.4807         estimate D2E/DX2                !
 ! D2    D(3,1,2,7)            118.6608         estimate D2E/DX2                !
 ! D3    D(4,1,2,6)           -177.1425         estimate D2E/DX2                !
 ! D4    D(4,1,2,7)             -1.0009         estimate D2E/DX2                !
 ! D5    D(5,1,2,6)             62.8203         estimate D2E/DX2                !
 ! D6    D(5,1,2,7)           -121.0381         estimate D2E/DX2                !
 ! D7    D(1,2,6,8)            -20.6146         Frozen                          !
 ! D8    D(7,2,6,8)            163.0295         estimate D2E/DX2                !
 ! D9    D(2,6,8,9)            -60.9509         estimate D2E/DX2                !
 ! D10   D(2,6,8,10)          -179.1585         estimate D2E/DX2                !
 ! D11   D(2,6,8,11)            62.3044         estimate D2E/DX2                !
 --------------------------------------------------------------------------------
 Trust Radius=3.00D-01 FncErr=1.00D-07 GrdErr=1.00D-06
 Number of steps in this run=     47 maximum allowed number of steps=    100.
 GradGradGradGradGradGradGradGradGradGradGradGradGradGradGradGradGradGrad

 Leave Link  103 at Wed May 26 09:01:14 2021, MaxMem=  2147483648 cpu:         0.1
 (Enter /opt/cluster/programs/g09_d.01/g09/l202.exe)
                          Input orientation:                          
 ---------------------------------------------------------------------
 Center     Atomic      Atomic             Coordinates (Angstroms)
 Number     Number       Type             X           Y           Z
 ---------------------------------------------------------------------
      1          6           0        0.696875   -1.344109    0.026148
      2          6           0        0.609200    0.160626    0.003622
      3          1           0        0.294961   -1.739088    0.965101
      4          1           0        1.744515   -1.628647   -0.062724
      5          1           0        0.135504   -1.796413   -0.797700
      6          8           0       -0.634319    0.727120    0.165591
      7          8           0        1.581243    0.899909   -0.081310
      8          6           0       -1.850659   -0.029771   -0.087225
      9          1           0       -1.889149   -0.359722   -1.128944
     10          1           0       -2.657702    0.672972    0.106810
     11          1           0       -1.936020   -0.885807    0.587943
 ---------------------------------------------------------------------
                    Distance matrix (angstroms):
                    1          2          3          4          5
     1  C    0.000000
     2  C    1.507455   0.000000
     3  H    1.095069   2.152232   0.000000
     4  H    1.089224   2.120104   1.780401   0.000000
     5  H    1.094734   2.167142   1.770926   1.776866   0.000000
     6  O    2.466072   1.376041   2.754081   3.355684   2.808696
     7  O    2.414388   1.224182   3.116697   2.533890   3.142217
     8  C    2.868844   2.468889   2.938169   3.934753   2.751480
     9  H    2.998462   2.791991   3.325359   3.993809   2.504600
    10  H    3.915138   3.308443   3.908058   4.970484   3.836405
    11  H    2.730896   2.813290   2.418184   3.810711   2.653379
                    6          7          8          9         10
     6  O    0.000000
     7  O    2.235963   0.000000
     8  C    1.454745   3.555600   0.000000
     9  H    2.105147   3.837685   1.093402   0.000000
    10  H    2.024961   4.249182   1.087573   1.784438   0.000000
    11  H    2.115264   4.000977   1.093589   1.796292   1.783846
                   11
    11  H    0.000000
 Stoichiometry    C3H6O2
 Framework group  C1[X(C3H6O2)]
 Deg. of freedom    27
 Full point group                 C1      NOp   1
 Largest Abelian subgroup         C1      NOp   1
 Largest concise Abelian subgroup C1      NOp   1
                         Standard orientation:                         
 ---------------------------------------------------------------------
 Center     Atomic      Atomic             Coordinates (Angstroms)
 Number     Number       Type             X           Y           Z
 ---------------------------------------------------------------------
      1          6           0        0.696875    1.344109   -0.026148
      2          6           0        0.609200   -0.160626   -0.003622
      3          1           0        0.294961    1.739088   -0.965101
      4          1           0        1.744515    1.628647    0.062724
      5          1           0        0.135504    1.796413    0.797700
      6          8           0       -0.634319   -0.727120   -0.165591
      7          8           0        1.581243   -0.899909    0.081310
      8          6           0       -1.850659    0.029771    0.087225
      9          1           0       -1.889149    0.359722    1.128944
     10          1           0       -2.657702   -0.672972   -0.106810
     11          1           0       -1.936020    0.885807   -0.587943
 ---------------------------------------------------------------------
 Rotational constants (GHZ):      8.8541733      4.2393685      2.9982206
 Leave Link  202 at Wed May 26 09:01:14 2021, MaxMem=  2147483648 cpu:         0.0
 (Enter /opt/cluster/programs/g09_d.01/g09/l301.exe)
 Standard basis: 6-31+G (6D, 7F)
 Ernie: Thresh=  0.10000D-02 Tol=  0.10000D-05 Strict=F.
 There are    77 symmetry adapted cartesian basis functions of A   symmetry.
 There are    77 symmetry adapted basis functions of A   symmetry.
    77 basis functions,   154 primitive gaussians,    77 cartesian basis functions
    20 alpha electrons       20 beta electrons
       nuclear repulsion energy       179.1164515889 Hartrees.
 IExCor= 4639 DFT=T Ex+Corr=wB97XD ExCW=0 ScaHFX=  1.000000
 ScaDFX=  1.000000  1.000000  1.000000  1.000000 ScalE2=  1.000000  1.000000
 IRadAn=      0 IRanWt=     -1 IRanGd=            0 ICorTp=0 IEmpDi=121
  HFx wShort=  0.000000 wLong=  0.200000 cFull=  0.222036 cShort=  0.000000 cLong=  0.777964
  DFx wShort=  0.000000 wLong=  0.200000 cFull=  0.000000 cShort=  0.000000 cLong=  1.000000
 NAtoms=   11 NActive=   11 NUniq=   11 SFac= 1.00D+00 NAtFMM=   60 NAOKFM=F Big=F
 Integral buffers will be    131072 words long.
 Raffenetti 2 integral format.
 Two-electron integral symmetry is turned on.
 R6Disp:  Grimme-D2 Dispersion energy=       -0.0039271296 Hartrees.
 Nuclear repulsion after empirical dispersion term =      179.1125244594 Hartrees.
 Leave Link  301 at Wed May 26 09:01:14 2021, MaxMem=  2147483648 cpu:         0.3
 (Enter /opt/cluster/programs/g09_d.01/g09/l302.exe)
 NPDir=0 NMtPBC=     1 NCelOv=     1 NCel=       1 NClECP=     1 NCelD=      1
         NCelK=      1 NCelE2=     1 NClLst=     1 CellRange=     0.0.
 One-electron integrals computed using PRISM.
 NBasis=    77 RedAO= T EigKep=  1.76D-04  NBF=    77
 NBsUse=    77 1.00D-06 EigRej= -1.00D+00 NBFU=    77
 Precomputing XC quadrature grid using
 IXCGrd= 4 IRadAn=           0 IRanWt=          -1 IRanGd=           0 AccXCQ= 0.00D+00.
 Generated NRdTot=       0 NPtTot=           0 NUsed=           0 NTot=          32
 NSgBfM=    77    77    77    77    77 MxSgAt=    11 MxSgA2=    11.
 Leave Link  302 at Wed May 26 09:01:14 2021, MaxMem=  2147483648 cpu:         0.9
 (Enter /opt/cluster/programs/g09_d.01/g09/l303.exe)
 DipDrv:  MaxL=1.
 Leave Link  303 at Wed May 26 09:01:14 2021, MaxMem=  2147483648 cpu:         0.3
 (Enter /opt/cluster/programs/g09_d.01/g09/l401.exe)
 ExpMin= 4.38D-02 ExpMax= 5.48D+03 ExpMxC= 8.25D+02 IAcc=2 IRadAn=         4 AccDes= 0.00D+00
 Harris functional with IExCor= 4639 and IRadAn=       4 diagonalized for initial guess.
 HarFok:  IExCor= 4639 AccDes= 0.00D+00 IRadAn=         4 IDoV= 1 UseB2=F ITyADJ=14
 ICtDFT=  3500011 ScaDFX=  1.000000  1.000000  1.000000  1.000000
 FoFCou: FMM=F IPFlag=           0 FMFlag=      100000 FMFlg1=           0
         NFxFlg=           0 DoJE=T BraDBF=F KetDBF=T FulRan=T
         wScrn=  0.000000 ICntrl=     500 IOpCl=  0 I1Cent=   200000004 NGrid=           0
         NMat0=    1 NMatS0=      1 NMatT0=    0 NMatD0=    1 NMtDS0=    0 NMtDT0=    0
 Petite list used in FoFCou.
 Harris En= -257.363391187913    
 JPrj=0 DoOrth=F DoCkMO=F.
 Leave Link  401 at Wed May 26 09:01:14 2021, MaxMem=  2147483648 cpu:         1.4
 (Enter /opt/cluster/programs/g09_d.01/g09/l502.exe)
 Closed shell SCF:
 Using DIIS extrapolation, IDIIS=  1040.
 Integral symmetry usage will be decided dynamically.
 Keep R1 ints in memory in canonical form, NReq=9956864.
 IVT=       37546 IEndB=       37546 NGot=  2147483648 MDV=  2138425091
 LenX=  2138425091 LenY=  2138418721
 Requested convergence on RMS density matrix=1.00D-08 within 128 cycles.
 Requested convergence on MAX density matrix=1.00D-06.
 Requested convergence on             energy=1.00D-06.
 No special actions if energy rises.
 FoFCou: FMM=F IPFlag=           0 FMFlag=           0 FMFlg1=           0
         NFxFlg=           0 DoJE=F BraDBF=F KetDBF=F FulRan=T
         wScrn=  0.000000 ICntrl=     600 IOpCl=  0 I1Cent=           0 NGrid=           0
         NMat0=    1 NMatS0=   3003 NMatT0=    0 NMatD0=    1 NMtDS0=    0 NMtDT0=    0
 Symmetry not used in FoFCou.

 Cycle   1  Pass 1  IDiag  1:
 E= -268.112859977522    
 DIIS: error= 2.85D-02 at cycle   1 NSaved=   1.
 NSaved= 1 IEnMin= 1 EnMin= -268.112859977522     IErMin= 1 ErrMin= 2.85D-02
 ErrMax= 2.85D-02  0.00D+00 EMaxC= 1.00D-01 BMatC= 1.45D-01 BMatP= 1.45D-01
 IDIUse=3 WtCom= 7.15D-01 WtEn= 2.85D-01
 Coeff-Com:  0.100D+01
 Coeff-En:   0.100D+01
 Coeff:      0.100D+01
 Gap=     0.528 Goal=   None    Shift=    0.000
 GapD=    0.528 DampG=2.000 DampE=0.500 DampFc=1.0000 IDamp=-1.
 RMSDP=1.06D-02 MaxDP=2.04D-01              OVMax= 1.06D-01

 Cycle   2  Pass 1  IDiag  1:
 E= -268.121796283127     Delta-E=       -0.008936305605 Rises=F Damp=F
 DIIS: error= 3.04D-02 at cycle   2 NSaved=   2.
 NSaved= 2 IEnMin= 2 EnMin= -268.121796283127     IErMin= 1 ErrMin= 2.85D-02
 ErrMax= 3.04D-02  0.00D+00 EMaxC= 1.00D-01 BMatC= 1.13D-01 BMatP= 1.45D-01
 IDIUse=3 WtCom= 6.96D-01 WtEn= 3.04D-01
 Coeff-Com:  0.463D+00 0.537D+00
 Coeff-En:   0.472D+00 0.528D+00
 Coeff:      0.466D+00 0.534D+00
 Gap=     0.433 Goal=   None    Shift=    0.000
 RMSDP=4.87D-03 MaxDP=8.40D-02 DE=-8.94D-03 OVMax= 8.35D-02

 Cycle   3  Pass 1  IDiag  1:
 E= -268.200022888211     Delta-E=       -0.078226605084 Rises=F Damp=F
 DIIS: error= 1.32D-02 at cycle   3 NSaved=   3.
 NSaved= 3 IEnMin= 3 EnMin= -268.200022888211     IErMin= 3 ErrMin= 1.32D-02
 ErrMax= 1.32D-02  0.00D+00 EMaxC= 1.00D-01 BMatC= 1.03D-02 BMatP= 1.13D-01
 IDIUse=3 WtCom= 8.68D-01 WtEn= 1.32D-01
 Coeff-Com:  0.104D+00 0.249D+00 0.647D+00
 Coeff-En:   0.000D+00 0.000D+00 0.100D+01
 Coeff:      0.907D-01 0.216D+00 0.693D+00
 Gap=     0.434 Goal=   None    Shift=    0.000
 RMSDP=1.86D-03 MaxDP=2.85D-02 DE=-7.82D-02 OVMax= 4.58D-02

 Cycle   4  Pass 1  IDiag  1:
 E= -268.205874455050     Delta-E=       -0.005851566839 Rises=F Damp=F
 DIIS: error= 4.82D-03 at cycle   4 NSaved=   4.
 NSaved= 4 IEnMin= 4 EnMin= -268.205874455050     IErMin= 4 ErrMin= 4.82D-03
 ErrMax= 4.82D-03  0.00D+00 EMaxC= 1.00D-01 BMatC= 2.54D-03 BMatP= 1.03D-02
 IDIUse=3 WtCom= 9.52D-01 WtEn= 4.82D-02
 Coeff-Com: -0.173D-02 0.462D-01 0.380D+00 0.576D+00
 Coeff-En:   0.000D+00 0.000D+00 0.200D+00 0.800D+00
 Coeff:     -0.165D-02 0.440D-01 0.371D+00 0.587D+00
 Gap=     0.422 Goal=   None    Shift=    0.000
 RMSDP=9.71D-04 MaxDP=1.27D-02 DE=-5.85D-03 OVMax= 1.28D-02

 Cycle   5  Pass 1  IDiag  1:
 E= -268.207693442567     Delta-E=       -0.001818987518 Rises=F Damp=F
 DIIS: error= 1.06D-03 at cycle   5 NSaved=   5.
 NSaved= 5 IEnMin= 5 EnMin= -268.207693442567     IErMin= 5 ErrMin= 1.06D-03
 ErrMax= 1.06D-03  0.00D+00 EMaxC= 1.00D-01 BMatC= 1.18D-04 BMatP= 2.54D-03
 IDIUse=3 WtCom= 9.89D-01 WtEn= 1.06D-02
 Coeff-Com: -0.573D-02 0.619D-02 0.152D+00 0.308D+00 0.539D+00
 Coeff-En:   0.000D+00 0.000D+00 0.000D+00 0.000D+00 0.100D+01
 Coeff:     -0.567D-02 0.612D-02 0.150D+00 0.305D+00 0.544D+00
 Gap=     0.419 Goal=   None    Shift=    0.000
 RMSDP=1.74D-04 MaxDP=2.28D-03 DE=-1.82D-03 OVMax= 2.66D-03

 Cycle   6  Pass 1  IDiag  1:
 E= -268.207788496619     Delta-E=       -0.000095054052 Rises=F Damp=F
 DIIS: error= 1.64D-04 at cycle   6 NSaved=   6.
 NSaved= 6 IEnMin= 6 EnMin= -268.207788496619     IErMin= 6 ErrMin= 1.64D-04
 ErrMax= 1.64D-04  0.00D+00 EMaxC= 1.00D-01 BMatC= 2.74D-06 BMatP= 1.18D-04
 IDIUse=3 WtCom= 9.98D-01 WtEn= 1.64D-03
 Coeff-Com: -0.329D-03-0.692D-02-0.276D-01-0.345D-01 0.554D-01 0.101D+01
 Coeff-En:   0.000D+00 0.000D+00 0.000D+00 0.000D+00 0.000D+00 0.100D+01
 Coeff:     -0.329D-03-0.691D-02-0.275D-01-0.345D-01 0.553D-01 0.101D+01
 Gap=     0.419 Goal=   None    Shift=    0.000
 RMSDP=1.65D-04 MaxDP=3.09D-03 DE=-9.51D-05 OVMax= 1.17D-03

 Cycle   7  Pass 1  IDiag  1:
 E= -268.207793636719     Delta-E=       -0.000005140100 Rises=F Damp=F
 DIIS: error= 4.91D-05 at cycle   7 NSaved=   7.
 NSaved= 7 IEnMin= 7 EnMin= -268.207793636719     IErMin= 7 ErrMin= 4.91D-05
 ErrMax= 4.91D-05  0.00D+00 EMaxC= 1.00D-01 BMatC= 3.29D-07 BMatP= 2.74D-06
 IDIUse=1 WtCom= 1.00D+00 WtEn= 0.00D+00
 Coeff-Com:  0.439D-03-0.271D-02-0.195D-01-0.360D-01-0.200D-01 0.302D+00
 Coeff-Com:  0.776D+00
 Coeff:      0.439D-03-0.271D-02-0.195D-01-0.360D-01-0.200D-01 0.302D+00
 Coeff:      0.776D+00
 Gap=     0.419 Goal=   None    Shift=    0.000
 RMSDP=3.18D-05 MaxDP=5.49D-04 DE=-5.14D-06 OVMax= 3.13D-04

 Cycle   8  Pass 1  IDiag  1:
 E= -268.207794175873     Delta-E=       -0.000000539154 Rises=F Damp=F
 DIIS: error= 1.71D-05 at cycle   8 NSaved=   8.
 NSaved= 8 IEnMin= 8 EnMin= -268.207794175873     IErMin= 8 ErrMin= 1.71D-05
 ErrMax= 1.71D-05  0.00D+00 EMaxC= 1.00D-01 BMatC= 2.55D-08 BMatP= 3.29D-07
 IDIUse=1 WtCom= 1.00D+00 WtEn= 0.00D+00
 Coeff-Com:  0.295D-04 0.607D-03 0.235D-02 0.699D-03-0.559D-02-0.108D+00
 Coeff-Com:  0.215D-01 0.109D+01
 Coeff:      0.295D-04 0.607D-03 0.235D-02 0.699D-03-0.559D-02-0.108D+00
 Coeff:      0.215D-01 0.109D+01
 Gap=     0.419 Goal=   None    Shift=    0.000
 RMSDP=1.02D-05 MaxDP=8.04D-05 DE=-5.39D-07 OVMax= 1.77D-04

 Cycle   9  Pass 1  IDiag  1:
 E= -268.207794237427     Delta-E=       -0.000000061553 Rises=F Damp=F
 DIIS: error= 3.83D-06 at cycle   9 NSaved=   9.
 NSaved= 9 IEnMin= 9 EnMin= -268.207794237427     IErMin= 9 ErrMin= 3.83D-06
 ErrMax= 3.83D-06  0.00D+00 EMaxC= 1.00D-01 BMatC= 6.79D-10 BMatP= 2.55D-08
 IDIUse=1 WtCom= 1.00D+00 WtEn= 0.00D+00
 Coeff-Com: -0.222D-04 0.142D-03 0.114D-02 0.200D-02 0.210D-02-0.136D-01
 Coeff-Com: -0.448D-01-0.352D-01 0.109D+01
 Coeff:     -0.222D-04 0.142D-03 0.114D-02 0.200D-02 0.210D-02-0.136D-01
 Coeff:     -0.448D-01-0.352D-01 0.109D+01
 Gap=     0.419 Goal=   None    Shift=    0.000
 RMSDP=3.64D-06 MaxDP=6.37D-05 DE=-6.16D-08 OVMax= 3.32D-05

 Cycle  10  Pass 1  IDiag  1:
 E= -268.207794239515     Delta-E=       -0.000000002089 Rises=F Damp=F
 DIIS: error= 7.54D-07 at cycle  10 NSaved=  10.
 NSaved=10 IEnMin=10 EnMin= -268.207794239515     IErMin=10 ErrMin= 7.54D-07
 ErrMax= 7.54D-07  0.00D+00 EMaxC= 1.00D-01 BMatC= 4.78D-11 BMatP= 6.79D-10
 IDIUse=1 WtCom= 1.00D+00 WtEn= 0.00D+00
 Coeff-Com: -0.354D-05-0.649D-05 0.599D-04 0.218D-03 0.667D-03 0.284D-02
 Coeff-Com: -0.753D-02-0.500D-01 0.162D+00 0.892D+00
 Coeff:     -0.354D-05-0.649D-05 0.599D-04 0.218D-03 0.667D-03 0.284D-02
 Coeff:     -0.753D-02-0.500D-01 0.162D+00 0.892D+00
 Gap=     0.419 Goal=   None    Shift=    0.000
 RMSDP=7.55D-07 MaxDP=1.39D-05 DE=-2.09D-09 OVMax= 4.03D-06

 Cycle  11  Pass 1  IDiag  1:
 E= -268.207794239604     Delta-E=       -0.000000000089 Rises=F Damp=F
 DIIS: error= 2.57D-07 at cycle  11 NSaved=  11.
 NSaved=11 IEnMin=11 EnMin= -268.207794239604     IErMin=11 ErrMin= 2.57D-07
 ErrMax= 2.57D-07  0.00D+00 EMaxC= 1.00D-01 BMatC= 7.85D-12 BMatP= 4.78D-11
 IDIUse=1 WtCom= 1.00D+00 WtEn= 0.00D+00
 Coeff-Com:  0.118D-05-0.182D-04-0.110D-03-0.168D-03-0.239D-04 0.238D-02
 Coeff-Com:  0.268D-02-0.102D-01-0.771D-01 0.276D+00 0.807D+00
 Coeff:      0.118D-05-0.182D-04-0.110D-03-0.168D-03-0.239D-04 0.238D-02
 Coeff:      0.268D-02-0.102D-01-0.771D-01 0.276D+00 0.807D+00
 Gap=     0.419 Goal=   None    Shift=    0.000
 RMSDP=1.98D-07 MaxDP=3.28D-06 DE=-8.88D-11 OVMax= 1.81D-06

 Cycle  12  Pass 1  IDiag  1:
 E= -268.207794239618     Delta-E=       -0.000000000014 Rises=F Damp=F
 DIIS: error= 1.13D-07 at cycle  12 NSaved=  12.
 NSaved=12 IEnMin=12 EnMin= -268.207794239618     IErMin=12 ErrMin= 1.13D-07
 ErrMax= 1.13D-07  0.00D+00 EMaxC= 1.00D-01 BMatC= 2.20D-13 BMatP= 7.85D-12
 IDIUse=1 WtCom= 1.00D+00 WtEn= 0.00D+00
 Coeff-Com: -0.314D-07 0.363D-05 0.151D-04 0.137D-04-0.499D-04-0.612D-03
 Coeff-Com: -0.960D-04 0.482D-02 0.425D-02-0.106D+00-0.156D+00 0.125D+01
 Coeff:     -0.314D-07 0.363D-05 0.151D-04 0.137D-04-0.499D-04-0.612D-03
 Coeff:     -0.960D-04 0.482D-02 0.425D-02-0.106D+00-0.156D+00 0.125D+01
 Gap=     0.419 Goal=   None    Shift=    0.000
 RMSDP=3.16D-08 MaxDP=3.26D-07 DE=-1.44D-11 OVMax= 1.10D-06

 Cycle  13  Pass 1  IDiag  1:
 E= -268.207794239619     Delta-E=        0.000000000000 Rises=F Damp=F
 DIIS: error= 3.68D-08 at cycle  13 NSaved=  13.
 NSaved=13 IEnMin=13 EnMin= -268.207794239619     IErMin=13 ErrMin= 3.68D-08
 ErrMax= 3.68D-08  0.00D+00 EMaxC= 1.00D-01 BMatC= 1.83D-14 BMatP= 2.20D-13
 IDIUse=1 WtCom= 1.00D+00 WtEn= 0.00D+00
 Coeff-Com: -0.668D-07-0.198D-06 0.218D-05 0.753D-05 0.176D-04 0.795D-04
 Coeff-Com: -0.137D-03-0.111D-02 0.359D-02 0.208D-01 0.426D-02-0.448D+00
 Coeff-Com:  0.142D+01
 Coeff:     -0.668D-07-0.198D-06 0.218D-05 0.753D-05 0.176D-04 0.795D-04
 Coeff:     -0.137D-03-0.111D-02 0.359D-02 0.208D-01 0.426D-02-0.448D+00
 Coeff:      0.142D+01
 Gap=     0.419 Goal=   None    Shift=    0.000
 RMSDP=1.53D-08 MaxDP=2.20D-07 DE=-3.41D-13 OVMax= 4.32D-07

 Cycle  14  Pass 1  IDiag  1:
 E= -268.207794239620     Delta-E=       -0.000000000001 Rises=F Damp=F
 DIIS: error= 6.05D-09 at cycle  14 NSaved=  14.
 NSaved=14 IEnMin=14 EnMin= -268.207794239620     IErMin=14 ErrMin= 6.05D-09
 ErrMax= 6.05D-09  0.00D+00 EMaxC= 1.00D-01 BMatC= 8.14D-16 BMatP= 1.83D-14
 IDIUse=1 WtCom= 1.00D+00 WtEn= 0.00D+00
 Coeff-Com:  0.237D-07-0.449D-07-0.128D-05-0.288D-05-0.323D-05-0.206D-05
 Coeff-Com:  0.496D-04 0.137D-03-0.122D-02-0.201D-02 0.505D-02 0.937D-01
 Coeff-Com: -0.505D+00 0.141D+01
 Coeff:      0.237D-07-0.449D-07-0.128D-05-0.288D-05-0.323D-05-0.206D-05
 Coeff:      0.496D-04 0.137D-03-0.122D-02-0.201D-02 0.505D-02 0.937D-01
 Coeff:     -0.505D+00 0.141D+01
 Gap=     0.419 Goal=   None    Shift=    0.000
 RMSDP=2.91D-09 MaxDP=3.00D-08 DE=-9.09D-13 OVMax= 9.85D-08

 SCF Done:  E(RwB97XD) =  -268.207794240     A.U. after   14 cycles
            NFock= 14  Conv=0.29D-08     -V/T= 2.0057
 KE= 2.666805015478D+02 PE=-9.856671210349D+02 EE= 2.716663007881D+02
 Leave Link  502 at Wed May 26 09:01:16 2021, MaxMem=  2147483648 cpu:        15.5
 (Enter /opt/cluster/programs/g09_d.01/g09/l601.exe)
 Copying SCF densities to generalized density rwf, IOpCl= 0 IROHF=0.

 **********************************************************************

            Population analysis using the SCF density.

 **********************************************************************

 Orbital symmetries:
       Occupied  (A) (A) (A) (A) (A) (A) (A) (A) (A) (A) (A) (A)
                 (A) (A) (A) (A) (A) (A) (A) (A)
       Virtual   (A) (A) (A) (A) (A) (A) (A) (A) (A) (A) (A) (A)
                 (A) (A) (A) (A) (A) (A) (A) (A) (A) (A) (A) (A)
                 (A) (A) (A) (A) (A) (A) (A) (A) (A) (A) (A) (A)
                 (A) (A) (A) (A) (A) (A) (A) (A) (A) (A) (A) (A)
                 (A) (A) (A) (A) (A) (A) (A) (A) (A)
 The electronic state is 1-A.
 Alpha  occ. eigenvalues --  -19.32302 -19.27150 -10.45178 -10.37071 -10.32255
 Alpha  occ. eigenvalues --   -1.21795  -1.13952  -0.87237  -0.84056  -0.67269
 Alpha  occ. eigenvalues --   -0.60694  -0.59290  -0.57571  -0.53726  -0.51676
 Alpha  occ. eigenvalues --   -0.50643  -0.47877  -0.43249  -0.38541  -0.36258
 Alpha virt. eigenvalues --    0.05642   0.06355   0.07657   0.08928   0.09488
 Alpha virt. eigenvalues --    0.12013   0.12611   0.12971   0.14203   0.14900
 Alpha virt. eigenvalues --    0.16854   0.17066   0.19441   0.20831   0.22688
 Alpha virt. eigenvalues --    0.26058   0.27717   0.29228   0.30051   0.31022
 Alpha virt. eigenvalues --    0.34573   0.34975   0.36307   0.36811   0.38989
 Alpha virt. eigenvalues --    0.39556   0.41957   0.44096   0.44478   0.47293
 Alpha virt. eigenvalues --    0.56013   0.67618   0.72490   0.72695   0.74175
 Alpha virt. eigenvalues --    0.76747   0.81974   0.85729   0.93901   0.96363
 Alpha virt. eigenvalues --    1.05832   1.09668   1.11954   1.16039   1.16838
 Alpha virt. eigenvalues --    1.21539   1.24992   1.27682   1.30781   1.37008
 Alpha virt. eigenvalues --    1.41038   1.44641   1.48599   1.54648   1.70901
 Alpha virt. eigenvalues --    1.92527   2.03203
          Condensed to atoms (all electrons):
               1          2          3          4          5          6
     1  C    6.708006  -0.397754   0.392311   0.347441   0.336541  -0.410489
     2  C   -0.397754   5.691552  -0.063982  -0.006732  -0.017736   0.043229
     3  H    0.392311  -0.063982   0.467456  -0.019369  -0.027639   0.012134
     4  H    0.347441  -0.006732  -0.019369   0.436433  -0.020438   0.008573
     5  H    0.336541  -0.017736  -0.027639  -0.020438   0.488487   0.001785
     6  O   -0.410489   0.043229   0.012134   0.008573   0.001785   8.953544
     7  O   -0.191027   0.367256   0.001632  -0.003914   0.002942  -0.181816
     8  C   -0.094333  -0.029422  -0.006809   0.000618   0.008386   0.017613
     9  H    0.010438  -0.013110  -0.000024  -0.000021   0.000231  -0.040497
    10  H   -0.008588   0.007171   0.000011  -0.000002   0.000173  -0.063728
    11  H    0.013618  -0.014810   0.001009   0.000029  -0.002137  -0.029892
               7          8          9         10         11
     1  C   -0.191027  -0.094333   0.010438  -0.008588   0.013618
     2  C    0.367256  -0.029422  -0.013110   0.007171  -0.014810
     3  H    0.001632  -0.006809  -0.000024   0.000011   0.001009
     4  H   -0.003914   0.000618  -0.000021  -0.000002   0.000029
     5  H    0.002942   0.008386   0.000231   0.000173  -0.002137
     6  O   -0.181816   0.017613  -0.040497  -0.063728  -0.029892
     7  O    8.398256   0.016617   0.001455  -0.000003  -0.001233
     8  C    0.016617   5.307141   0.380588   0.414502   0.368148
     9  H    0.001455   0.380588   0.518321  -0.026672  -0.041162
    10  H   -0.000003   0.414502  -0.026672   0.469419  -0.026583
    11  H   -0.001233   0.368148  -0.041162  -0.026583   0.532328
 Mulliken charges:
               1
     1  C   -0.706164
     2  C    0.434339
     3  H    0.243270
     4  H    0.257381
     5  H    0.229406
     6  O   -0.310455
     7  O   -0.410167
     8  C   -0.383049
     9  H    0.210453
    10  H    0.234301
    11  H    0.200685
 Sum of Mulliken charges =   0.00000
 Mulliken charges with hydrogens summed into heavy atoms:
               1
     1  C    0.023893
     2  C    0.434339
     6  O   -0.310455
     7  O   -0.410167
     8  C    0.262390
 Electronic spatial extent (au):  <R**2>=            433.4838
 Charge=              0.0000 electrons
 Dipole moment (field-independent basis, Debye):
    X=             -3.3826    Y=              4.1822    Z=              0.2704  Tot=              5.3857
 Quadrupole moment (field-independent basis, Debye-Ang):
   XX=            -30.6876   YY=            -33.0031   ZZ=            -29.6954
   XY=              3.2562   XZ=             -0.8520   YZ=             -0.2864
 Traceless Quadrupole moment (field-independent basis, Debye-Ang):
   XX=              0.4411   YY=             -1.8744   ZZ=              1.4333
   XY=              3.2562   XZ=             -0.8520   YZ=             -0.2864
 Octapole moment (field-independent basis, Debye-Ang**2):
  XXX=            -18.3015  YYY=              2.4069  ZZZ=              0.2786  XYY=             -1.6808
  XXY=              4.7367  XXZ=             -0.4284  XZZ=             -0.3066  YZZ=              0.2916
  YYZ=             -0.3212  XYZ=              0.5319
 Hexadecapole moment (field-independent basis, Debye-Ang**3):
 XXXX=           -322.4503 YYYY=           -183.3528 ZZZZ=            -42.5471 XXXY=             17.5599
 XXXZ=              0.3869 YYYX=              2.7235 YYYZ=             -0.3019 ZZZX=             -1.0234
 ZZZY=             -0.4303 XXYY=            -85.7100 XXZZ=            -62.5566 YYZZ=            -35.3392
 XXYZ=              1.1066 YYXZ=              0.3037 ZZXY=             -2.1248
 N-N= 1.791125244594D+02 E-N=-9.856671211137D+02  KE= 2.666805015478D+02
 No NMR shielding tensors so no spin-rotation constants.
 Leave Link  601 at Wed May 26 09:01:16 2021, MaxMem=  2147483648 cpu:         0.6
 (Enter /opt/cluster/programs/g09_d.01/g09/l701.exe)
 Compute integral first derivatives.
 ... and contract with generalized density number  0.
 R6Disp: Adding Grimme-D2 dispersion energy 1st derivatives to the gradient.
 Leave Link  701 at Wed May 26 09:01:17 2021, MaxMem=  2147483648 cpu:         0.6
 (Enter /opt/cluster/programs/g09_d.01/g09/l702.exe)
 L702 exits ... SP integral derivatives will be done elsewhere.
 Leave Link  702 at Wed May 26 09:01:17 2021, MaxMem=  2147483648 cpu:         0.2
 (Enter /opt/cluster/programs/g09_d.01/g09/l703.exe)
 Compute integral first derivatives, UseDBF=F ICtDFT=           0.
 Integral derivatives from FoFJK, PRISM(SPDF).
 Calling FoFJK, ICntrl=      2127 FMM=F ISym2X=0 I1Cent= 0 IOpClX= 0 NMat=1 NMatS=1 NMatT=0.
 FoFJK:  IHMeth= 1 ICntrl=    2127 DoSepK=T KAlg= 0 I1Cent=   0 FoldK=F
 IRaf=         1 NMat=   1 IRICut=       1 DoRegI=T DoRafI=F ISym2E= 0.
 FoFCou: FMM=F IPFlag=           0 FMFlag=      100000 FMFlg1=         800
         NFxFlg=           0 DoJE=F BraDBF=F KetDBF=F FulRan=T
         wScrn=  0.000000 ICntrl=    2527 IOpCl=  0 I1Cent=           0 NGrid=           0
         NMat0=    1 NMatS0=      1 NMatT0=    0 NMatD0=    1 NMtDS0=    0 NMtDT0=    0
 Symmetry not used in FoFCou.
 Leave Link  703 at Wed May 26 09:01:17 2021, MaxMem=  2147483648 cpu:         3.7
 (Enter /opt/cluster/programs/g09_d.01/g09/l716.exe)
 Dipole        =-1.33080231D+00 1.64541861D+00 1.06381744D-01
 ***** Axes restored to original set *****
 -------------------------------------------------------------------
 Center     Atomic                   Forces (Hartrees/Bohr)
 Number     Number              X              Y              Z
 -------------------------------------------------------------------
      1        6          -0.000286257   -0.000052141   -0.002072388
      2        6           0.000421532   -0.000298555    0.004292311
      3        1          -0.000000170    0.000000446    0.000000665
      4        1          -0.000000919   -0.000002119   -0.000000108
      5        1          -0.000002880    0.000002548    0.000001875
      6        8          -0.000106427    0.001019601   -0.004370739
      7        8           0.000001826   -0.000002948   -0.000001995
      8        6          -0.000026306   -0.000668945    0.002146906
      9        1          -0.000001050    0.000001502    0.000001015
     10        1           0.000000491    0.000000212    0.000002698
     11        1           0.000000159    0.000000398   -0.000000240
 -------------------------------------------------------------------
 Cartesian Forces:  Max     0.004370739 RMS     0.001209582
 Leave Link  716 at Wed May 26 09:01:17 2021, MaxMem=  2147483648 cpu:         0.2
 (Enter /opt/cluster/programs/g09_d.01/g09/l103.exe)

 GradGradGradGradGradGradGradGradGradGradGradGradGradGradGradGradGradGrad
 Berny optimization.
 FormGI is forming the generalized inverse of G from B-inverse, IUseBI=4.
 Internal  Forces:  Max     0.003240461 RMS     0.000679328
 Search for a local minimum.
 Step number   1 out of a maximum of   47
 All quantities printed in internal units (Hartrees-Bohrs-Radians)
 RMS Force = .14648D-05 SwitMx=.10000D-02 MixMth= 2
 Mixed Optimization -- En-DIIS/RFO-DIIS
 Second derivative matrix not updated -- first step.
 ITU=  0
     Eigenvalues ---    0.00667   0.00968   0.01178   0.07172   0.07474
     Eigenvalues ---    0.09920   0.10651   0.16000   0.16000   0.16000
     Eigenvalues ---    0.16000   0.16000   0.16000   0.24956   0.25000
     Eigenvalues ---    0.25000   0.31608   0.34233   0.34271   0.34401
     Eigenvalues ---    0.34422   0.34902   0.35095   0.37630   0.49833
     Eigenvalues ---    0.935541000.000001000.000001000.000001000.00000
     Eigenvalues --- 1000.000001000.000001000.000001000.000001000.00000
     Eigenvalues --- 1000.000001000.00000
 RFO step:  Lambda= 0.00000000D+00 EMin= 6.67326949D-03
 Linear search not attempted -- first point.
 Iteration  1 RMS(Cart)=  0.00010192 RMS(Int)=  0.00000001
 Iteration  2 RMS(Cart)=  0.00000001 RMS(Int)=  0.00000000
 Iteration  1 RMS(Cart)=  0.00000000 RMS(Int)=  0.00000000
 ITry= 1 IFail=0 DXMaxC= 2.79D-04 DCOld= 1.00D+10 DXMaxT= 3.00D-01 DXLimC= 3.00D+00 Rises=F
 Variable       Old X    -DE/DX   Delta X   Delta X   Delta X     New X
                                 (Linear)    (Quad)   (Total)
    R1        2.84868   0.00000   0.00000   0.00000   0.00000   2.84868
    R2        2.06938   0.00000   0.00000   0.00000   0.00000   2.06938
    R3        2.05834   0.00000   0.00000   0.00000   0.00000   2.05834
    R4        2.06875   0.00000   0.00000  -0.00001  -0.00001   2.06874
    R5        2.60034   0.00000   0.00000   0.00001   0.00001   2.60035
    R6        2.31337   0.00000   0.00000   0.00000   0.00000   2.31337
    R7        2.74907   0.00000   0.00000   0.00000   0.00000   2.74907
    R8        2.06623   0.00000   0.00000   0.00000   0.00000   2.06623
    R9        2.05522   0.00000   0.00000   0.00000   0.00000   2.05521
   R10        2.06658   0.00000   0.00000   0.00000   0.00000   2.06658
    A1        1.92997   0.00000   0.00000  -0.00002  -0.00002   1.92995
    A2        1.89176   0.00000   0.00000   0.00002   0.00002   1.89178
    A3        1.95126   0.00000   0.00000  -0.00002  -0.00002   1.95124
    A4        1.90577   0.00000   0.00000  -0.00001  -0.00001   1.90577
    A5        1.88393   0.00000   0.00000   0.00000   0.00000   1.88393
    A6        1.90063   0.00000   0.00000   0.00003   0.00003   1.90065
    A7        2.05075   0.00002   0.00000   0.00001   0.00001   2.05076
    A8        2.16237   0.00010   0.00000  -0.00001  -0.00001   2.16236
    A9        2.06816  -0.00005   0.00000   0.00001   0.00001   2.06817
   A10        2.11875   0.00000   0.00000   0.00000   0.00000   2.11875
   A11        1.93052   0.00000   0.00000  -0.00001  -0.00001   1.93051
   A12        1.82684   0.00000   0.00000   0.00001   0.00001   1.82685
   A13        1.94469   0.00000   0.00000   0.00001   0.00001   1.94470
   A14        1.91648   0.00000   0.00000   0.00000   0.00000   1.91648
   A15        1.92756   0.00000   0.00000  -0.00001  -0.00001   1.92755
   A16        1.91530   0.00000   0.00000   0.00000   0.00000   1.91529
    D1       -1.00323  -0.00064   0.00000  -0.00007  -0.00007  -1.00330
    D2        2.07102   0.00064   0.00000  -0.00001  -0.00001   2.07101
    D3       -3.09172  -0.00064   0.00000  -0.00006  -0.00006  -3.09178
    D4       -0.01747   0.00064   0.00000   0.00000   0.00000  -0.01747
    D5        1.09642  -0.00064   0.00000  -0.00010  -0.00010   1.09632
    D6       -2.11251   0.00064   0.00000  -0.00004  -0.00004  -2.11255
    D7       -0.35979   0.00324   0.00000   0.00000   0.00000  -0.35979
    D8        2.84540   0.00203   0.00000  -0.00006  -0.00006   2.84534
    D9       -1.06379   0.00000   0.00000  -0.00017  -0.00017  -1.06397
   D10       -3.12691   0.00000   0.00000  -0.00018  -0.00018  -3.12708
   D11        1.08742   0.00000   0.00000  -0.00019  -0.00019   1.08723
         Item               Value     Threshold  Converged?
 Maximum Force            0.000003     0.000450     YES
 RMS     Force            0.000001     0.000300     YES
 Maximum Displacement     0.000279     0.001800     YES
 RMS     Displacement     0.000102     0.001200     YES
 Predicted change in Energy=-7.803422D-10
 Optimization completed.
    -- Stationary point found.
                           ----------------------------
                           !   Optimized Parameters   !
                           ! (Angstroms and Degrees)  !
 --------------------------                            --------------------------
 ! Name  Definition              Value          Derivative Info.                !
 --------------------------------------------------------------------------------
 ! R1    R(1,2)                  1.5075         -DE/DX =    0.0                 !
 ! R2    R(1,3)                  1.0951         -DE/DX =    0.0                 !
 ! R3    R(1,4)                  1.0892         -DE/DX =    0.0                 !
 ! R4    R(1,5)                  1.0947         -DE/DX =    0.0                 !
 ! R5    R(2,6)                  1.376          -DE/DX =    0.0                 !
 ! R6    R(2,7)                  1.2242         -DE/DX =    0.0                 !
 ! R7    R(6,8)                  1.4547         -DE/DX =    0.0                 !
 ! R8    R(8,9)                  1.0934         -DE/DX =    0.0                 !
 ! R9    R(8,10)                 1.0876         -DE/DX =    0.0                 !
 ! R10   R(8,11)                 1.0936         -DE/DX =    0.0                 !
 ! A1    A(2,1,3)              110.5793         -DE/DX =    0.0                 !
 ! A2    A(2,1,4)              108.3898         -DE/DX =    0.0                 !
 ! A3    A(2,1,5)              111.7988         -DE/DX =    0.0                 !
 ! A4    A(3,1,4)              109.1927         -DE/DX =    0.0                 !
 ! A5    A(3,1,5)              107.9412         -DE/DX =    0.0                 !
 ! A6    A(4,1,5)              108.8978         -DE/DX =    0.0                 !
 ! A7    A(1,2,6)              117.4996         -DE/DX =    0.0                 !
 ! A8    A(1,2,7)              123.8945         -DE/DX =    0.0001              !
 ! A9    A(6,2,7)              118.4971         -DE/DX =   -0.0001              !
 ! A10   A(2,6,8)              121.3956         -DE/DX =    0.0                 !
 ! A11   A(6,8,9)              110.6104         -DE/DX =    0.0                 !
 ! A12   A(6,8,10)             104.6701         -DE/DX =    0.0                 !
 ! A13   A(6,8,11)             111.4225         -DE/DX =    0.0                 !
 ! A14   A(9,8,10)             109.8064         -DE/DX =    0.0                 !
 ! A15   A(9,8,11)             110.441          -DE/DX =    0.0                 !
 ! A16   A(10,8,11)            109.7384         -DE/DX =    0.0                 !
 ! D1    D(3,1,2,6)            -57.4807         -DE/DX =   -0.0006              !
 ! D2    D(3,1,2,7)            118.6608         -DE/DX =    0.0006              !
 ! D3    D(4,1,2,6)           -177.1425         -DE/DX =   -0.0006              !
 ! D4    D(4,1,2,7)             -1.0009         -DE/DX =    0.0006              !
 ! D5    D(5,1,2,6)             62.8203         -DE/DX =   -0.0006              !
 ! D6    D(5,1,2,7)           -121.0381         -DE/DX =    0.0006              !
 ! D7    D(1,2,6,8)            -20.6146         -DE/DX =    0.0032              !
 ! D8    D(7,2,6,8)            163.0295         -DE/DX =    0.002               !
 ! D9    D(2,6,8,9)            -60.9509         -DE/DX =    0.0                 !
 ! D10   D(2,6,8,10)          -179.1585         -DE/DX =    0.0                 !
 ! D11   D(2,6,8,11)            62.3044         -DE/DX =    0.0                 !
 --------------------------------------------------------------------------------
 Lowest energy point so far.  Saving SCF results.
 GradGradGradGradGradGradGradGradGradGradGradGradGradGradGradGradGradGrad

 Largest change from initial coordinates is atom    4       0.000 Angstoms.
 Leave Link  103 at Wed May 26 09:01:17 2021, MaxMem=  2147483648 cpu:         0.0
 (Enter /opt/cluster/programs/g09_d.01/g09/l202.exe)
                          Input orientation:                          
 ---------------------------------------------------------------------
 Center     Atomic      Atomic             Coordinates (Angstroms)
 Number     Number       Type             X           Y           Z
 ---------------------------------------------------------------------
      1          6           0        0.696875   -1.344109    0.026148
      2          6           0        0.609200    0.160626    0.003622
      3          1           0        0.294961   -1.739088    0.965101
      4          1           0        1.744515   -1.628647   -0.062724
      5          1           0        0.135504   -1.796413   -0.797700
      6          8           0       -0.634319    0.727120    0.165591
      7          8           0        1.581243    0.899909   -0.081310
      8          6           0       -1.850659   -0.029771   -0.087225
      9          1           0       -1.889149   -0.359722   -1.128944
     10          1           0       -2.657702    0.672972    0.106810
     11          1           0       -1.936020   -0.885807    0.587943
 ---------------------------------------------------------------------
                    Distance matrix (angstroms):
                    1          2          3          4          5
     1  C    0.000000
     2  C    1.507455   0.000000
     3  H    1.095069   2.152232   0.000000
     4  H    1.089224   2.120104   1.780401   0.000000
     5  H    1.094734   2.167142   1.770926   1.776866   0.000000
     6  O    2.466072   1.376041   2.754081   3.355684   2.808696
     7  O    2.414388   1.224182   3.116697   2.533890   3.142217
     8  C    2.868844   2.468889   2.938169   3.934753   2.751480
     9  H    2.998462   2.791991   3.325359   3.993809   2.504600
    10  H    3.915138   3.308443   3.908058   4.970484   3.836405
    11  H    2.730896   2.813290   2.418184   3.810711   2.653379
                    6          7          8          9         10
     6  O    0.000000
     7  O    2.235963   0.000000
     8  C    1.454745   3.555600   0.000000
     9  H    2.105147   3.837685   1.093402   0.000000
    10  H    2.024961   4.249182   1.087573   1.784438   0.000000
    11  H    2.115264   4.000977   1.093589   1.796292   1.783846
                   11
    11  H    0.000000
 Stoichiometry    C3H6O2
 Framework group  C1[X(C3H6O2)]
 Deg. of freedom    27
 Full point group                 C1      NOp   1
 RotChk:  IX=0 Diff= 5.10D-16
 Largest Abelian subgroup         C1      NOp   1
 Largest concise Abelian subgroup C1      NOp   1
                         Standard orientation:                         
 ---------------------------------------------------------------------
 Center     Atomic      Atomic             Coordinates (Angstroms)
 Number     Number       Type             X           Y           Z
 ---------------------------------------------------------------------
      1          6           0        0.696875    1.344109   -0.026148
      2          6           0        0.609200   -0.160626   -0.003622
      3          1           0        0.294961    1.739088   -0.965101
      4          1           0        1.744515    1.628647    0.062724
      5          1           0        0.135504    1.796413    0.797700
      6          8           0       -0.634319   -0.727120   -0.165591
      7          8           0        1.581243   -0.899909    0.081310
      8          6           0       -1.850659    0.029771    0.087225
      9          1           0       -1.889149    0.359722    1.128944
     10          1           0       -2.657702   -0.672972   -0.106810
     11          1           0       -1.936020    0.885807   -0.587943
 ---------------------------------------------------------------------
 Rotational constants (GHZ):      8.8541733      4.2393685      2.9982206
 Leave Link  202 at Wed May 26 09:01:17 2021, MaxMem=  2147483648 cpu:         0.2
 (Enter /opt/cluster/programs/g09_d.01/g09/l9999.exe)
 1\1\GINC-NODE09\FOpt\RwB97XD\6-31+G\C3H6O2\BOITTIER\26-May-2021\0\\#p 
 wB97XD/6-31+G Opt=ModRedun\\O.pdb\\0,1\C,0.696875,-1.344109,0.026148\C
 ,0.6092,0.160626,0.003622\H,0.294961,-1.739088,0.965101\H,1.744515,-1.
 628647,-0.062724\H,0.135504,-1.796413,-0.7977\O,-0.634319,0.72712,0.16
 5591\O,1.581243,0.899909,-0.08131\C,-1.850659,-0.029771,-0.087225\H,-1
 .889149,-0.359722,-1.128944\H,-2.657702,0.672972,0.10681\H,-1.93602,-0
 .885807,0.587943\\Version=ES64L-G09RevD.01\State=1-A\HF=-268.2077942\R
 MSD=2.906e-09\RMSF=1.210e-03\Dipole=-1.3308025,-1.6454185,-0.1063817\Q
 uadrupole=0.3279725,-1.3935617,1.0655893,-2.4208769,0.6334186,-0.21296
 83\PG=C01 [X(C3H6O2)]\\@


 TELEVISION IS CALLED A MEDIUM BECAUSE IT ISN'T
 RARE, AND IT ISN'T WELL DONE.
 Job cpu time:       0 days  0 hours  0 minutes 29.1 seconds.
 File lengths (MBytes):  RWF=      5 Int=      0 D2E=      0 Chk=      2 Scr=      1
 Normal termination of Gaussian 09 at Wed May 26 09:01:17 2021.
