O.pdb                                                                   
FOpt      RwB97XD                                                     6-31+G              
Number of atoms                            I               11
Info1-9                                    I   N=           9
          22          22           0           0           0         100
           2          18        -802
Charge                                     I                0
Multiplicity                               I                1
Number of electrons                        I               40
Number of alpha electrons                  I               20
Number of beta electrons                   I               20
Number of basis functions                  I               77
Number of independent functions            I               77
Number of point charges in /Mol/           I                0
Number of translation vectors              I                0
Atomic numbers                             I   N=          11
           6           6           1           1           1           8
           8           6           1           1           1
Nuclear charges                            R   N=          11
  6.00000000E+00  6.00000000E+00  1.00000000E+00  1.00000000E+00  1.00000000E+00
  8.00000000E+00  8.00000000E+00  6.00000000E+00  1.00000000E+00  1.00000000E+00
  1.00000000E+00
Current cartesian coordinates              R   N=          33
  1.31690330E+00  2.53999791E+00 -4.94123700E-02  1.15122127E+00 -3.03539125E-01
 -6.84439908E-03  5.57395985E-01  3.28640013E+00 -1.82377639E+00  3.29665604E+00
  3.07769660E+00  1.18531371E-01  2.56065936E-01  3.39472871E+00  1.50743473E+00
 -1.19868919E+00 -1.37405740E+00 -3.12921451E-01  2.98811619E+00 -1.70058172E+00
  1.53653821E-01 -3.49723853E+00  5.62595327E-02  1.64831551E-01 -3.56997402E+00
  6.79776567E-01  2.13339517E+00 -5.02232891E+00 -1.27173212E+00 -2.01841459E-01
 -3.65854728E+00  1.67393315E+00 -1.11105106E+00
Force Field                                I                0
Int Atom Types                             I   N=          11
           0           0           0           0           0           0
           0           0           0           0           0
MM charges                                 R   N=          11
  0.00000000E+00  0.00000000E+00  0.00000000E+00  0.00000000E+00  0.00000000E+00
  0.00000000E+00  0.00000000E+00  0.00000000E+00  0.00000000E+00  0.00000000E+00
  0.00000000E+00
Integer atomic weights                     I   N=          11
          12          12           1           1           1          16
          16          12           1           1           1
Real atomic weights                        R   N=          11
  1.20000000E+01  1.20000000E+01  1.00782504E+00  1.00782504E+00  1.00782504E+00
  1.59949146E+01  1.59949146E+01  1.20000000E+01  1.00782504E+00  1.00782504E+00
  1.00782504E+00
Atom fragment info                         I   N=          11
           0           0           0           0           0           0
           0           0           0           0           0
Atom residue num                           I   N=          11
           0           0           0           0           0           0
           0           0           0           0           0
Nuclear spins                              I   N=          11
           0           0           1           1           1           0
           0           0           1           1           1
Nuclear ZEff                               R   N=          11
 -3.60000000E+00 -3.60000000E+00 -1.00000000E+00 -1.00000000E+00 -1.00000000E+00
 -5.60000000E+00 -5.60000000E+00 -3.60000000E+00 -1.00000000E+00 -1.00000000E+00
 -1.00000000E+00
Nuclear ZNuc                               R   N=          11
  6.00000000E+00  6.00000000E+00  1.00000000E+00  1.00000000E+00  1.00000000E+00
  8.00000000E+00  8.00000000E+00  6.00000000E+00  1.00000000E+00  1.00000000E+00
  1.00000000E+00
Nuclear QMom                               R   N=          11
  0.00000000E+00  0.00000000E+00  0.00000000E+00  0.00000000E+00  0.00000000E+00
  0.00000000E+00  0.00000000E+00  0.00000000E+00  0.00000000E+00  0.00000000E+00
  0.00000000E+00
Nuclear GFac                               R   N=          11
  0.00000000E+00  0.00000000E+00  2.79284600E+00  2.79284600E+00  2.79284600E+00
  0.00000000E+00  0.00000000E+00  0.00000000E+00  2.79284600E+00  2.79284600E+00
  2.79284600E+00
MicOpt                                     I   N=          11
          -1          -1          -1          -1          -1          -1
          -1          -1          -1          -1          -1
Number of contracted shells                I               32
Number of primitive shells                 I               79
Pure/Cartesian d shells                    I                1
Pure/Cartesian f shells                    I                0
Highest angular momentum                   I                1
Largest degree of contraction              I                6
Shell types                                I   N=          32
           0          -1          -1          -1           0          -1
          -1          -1           0           0           0           0
           0           0           0          -1          -1          -1
           0          -1          -1          -1           0          -1
          -1          -1           0           0           0           0
           0           0
Number of primitives per shell             I   N=          32
           6           3           1           1           6           3
           1           1           3           1           3           1
           3           1           6           3           1           1
           6           3           1           1           6           3
           1           1           3           1           3           1
           3           1
Shell to atom map                          I   N=          32
           1           1           1           1           2           2
           2           2           3           3           4           4
           5           5           6           6           6           6
           7           7           7           7           8           8
           8           8           9           9          10          10
          11          11
Primitive exponents                        R   N=          79
  3.04752488E+03  4.57369518E+02  1.03948685E+02  2.92101553E+01  9.28666296E+00
  3.16392696E+00  7.86827235E+00  1.88128854E+00  5.44249258E-01  1.68714478E-01
  4.38000000E-02  3.04752488E+03  4.57369518E+02  1.03948685E+02  2.92101553E+01
  9.28666296E+00  3.16392696E+00  7.86827235E+00  1.88128854E+00  5.44249258E-01
  1.68714478E-01  4.38000000E-02  1.87311370E+01  2.82539436E+00  6.40121692E-01
  1.61277759E-01  1.87311370E+01  2.82539436E+00  6.40121692E-01  1.61277759E-01
  1.87311370E+01  2.82539436E+00  6.40121692E-01  1.61277759E-01  5.48467166E+03
  8.25234946E+02  1.88046958E+02  5.29645000E+01  1.68975704E+01  5.79963534E+00
  1.55396162E+01  3.59993359E+00  1.01376175E+00  2.70005823E-01  8.45000000E-02
  5.48467166E+03  8.25234946E+02  1.88046958E+02  5.29645000E+01  1.68975704E+01
  5.79963534E+00  1.55396162E+01  3.59993359E+00  1.01376175E+00  2.70005823E-01
  8.45000000E-02  3.04752488E+03  4.57369518E+02  1.03948685E+02  2.92101553E+01
  9.28666296E+00  3.16392696E+00  7.86827235E+00  1.88128854E+00  5.44249258E-01
  1.68714478E-01  4.38000000E-02  1.87311370E+01  2.82539436E+00  6.40121692E-01
  1.61277759E-01  1.87311370E+01  2.82539436E+00  6.40121692E-01  1.61277759E-01
  1.87311370E+01  2.82539436E+00  6.40121692E-01  1.61277759E-01
Contraction coefficients                   R   N=          79
  1.83473713E-03  1.40373228E-02  6.88426223E-02  2.32184443E-01  4.67941348E-01
  3.62311985E-01 -1.19332420E-01 -1.60854152E-01  1.14345644E+00  1.00000000E+00
  1.00000000E+00  1.83473713E-03  1.40373228E-02  6.88426223E-02  2.32184443E-01
  4.67941348E-01  3.62311985E-01 -1.19332420E-01 -1.60854152E-01  1.14345644E+00
  1.00000000E+00  1.00000000E+00  3.34946043E-02  2.34726953E-01  8.13757326E-01
  1.00000000E+00  3.34946043E-02  2.34726953E-01  8.13757326E-01  1.00000000E+00
  3.34946043E-02  2.34726953E-01  8.13757326E-01  1.00000000E+00  1.83107443E-03
  1.39501722E-02  6.84450781E-02  2.32714336E-01  4.70192898E-01  3.58520853E-01
 -1.10777550E-01 -1.48026263E-01  1.13076702E+00  1.00000000E+00  1.00000000E+00
  1.83107443E-03  1.39501722E-02  6.84450781E-02  2.32714336E-01  4.70192898E-01
  3.58520853E-01 -1.10777550E-01 -1.48026263E-01  1.13076702E+00  1.00000000E+00
  1.00000000E+00  1.83473713E-03  1.40373228E-02  6.88426223E-02  2.32184443E-01
  4.67941348E-01  3.62311985E-01 -1.19332420E-01 -1.60854152E-01  1.14345644E+00
  1.00000000E+00  1.00000000E+00  3.34946043E-02  2.34726953E-01  8.13757326E-01
  1.00000000E+00  3.34946043E-02  2.34726953E-01  8.13757326E-01  1.00000000E+00
  3.34946043E-02  2.34726953E-01  8.13757326E-01  1.00000000E+00
P(S=P) Contraction coefficients            R   N=          79
  0.00000000E+00  0.00000000E+00  0.00000000E+00  0.00000000E+00  0.00000000E+00
  0.00000000E+00  6.89990666E-02  3.16423961E-01  7.44308291E-01  1.00000000E+00
  1.00000000E+00  0.00000000E+00  0.00000000E+00  0.00000000E+00  0.00000000E+00
  0.00000000E+00  0.00000000E+00  6.89990666E-02  3.16423961E-01  7.44308291E-01
  1.00000000E+00  1.00000000E+00  0.00000000E+00  0.00000000E+00  0.00000000E+00
  0.00000000E+00  0.00000000E+00  0.00000000E+00  0.00000000E+00  0.00000000E+00
  0.00000000E+00  0.00000000E+00  0.00000000E+00  0.00000000E+00  0.00000000E+00
  0.00000000E+00  0.00000000E+00  0.00000000E+00  0.00000000E+00  0.00000000E+00
  7.08742682E-02  3.39752839E-01  7.27158577E-01  1.00000000E+00  1.00000000E+00
  0.00000000E+00  0.00000000E+00  0.00000000E+00  0.00000000E+00  0.00000000E+00
  0.00000000E+00  7.08742682E-02  3.39752839E-01  7.27158577E-01  1.00000000E+00
  1.00000000E+00  0.00000000E+00  0.00000000E+00  0.00000000E+00  0.00000000E+00
  0.00000000E+00  0.00000000E+00  6.89990666E-02  3.16423961E-01  7.44308291E-01
  1.00000000E+00  1.00000000E+00  0.00000000E+00  0.00000000E+00  0.00000000E+00
  0.00000000E+00  0.00000000E+00  0.00000000E+00  0.00000000E+00  0.00000000E+00
  0.00000000E+00  0.00000000E+00  0.00000000E+00  0.00000000E+00
Coordinates of each shell                  R   N=          96
  1.31690330E+00  2.53999791E+00 -4.94123700E-02  1.31690330E+00  2.53999791E+00
 -4.94123700E-02  1.31690330E+00  2.53999791E+00 -4.94123700E-02  1.31690330E+00
  2.53999791E+00 -4.94123700E-02  1.15122127E+00 -3.03539125E-01 -6.84439908E-03
  1.15122127E+00 -3.03539125E-01 -6.84439908E-03  1.15122127E+00 -3.03539125E-01
 -6.84439908E-03  1.15122127E+00 -3.03539125E-01 -6.84439908E-03  5.57395985E-01
  3.28640013E+00 -1.82377639E+00  5.57395985E-01  3.28640013E+00 -1.82377639E+00
  3.29665604E+00  3.07769660E+00  1.18531371E-01  3.29665604E+00  3.07769660E+00
  1.18531371E-01  2.56065936E-01  3.39472871E+00  1.50743473E+00  2.56065936E-01
  3.39472871E+00  1.50743473E+00 -1.19868919E+00 -1.37405740E+00 -3.12921451E-01
 -1.19868919E+00 -1.37405740E+00 -3.12921451E-01 -1.19868919E+00 -1.37405740E+00
 -3.12921451E-01 -1.19868919E+00 -1.37405740E+00 -3.12921451E-01  2.98811619E+00
 -1.70058172E+00  1.53653821E-01  2.98811619E+00 -1.70058172E+00  1.53653821E-01
  2.98811619E+00 -1.70058172E+00  1.53653821E-01  2.98811619E+00 -1.70058172E+00
  1.53653821E-01 -3.49723853E+00  5.62595327E-02  1.64831551E-01 -3.49723853E+00
  5.62595327E-02  1.64831551E-01 -3.49723853E+00  5.62595327E-02  1.64831551E-01
 -3.49723853E+00  5.62595327E-02  1.64831551E-01 -3.56997402E+00  6.79776567E-01
  2.13339517E+00 -3.56997402E+00  6.79776567E-01  2.13339517E+00 -5.02232891E+00
 -1.27173212E+00 -2.01841459E-01 -5.02232891E+00 -1.27173212E+00 -2.01841459E-01
 -3.65854728E+00  1.67393315E+00 -1.11105106E+00 -3.65854728E+00  1.67393315E+00
 -1.11105106E+00
Constraint Structure                       R   N=          33
  1.31690330E+00  2.53999791E+00 -4.94123700E-02  1.15122127E+00 -3.03539125E-01
 -6.84439908E-03  5.57395985E-01  3.28640013E+00 -1.82377639E+00  3.29665604E+00
  3.07769660E+00  1.18531371E-01  2.56065936E-01  3.39472871E+00  1.50743473E+00
 -1.19868919E+00 -1.37405740E+00 -3.12921451E-01  2.98811619E+00 -1.70058172E+00
  1.53653821E-01 -3.49723853E+00  5.62595327E-02  1.64831551E-01 -3.56997402E+00
  6.79776567E-01  2.13339517E+00 -5.02232891E+00 -1.27173212E+00 -2.01841459E-01
 -3.65854728E+00  1.67393315E+00 -1.11105106E+00
Num ILSW                                   I              100
ILSW                                       I   N=         100
           0           1           0           0           2           0
           0           0           0           0        4639          -1
           0           0           0           0           2           0
           0           0           0           0           1           0
           1           0           0           0           0           0
           0           0      100000           0          -1           0
           0           0           0           0           0           0
           0           0           0           1           0           0
           0           0           1           0           0           0
           0           0         121          41           0           0
           0           0          58           0           0           0
           0           0           0          11           0           0
           0           0           0           0           0           0
           0           0           0           0           0           0
           0           0           0           0           0           0
           0           0           0           0           0           0
           0           0           0           0
Num RLSW                                   I               41
RLSW                                       R   N=          41
  1.00000000E+00  1.00000000E+00  1.00000000E+00  1.00000000E+00  1.00000000E+00
  0.00000000E+00  2.00000000E-01  2.22036000E-01  0.00000000E+00  7.77964000E-01
  0.00000000E+00  2.00000000E-01  0.00000000E+00  0.00000000E+00  1.00000000E+00
  0.00000000E+00  0.00000000E+00  1.00000000E+00  0.00000000E+00  0.00000000E+00
  0.00000000E+00  0.00000000E+00  1.00000000E+00  0.00000000E+00  0.00000000E+00
  0.00000000E+00  0.00000000E+00  1.00000000E+00  0.00000000E+00  0.00000000E+00
  0.00000000E+00  0.00000000E+00  1.00000000E+00  0.00000000E+00  0.00000000E+00
  0.00000000E+00  0.00000000E+00  0.00000000E+00  1.00000000E+00  1.00000000E+00
  0.00000000E+00
MxBond                                     I                4
NBond                                      I   N=          11
           4           3           1           1           1           2
           1           4           1           1           1
IBond                                      I   N=          44
           2           3           4           5           1           6
           7           0           1           0           0           0
           1           0           0           0           1           0
           0           0           2           8           0           0
           2           0           0           0           6           9
          10          11           8           0           0           0
           8           0           0           0           8           0
           0           0
RBond                                      R   N=          44
  1.00000000E+00  1.00000000E+00  1.00000000E+00  1.00000000E+00  1.00000000E+00
  1.50000000E+00  2.00000000E+00  0.00000000E+00  1.00000000E+00  0.00000000E+00
  0.00000000E+00  0.00000000E+00  1.00000000E+00  0.00000000E+00  0.00000000E+00
  0.00000000E+00  1.00000000E+00  0.00000000E+00  0.00000000E+00  0.00000000E+00
  1.50000000E+00  1.00000000E+00  0.00000000E+00  0.00000000E+00  2.00000000E+00
  0.00000000E+00  0.00000000E+00  0.00000000E+00  1.00000000E+00  1.00000000E+00
  1.00000000E+00  1.00000000E+00  1.00000000E+00  0.00000000E+00  0.00000000E+00
  0.00000000E+00  1.00000000E+00  0.00000000E+00  0.00000000E+00  0.00000000E+00
  1.00000000E+00  0.00000000E+00  0.00000000E+00  0.00000000E+00
Virial Ratio                               R      2.005727050470237E+00
SCF Energy                                 R     -2.682077942396196E+02
Total Energy                               R     -2.682077942396196E+02
RMS Force                                  R      1.209581918690658E-03
RMS Density                                R      2.906398966970072E-09
External E-field                           R   N=          35
  0.00000000E+00  0.00000000E+00  0.00000000E+00  0.00000000E+00  0.00000000E+00
  0.00000000E+00  0.00000000E+00  0.00000000E+00  0.00000000E+00  0.00000000E+00
  0.00000000E+00  0.00000000E+00  0.00000000E+00  0.00000000E+00  0.00000000E+00
  0.00000000E+00  0.00000000E+00  0.00000000E+00  0.00000000E+00  0.00000000E+00
  0.00000000E+00  0.00000000E+00  0.00000000E+00  0.00000000E+00  0.00000000E+00
  0.00000000E+00  0.00000000E+00  0.00000000E+00  0.00000000E+00  0.00000000E+00
  0.00000000E+00  0.00000000E+00  0.00000000E+00  0.00000000E+00  0.00000000E+00
IOpCl                                      I                0
IROHF                                      I                0
Alpha Orbital Energies                     R   N=          77
 -1.93230155E+01 -1.92714988E+01 -1.04517760E+01 -1.03707063E+01 -1.03225501E+01
 -1.21794927E+00 -1.13951875E+00 -8.72372220E-01 -8.40564241E-01 -6.72690073E-01
 -6.06940540E-01 -5.92895727E-01 -5.75712761E-01 -5.37256086E-01 -5.16759728E-01
 -5.06426886E-01 -4.78766844E-01 -4.32488912E-01 -3.85410262E-01 -3.62575084E-01
  5.64224392E-02  6.35483711E-02  7.65730788E-02  8.92759835E-02  9.48778869E-02
  1.20126888E-01  1.26111524E-01  1.29706005E-01  1.42031954E-01  1.48997092E-01
  1.68536520E-01  1.70660198E-01  1.94411754E-01  2.08313684E-01  2.26880222E-01
  2.60582552E-01  2.77166977E-01  2.92280730E-01  3.00510806E-01  3.10224705E-01
  3.45730605E-01  3.49746480E-01  3.63066287E-01  3.68111006E-01  3.89894185E-01
  3.95556305E-01  4.19565964E-01  4.40957012E-01  4.44783265E-01  4.72933491E-01
  5.60125702E-01  6.76183079E-01  7.24899400E-01  7.26952119E-01  7.41752447E-01
  7.67467884E-01  8.19736350E-01  8.57288818E-01  9.39009595E-01  9.63629316E-01
  1.05832008E+00  1.09668222E+00  1.11953980E+00  1.16039089E+00  1.16838142E+00
  1.21538799E+00  1.24991887E+00  1.27681883E+00  1.30780523E+00  1.37007564E+00
  1.41038297E+00  1.44641050E+00  1.48598967E+00  1.54648470E+00  1.70901401E+00
  1.92527482E+00  2.03203165E+00
Alpha MO coefficients                      R   N=        5929
  1.66995673E-05 -7.86921233E-05  7.41595946E-06  1.42914782E-04  2.69142387E-06
 -3.09469217E-04  2.10417567E-03  4.84530723E-04  2.16747528E-04  1.58091854E-02
 -1.46051256E-03 -3.95371134E-03  2.13653154E-05  7.90220768E-05  2.71183835E-04
 -3.99413545E-04 -1.12239574E-04 -2.29490272E-05  2.41466616E-03 -5.54778243E-03
 -2.72226429E-04 -5.74298345E-04 -2.00584135E-02  2.95736755E-03 -4.89631809E-03
  2.44245819E-04  1.83955382E-04 -2.23923359E-04 -1.73458190E-04 -9.56616291E-04
  2.58627958E-04 -4.71083395E-04  9.95235505E-01  2.98516220E-02  2.31695937E-04
  1.87324394E-03  4.93658613E-04 -2.16276735E-02 -9.38503527E-04 -3.74246898E-03
 -9.25775149E-04  9.63769209E-03  5.68540201E-04  1.53483115E-03  1.38966284E-04
 -4.02713585E-04 -3.25021352E-04  5.02418853E-05 -8.36643722E-05  9.64549751E-07
  1.60742204E-03  7.75160715E-05  9.87720279E-04  1.62684183E-05  1.39287062E-03
 -3.48276770E-04  8.07114206E-04  6.48114306E-05 -2.73896426E-05 -1.78998111E-04
  6.42633312E-04 -3.01020626E-04 -9.37446937E-05  4.27467218E-03  1.26702483E-03
 -6.28193348E-04 -2.56680870E-04  5.99777314E-04 -5.25325283E-04  1.09359923E-04
  2.73957748E-04 -3.24546389E-04 -1.06242323E-03 -2.32959943E-04 -1.07801509E-03
 -3.81211520E-04 -1.02589371E-03 -1.46994710E-05 -2.88968723E-04 -7.39306839E-05
  1.05473110E-04 -2.58663795E-05  2.71333662E-03 -1.95103875E-03 -9.67261193E-04
  6.53059296E-05  8.96643741E-03  1.18360761E-03 -2.35538925E-03  1.30910682E-04
  2.24441065E-04  2.25582253E-04 -2.04405142E-05  1.94105277E-04  2.43602552E-05
  8.42325932E-03  6.54950843E-03 -7.21460253E-03  4.31338803E-04 -1.11473350E-02
 -3.64361643E-03 -2.20516589E-03 -2.41728397E-04 -1.00190246E-04 -2.07552916E-04
  1.23645362E-04  1.54768034E-04 -8.54292768E-05 -5.87117685E-04  3.94986759E-04
 -2.02905619E-04 -1.08658847E-04 -1.03486695E-04 -1.78555414E-05  8.00041839E-05
 -4.63128626E-04  1.02364307E-03 -4.73765171E-05 -2.02152368E-03 -2.29870359E-03
  2.88755295E-04 -2.66680846E-04  9.95235355E-01  2.98435097E-02 -1.83952922E-03
  1.37936583E-03 -1.71468110E-04 -2.36947232E-02  4.83091392E-03 -3.33723219E-03
  4.64682030E-04  7.93649704E-03 -6.33510972E-04  4.38240866E-04 -8.21549448E-05
 -4.49446136E-05 -4.98398146E-04 -1.91490541E-04  2.04354100E-05  2.95105866E-05
  7.78498407E-04  8.22252208E-04  5.50224152E-04  1.85953431E-04 -8.90683036E-04
 -2.10163476E-04  2.98884826E-04  1.58936490E-04 -1.23121186E-04 -3.11956220E-04
  9.13290056E-05 -1.13316369E-04 -5.22079469E-05 -6.03723072E-04  7.17625657E-04
 -8.62876585E-04 -1.51786977E-04  2.64096977E-04 -2.76760562E-05  7.47221800E-03
  9.96400215E-04 -2.81605314E-03  1.78047424E-04  2.00268658E-02 -1.49439949E-03
 -4.18135321E-03  2.21066858E-04  9.95577466E-01  3.71046905E-02 -6.97300719E-05
 -1.15863775E-03 -1.05006166E-04 -3.58088332E-02  6.19556454E-04 -1.23651742E-03
  2.78790771E-04 -2.93996869E-02  4.11618977E-03 -6.81806850E-03  2.18712571E-04
 -1.33835177E-04 -7.48382746E-04 -1.50111582E-04 -2.08975048E-03 -1.42005106E-04
 -8.25161824E-04  3.96049086E-05  3.94416939E-04 -1.41406535E-04 -1.39152383E-04
 -4.92815284E-05 -1.08347726E-05 -8.52323013E-04  3.33492649E-04  8.75628579E-05
  1.40718684E-02  4.53189277E-03  5.94256828E-03  8.15289009E-04 -1.45608482E-04
 -1.08007872E-05  4.12647272E-04 -3.12409787E-04  3.89412898E-05  5.05581354E-04
  3.29653022E-04  1.03047140E-04  1.04277312E-05  9.58958342E-03 -4.24422309E-03
  3.88903123E-03 -4.26381307E-04  2.26325696E-05  9.71685053E-05 -4.16351506E-05
  1.60694479E-06 -4.29053436E-05 -2.19709758E-03 -8.70565963E-04  1.10583254E-03
  5.96289360E-04  4.46698768E-03  1.25987074E-03 -1.31260106E-03 -2.08805385E-04
 -5.40878895E-05 -1.22262923E-03  1.27987747E-04  5.88066950E-04  1.14668251E-04
 -1.61520477E-03 -2.99044056E-04 -5.24435427E-04  2.79598634E-04  9.80981532E-05
  7.77720423E-06  5.67191191E-04 -2.98849337E-04  2.46080073E-04 -2.04561228E-04
  1.95469698E-02 -5.97644643E-04 -4.29028122E-03  1.94789723E-04  2.36855904E-06
  7.34926913E-05  9.53578988E-05  5.81880888E-06  5.46519823E-06 -4.81893299E-03
 -1.92986713E-03  2.05769521E-03 -1.21176131E-04 -1.55607172E-02 -1.32722064E-03
 -8.28462230E-03 -3.75206791E-04 -2.81328498E-06 -1.27604485E-03  2.18959033E-05
 -3.36132020E-04 -1.97856267E-04 -1.98880728E-04  4.23488965E-05  3.10832713E-04
  2.05355878E-05  7.23317225E-07 -5.84474682E-05  1.45325387E-03  1.02457638E-04
  7.02606540E-05  3.56724972E-04  1.48173436E-02 -8.48218350E-03  5.77412672E-03
  1.20201456E-03 -2.81581549E-05 -3.96030913E-04  7.00181637E-05 -6.13775324E-06
  3.39243875E-05  2.48536319E-03 -1.29448623E-03  5.35887061E-04 -2.34366282E-04
  5.23259177E-03 -1.89504474E-03  1.40775807E-03 -2.91980057E-04  9.95557348E-01
  3.74142132E-02  1.13962741E-03 -4.88885602E-04 -2.14435988E-04 -3.64562114E-02
 -3.53304981E-03  1.40716607E-03  5.75385605E-04 -1.14282204E-02 -3.67825841E-03
  1.29961141E-03  5.78058609E-04 -5.35921164E-04  5.87765955E-03 -4.48580138E-04
  4.66859540E-03 -4.74980952E-04  5.56929828E-03  9.95490260E-01  3.76986453E-02
 -3.24342545E-04 -2.11932497E-04 -1.65060411E-05 -3.96482009E-02  9.38380056E-04
  3.77762252E-03  7.78167679E-05 -1.40180335E-02  3.17161289E-04  2.93116446E-03
  4.08697373E-05 -7.32473307E-04 -9.67018529E-04 -1.00337509E-04 -7.17123844E-04
  3.03048027E-05  7.72217484E-03  7.38202788E-04  8.93453102E-03 -1.24680621E-04
  1.12146104E-02  6.05871277E-04  3.36532825E-03 -8.13360852E-05 -5.07583754E-04
  8.21824015E-03 -4.83679987E-04  7.00171503E-03 -4.78998003E-04  7.97528925E-03
 -6.55495859E-07 -1.78940819E-04 -1.79413171E-04 -6.55722324E-05 -3.15355893E-07
  9.55794882E-05  1.30964288E-03 -5.85187582E-04 -2.93873547E-05  1.10809529E-03
  2.07845839E-04 -1.33341874E-05  1.15373173E-04 -8.05656793E-06 -2.30066489E-04
  9.27761302E-05 -5.53681428E-05  2.14525192E-06  7.51151017E-04 -9.14091108E-04
 -4.26475043E-04 -4.85948548E-05  2.03599071E-03 -1.25238795E-03  4.99483406E-04
 -8.25969316E-05  2.00980998E-04 -6.43280882E-04 -1.84508272E-04 -2.85614275E-04
 -4.90944705E-05  1.99294681E-03  1.48030860E-03  7.96090949E-04  1.75263653E-04
 -5.45263457E-04 -6.22115262E-04  3.86610877E-05  1.99050913E-04 -1.33458284E-04
 -7.71722404E-04  7.66210333E-06  6.49538682E-04 -3.90200803E-04  3.28632385E-04
 -1.87518095E-02  3.38527447E-02 -2.48746881E-03 -2.60712060E-02  8.56591577E-05
  9.39552691E-03 -9.15574894E-03  1.83974804E-03 -1.61466970E-03 -1.65745375E-01
  9.01998395E-04  4.04324812E-02 -2.43547884E-03 -1.19242700E-01  2.45169250E-01
  5.29712339E-04 -9.83243062E-02 -2.84264709E-03  3.53170774E-02 -5.32251956E-04
  4.55678001E-02  1.58659770E-03  1.82125728E-01  4.79083606E-03  6.41661972E-02
  2.03094264E-03  5.16569665E-03 -2.02359054E-03  5.79710355E-03  6.28478359E-03
  4.74002514E-03  3.14519334E-05 -1.52796452E-01  3.27754827E-01  4.49461044E-02
  8.05808647E-02  2.48682611E-02  3.65424495E-01  2.17279454E-02  5.64346604E-02
  1.73017950E-02 -3.89058855E-02  7.25084072E-03 -2.63302171E-02 -2.96806936E-03
 -1.11221933E-01  2.43352091E-01 -9.72913773E-02  6.47491842E-02 -8.88025182E-03
  2.34824543E-01 -3.96771888E-02  2.39077922E-02 -3.68424100E-03 -1.91707771E-02
  2.69416342E-04 -1.21729748E-02 -1.02755061E-03 -4.11030700E-02  7.98616160E-02
  5.19892605E-02 -2.59547790E-02 -8.80212430E-03  2.45051805E-02 -1.08590642E-02
  1.12109493E-03 -1.94446320E-04  1.00243730E-02  9.08118694E-03 -2.72958275E-03
 -2.37097546E-03  1.34206677E-02  5.26690159E-03  1.12148205E-02  1.90037145E-03
  1.33926938E-02  4.96255682E-03 -4.70215923E-03  1.13117807E-02  1.25551365E-02
 -8.64250694E-03  1.30881320E-03 -1.94767371E-02  2.66719600E-02  1.17344907E-02
  6.46486629E-04  5.66659294E-02 -1.15843442E-02 -1.17604926E-02  1.76593234E-04
 -4.92452666E-02  1.05697669E-01  2.16267944E-01 -7.63962222E-02  1.98722434E-02
  1.06154498E-02 -7.94007405E-02  4.65783299E-02 -6.93501391E-03 -7.06543507E-02
  2.47761015E-02 -2.84172819E-02 -6.49251075E-04  9.95227040E-04 -1.09935272E-04
  4.15298211E-03 -7.38665992E-03  9.61152067E-04  2.26852222E-03  1.31780460E-01
 -2.84758946E-01  1.95246821E-02 -7.79221880E-02 -1.96082726E-02 -3.33280334E-01
  5.51572134E-03 -6.07118925E-02 -1.35416694E-02  4.33918230E-03 -2.38523059E-03
  2.33450506E-03  1.21875504E-03 -1.57174404E-01  3.44853461E-01 -1.07667563E-01
  9.37241531E-02 -9.25701779E-03  3.59915393E-01 -4.62151453E-02  4.02677125E-02
 -4.49345302E-03  2.88676174E-02 -1.41254046E-02  1.78230490E-02  6.66993938E-04
  5.09217869E-02 -9.38696770E-02 -5.66877494E-02  3.14571890E-02  1.08960832E-02
 -4.85393226E-02 -1.68283182E-03 -1.25207160E-02 -4.32856547E-03  4.80182241E-03
 -1.58081660E-03  9.16521580E-04  7.53575374E-04 -1.61525983E-02  4.85956187E-03
 -1.73001513E-02 -6.43564610E-03 -1.65543226E-02  5.91322398E-03 -1.78180685E-01
  3.33734899E-01 -1.19706373E-02 -4.36036777E-02 -9.07176799E-04  3.48897402E-01
 -9.47598484E-03 -7.33650242E-03 -1.00409730E-03  1.27467029E-01  8.25971365E-04
 -3.22277405E-02  8.60663840E-04 -7.23797861E-02  1.52300803E-01 -5.58513300E-02
  1.78521946E-01 -1.03222942E-02  1.06100662E-01 -9.98677247E-03  2.62462250E-02
 -1.04216668E-03 -8.66250384E-02 -2.38133633E-02 -2.87585993E-02 -1.73638609E-03
  1.10094952E-01  3.64448629E-03  1.03391789E-01  4.61975869E-03  1.09541167E-01
  4.11929367E-03  2.57828894E-02 -5.87755319E-02  8.99625155E-02  2.57369375E-02
 -6.79365899E-03 -7.40053874E-02  4.29360046E-02  4.98038570E-03 -4.19661729E-03
  1.37612909E-03 -1.80477768E-02  2.30770062E-03  7.31102239E-04  4.92656901E-02
 -1.14114268E-01  2.09949744E-02  1.66275913E-02  4.63378592E-04 -1.17789732E-01
  3.82617887E-03  6.29418601E-03 -3.21780253E-04  2.44047691E-03  6.53924274E-03
 -3.78968311E-03  4.03548219E-04  4.89523870E-02 -9.80720621E-02 -7.66042946E-03
  3.04834198E-02  5.11312750E-03 -8.68074666E-02  8.89370404E-03  7.01063692E-03
  5.39025629E-04 -3.42379852E-02 -1.07032437E-02  5.35018553E-03  2.45428255E-03
 -2.53282376E-02 -2.93993303E-03 -3.60161796E-02 -3.39476757E-03 -2.11325049E-02
 -2.29013323E-03 -5.63514334E-02  1.03186158E-01  5.37949375E-03  1.03314940E-02
  3.61752129E-03  1.26416095E-01  7.58407625E-05 -5.18355288E-03  1.29730395E-03
  5.02434134E-02 -5.62138273E-03 -1.39017167E-02 -1.05251498E-03  3.26670278E-02
 -7.54529539E-02  1.41395444E-01  9.77226417E-02  2.40397753E-02 -6.49323053E-02
 -8.51452791E-03  5.06296012E-03  2.02746754E-03 -9.55237134E-02  1.89723022E-02
 -5.32084518E-03  3.06784593E-03  3.84142686E-02  4.47959440E-03  4.02179374E-02
  7.12126566E-03  4.23173204E-02  5.26421263E-03  4.47356430E-02 -1.02004011E-01
 -2.38305345E-01  2.20535580E-02  8.94364771E-03 -1.45541185E-01 -1.03247635E-01
  2.16284570E-04  1.39537844E-03 -3.92767223E-02  3.52801676E-02 -9.25983563E-03
 -3.35704267E-03 -2.64521287E-02  5.90753142E-02  2.64004805E-02  3.03022455E-02
  5.37607880E-03  7.90937327E-02  6.07170778E-03  1.92692849E-02  1.75621825E-03
  1.48215520E-02  4.83033251E-05  4.78353724E-03  6.74283235E-05 -1.70197848E-01
  3.31414941E-01 -1.77941758E-02 -2.28384198E-04 -6.10202048E-04  3.57927633E-01
  4.70991123E-04  9.02806307E-03  1.61116530E-03  7.26788985E-02  2.19327468E-02