 Entering Gaussian System, Link 0=/opt/cluster/programs/g09_d.01/g09//g09
 Input=/home/unibas/boittier/RDKit_G2/O.pdb/SCAN_1_2_6_8_S_17_20.0/11_SCAN_1_2_6_8_F/11_SCAN_O.pdb.com
 Output=/scratch/boittier/11_SCAN_O.pdb/11_SCAN_O.pdb.out
 Initial command:
 /opt/cluster/programs/g09_d.01/g09/l1.exe "/scratch/boittier/11_SCAN_O.pdb/Gau-147612.inp" -scrdir="/scratch/boittier/11_SCAN_O.pdb/"
 Entering Link 1 = /opt/cluster/programs/g09_d.01/g09/l1.exe PID=    147613.
  
 Copyright (c) 1988,1990,1992,1993,1995,1998,2003,2009,2013,
            Gaussian, Inc.  All Rights Reserved.
  
 This is part of the Gaussian(R) 09 program.  It is based on
 the Gaussian(R) 03 system (copyright 2003, Gaussian, Inc.),
 the Gaussian(R) 98 system (copyright 1998, Gaussian, Inc.),
 the Gaussian(R) 94 system (copyright 1995, Gaussian, Inc.),
 the Gaussian 92(TM) system (copyright 1992, Gaussian, Inc.),
 the Gaussian 90(TM) system (copyright 1990, Gaussian, Inc.),
 the Gaussian 88(TM) system (copyright 1988, Gaussian, Inc.),
 the Gaussian 86(TM) system (copyright 1986, Carnegie Mellon
 University), and the Gaussian 82(TM) system (copyright 1983,
 Carnegie Mellon University). Gaussian is a federally registered
 trademark of Gaussian, Inc.
  
 This software contains proprietary and confidential information,
 including trade secrets, belonging to Gaussian, Inc.
  
 This software is provided under written license and may be
 used, copied, transmitted, or stored only in accord with that
 written license.
  
 The following legend is applicable only to US Government
 contracts under FAR:
  
                    RESTRICTED RIGHTS LEGEND
  
 Use, reproduction and disclosure by the US Government is
 subject to restrictions as set forth in subparagraphs (a)
 and (c) of the Commercial Computer Software - Restricted
 Rights clause in FAR 52.227-19.
  
 Gaussian, Inc.
 340 Quinnipiac St., Bldg. 40, Wallingford CT 06492
  
  
 ---------------------------------------------------------------
 Warning -- This program may not be used in any manner that
 competes with the business of Gaussian, Inc. or will provide
 assistance to any competitor of Gaussian, Inc.  The licensee
 of this program is prohibited from giving any competitor of
 Gaussian, Inc. access to this program.  By using this program,
 the user acknowledges that Gaussian, Inc. is engaged in the
 business of creating and licensing software in the field of
 computational chemistry and represents and warrants to the
 licensee that it is not a competitor of Gaussian, Inc. and that
 it will not use this program in any manner prohibited above.
 ---------------------------------------------------------------
  

 Cite this work as:
 Gaussian 09, Revision D.01,
 M. J. Frisch, G. W. Trucks, H. B. Schlegel, G. E. Scuseria, 
 M. A. Robb, J. R. Cheeseman, G. Scalmani, V. Barone, B. Mennucci, 
 G. A. Petersson, H. Nakatsuji, M. Caricato, X. Li, H. P. Hratchian, 
 A. F. Izmaylov, J. Bloino, G. Zheng, J. L. Sonnenberg, M. Hada, 
 M. Ehara, K. Toyota, R. Fukuda, J. Hasegawa, M. Ishida, T. Nakajima, 
 Y. Honda, O. Kitao, H. Nakai, T. Vreven, J. A. Montgomery, Jr., 
 J. E. Peralta, F. Ogliaro, M. Bearpark, J. J. Heyd, E. Brothers, 
 K. N. Kudin, V. N. Staroverov, T. Keith, R. Kobayashi, J. Normand, 
 K. Raghavachari, A. Rendell, J. C. Burant, S. S. Iyengar, J. Tomasi, 
 M. Cossi, N. Rega, J. M. Millam, M. Klene, J. E. Knox, J. B. Cross, 
 V. Bakken, C. Adamo, J. Jaramillo, R. Gomperts, R. E. Stratmann, 
 O. Yazyev, A. J. Austin, R. Cammi, C. Pomelli, J. W. Ochterski, 
 R. L. Martin, K. Morokuma, V. G. Zakrzewski, G. A. Voth, 
 P. Salvador, J. J. Dannenberg, S. Dapprich, A. D. Daniels, 
 O. Farkas, J. B. Foresman, J. V. Ortiz, J. Cioslowski, 
 and D. J. Fox, Gaussian, Inc., Wallingford CT, 2013.
 
 ******************************************
 Gaussian 09:  ES64L-G09RevD.01 24-Apr-2013
                26-May-2021 
 ******************************************
 %chk=/home/unibas/boittier/RDKit_G2/O.pdb/SCAN_1_2_6_8_S_17_20.0/11_SCAN_1_2_6_8
 _F/O.pdb.chk
 %nproc=8
 Will use up to    8 processors via shared memory.
 %mem=16GB
 -----------------------------
 #p wB97XD/6-31+G Opt=ModRedun
 -----------------------------
 1/14=-1,18=120,19=15,26=3,38=1/1,3;
 2/9=110,12=2,17=6,18=5,40=1/2;
 3/5=1,6=6,7=10,11=2,16=1,25=1,30=1,71=1,74=-58/1,2,3;
 4//1;
 5/5=2,38=5/2;
 6/7=2,8=2,9=2,10=2,28=1/1;
 7//1,2,3,16;
 1/14=-1,18=20,19=15,26=3/3(2);
 2/9=110/2;
 99//99;
 2/9=110/2;
 3/5=1,6=6,7=10,11=2,16=1,25=1,30=1,71=1,74=-58/1,2,3;
 4/5=5,16=3,69=1/1;
 5/5=2,38=5/2;
 7//1,2,3,16;
 1/14=-1,18=20,19=15,26=3/3(-5);
 2/9=110/2;
 6/7=2,8=2,9=2,10=2,19=2,28=1/1;
 99/9=1/99;
 Leave Link    1 at Wed May 26 09:01:16 2021, MaxMem=  2147483648 cpu:         0.2
 (Enter /opt/cluster/programs/g09_d.01/g09/l101.exe)
 -----
 O.pdb
 -----
 Symbolic Z-matrix:
 Charge =  0 Multiplicity = 1
 C                     0.78251  -1.32469  -0.03817 
 C                     0.59716   0.17095  -0.01368 
 H                     0.24463  -1.81251   0.78186 
 H                     1.84444  -1.54645   0.06129 
 H                     0.40786  -1.73671  -0.98042 
 O                    -0.66269   0.64437  -0.31862 
 O                     1.50712   0.97218   0.14889 
 C                    -1.84712  -0.05208   0.16422 
 H                    -1.93494  -1.04827  -0.27994 
 H                    -2.68312   0.56618  -0.15447 
 H                    -1.82966  -0.11981   1.25528 
 
 The following ModRedundant input section has been read:
 D       1       2       6       8 F                                           
 
 NAtoms=     11 NQM=       11 NQMF=       0 NMMI=      0 NMMIF=      0
                NMic=       0 NMicF=      0.
                    Isotopes and Nuclear Properties:
 (Nuclear quadrupole moments (NQMom) in fm**2, nuclear magnetic moments (NMagM)
  in nuclear magnetons)

  Atom         1           2           3           4           5           6           7           8           9          10
 IAtWgt=          12          12           1           1           1          16          16          12           1           1
 AtmWgt=  12.0000000  12.0000000   1.0078250   1.0078250   1.0078250  15.9949146  15.9949146  12.0000000   1.0078250   1.0078250
 NucSpn=           0           0           1           1           1           0           0           0           1           1
 AtZEff=   0.0000000   0.0000000   0.0000000   0.0000000   0.0000000   0.0000000   0.0000000   0.0000000   0.0000000   0.0000000
 NQMom=    0.0000000   0.0000000   0.0000000   0.0000000   0.0000000   0.0000000   0.0000000   0.0000000   0.0000000   0.0000000
 NMagM=    0.0000000   0.0000000   2.7928460   2.7928460   2.7928460   0.0000000   0.0000000   0.0000000   2.7928460   2.7928460
 AtZNuc=   6.0000000   6.0000000   1.0000000   1.0000000   1.0000000   8.0000000   8.0000000   6.0000000   1.0000000   1.0000000

  Atom        11
 IAtWgt=           1
 AtmWgt=   1.0078250
 NucSpn=           1
 AtZEff=   0.0000000
 NQMom=    0.0000000
 NMagM=    2.7928460
 AtZNuc=   1.0000000
 Leave Link  101 at Wed May 26 09:01:17 2021, MaxMem=  2147483648 cpu:         4.1
 (Enter /opt/cluster/programs/g09_d.01/g09/l103.exe)

 GradGradGradGradGradGradGradGradGradGradGradGradGradGradGradGradGradGrad
 Berny optimization.
 Initialization pass.
                           ----------------------------
                           !    Initial Parameters    !
                           ! (Angstroms and Degrees)  !
 --------------------------                            --------------------------
 ! Name  Definition              Value          Derivative Info.                !
 --------------------------------------------------------------------------------
 ! R1    R(1,2)                  1.5073         estimate D2E/DX2                !
 ! R2    R(1,3)                  1.0953         estimate D2E/DX2                !
 ! R3    R(1,4)                  1.0894         estimate D2E/DX2                !
 ! R4    R(1,5)                  1.0945         estimate D2E/DX2                !
 ! R5    R(2,6)                  1.38           estimate D2E/DX2                !
 ! R6    R(2,7)                  1.2233         estimate D2E/DX2                !
 ! R7    R(6,8)                  1.4564         estimate D2E/DX2                !
 ! R8    R(8,9)                  1.0942         estimate D2E/DX2                !
 ! R9    R(8,10)                 1.0875         estimate D2E/DX2                !
 ! R10   R(8,11)                 1.0933         estimate D2E/DX2                !
 ! A1    A(2,1,3)              111.6773         estimate D2E/DX2                !
 ! A2    A(2,1,4)              108.6857         estimate D2E/DX2                !
 ! A3    A(2,1,5)              110.2084         estimate D2E/DX2                !
 ! A4    A(3,1,4)              108.6437         estimate D2E/DX2                !
 ! A5    A(3,1,5)              107.9844         estimate D2E/DX2                !
 ! A6    A(4,1,5)              109.6114         estimate D2E/DX2                !
 ! A7    A(1,2,6)              116.6853         estimate D2E/DX2                !
 ! A8    A(1,2,7)              124.0986         estimate D2E/DX2                !
 ! A9    A(6,2,7)              118.9319         estimate D2E/DX2                !
 ! A10   A(2,6,8)              120.3418         estimate D2E/DX2                !
 ! A11   A(6,8,9)              111.4725         estimate D2E/DX2                !
 ! A12   A(6,8,10)             104.8429         estimate D2E/DX2                !
 ! A13   A(6,8,11)             110.3338         estimate D2E/DX2                !
 ! A14   A(9,8,10)             109.6894         estimate D2E/DX2                !
 ! A15   A(9,8,11)             110.4845         estimate D2E/DX2                !
 ! A16   A(10,8,11)            109.8722         estimate D2E/DX2                !
 ! D1    D(3,1,2,6)            -69.116          estimate D2E/DX2                !
 ! D2    D(3,1,2,7)            117.0897         estimate D2E/DX2                !
 ! D3    D(4,1,2,6)            171.0437         estimate D2E/DX2                !
 ! D4    D(4,1,2,7)             -2.7507         estimate D2E/DX2                !
 ! D5    D(5,1,2,6)             50.9081         estimate D2E/DX2                !
 ! D6    D(5,1,2,7)           -122.8863         estimate D2E/DX2                !
 ! D7    D(1,2,6,8)             39.3854         Frozen                          !
 ! D8    D(7,2,6,8)           -146.485          estimate D2E/DX2                !
 ! D9    D(2,6,8,9)            -65.4038         estimate D2E/DX2                !
 ! D10   D(2,6,8,10)           175.9897         estimate D2E/DX2                !
 ! D11   D(2,6,8,11)            57.7451         estimate D2E/DX2                !
 --------------------------------------------------------------------------------
 Trust Radius=3.00D-01 FncErr=1.00D-07 GrdErr=1.00D-06
 Number of steps in this run=     47 maximum allowed number of steps=    100.
 GradGradGradGradGradGradGradGradGradGradGradGradGradGradGradGradGradGrad

 Leave Link  103 at Wed May 26 09:01:17 2021, MaxMem=  2147483648 cpu:         0.1
 (Enter /opt/cluster/programs/g09_d.01/g09/l202.exe)
                          Input orientation:                          
 ---------------------------------------------------------------------
 Center     Atomic      Atomic             Coordinates (Angstroms)
 Number     Number       Type             X           Y           Z
 ---------------------------------------------------------------------
      1          6           0        0.782510   -1.324685   -0.038170
      2          6           0        0.597164    0.170948   -0.013679
      3          1           0        0.244626   -1.812508    0.781858
      4          1           0        1.844444   -1.546446    0.061290
      5          1           0        0.407855   -1.736713   -0.980423
      6          8           0       -0.662686    0.644373   -0.318618
      7          8           0        1.507117    0.972184    0.148894
      8          6           0       -1.847117   -0.052079    0.164215
      9          1           0       -1.934935   -1.048269   -0.279939
     10          1           0       -2.683121    0.566178   -0.154466
     11          1           0       -1.829662   -0.119805    1.255279
 ---------------------------------------------------------------------
                    Distance matrix (angstroms):
                    1          2          3          4          5
     1  C    0.000000
     2  C    1.507273   0.000000
     3  H    1.095325   2.165932   0.000000
     4  H    1.089392   2.123857   1.774662   0.000000
     5  H    1.094520   2.146998   1.771447   1.784700   0.000000
     6  O    2.458543   1.379979   2.840867   3.351077   2.693254
     7  O    2.415710   1.223284   3.122345   2.542629   3.133984
     8  C    2.928382   2.460873   2.802852   3.983886   3.038599
     9  H    2.742146   2.822926   2.542039   3.827313   2.540334
    10  H    3.949618   3.307007   3.886715   5.000857   3.942036
    11  H    3.154075   2.753956   2.718831   4.118248   3.552357
                    6          7          8          9         10
     6  O    0.000000
     7  O    2.243674   0.000000
     8  C    1.456382   3.507169   0.000000
     9  H    2.117817   4.014206   1.094248   0.000000
    10  H    2.028600   4.220777   1.087521   1.783806   0.000000
    11  H    2.103082   3.681117   1.093303   1.797226   1.785034
                   11
    11  H    0.000000
 Stoichiometry    C3H6O2
 Framework group  C1[X(C3H6O2)]
 Deg. of freedom    27
 Full point group                 C1      NOp   1
 Largest Abelian subgroup         C1      NOp   1
 Largest concise Abelian subgroup C1      NOp   1
                         Standard orientation:                         
 ---------------------------------------------------------------------
 Center     Atomic      Atomic             Coordinates (Angstroms)
 Number     Number       Type             X           Y           Z
 ---------------------------------------------------------------------
      1          6           0       -0.782510    1.324685   -0.038170
      2          6           0       -0.597164   -0.170948   -0.013679
      3          1           0       -0.244626    1.812508    0.781858
      4          1           0       -1.844444    1.546446    0.061290
      5          1           0       -0.407855    1.736713   -0.980423
      6          8           0        0.662686   -0.644373   -0.318618
      7          8           0       -1.507117   -0.972184    0.148894
      8          6           0        1.847117    0.052079    0.164215
      9          1           0        1.934935    1.048269   -0.279939
     10          1           0        2.683121   -0.566178   -0.154466
     11          1           0        1.829662    0.119805    1.255279
 ---------------------------------------------------------------------
 Rotational constants (GHZ):      8.6524976      4.2286696      3.0303552
 Leave Link  202 at Wed May 26 09:01:17 2021, MaxMem=  2147483648 cpu:         0.0
 (Enter /opt/cluster/programs/g09_d.01/g09/l301.exe)
 Standard basis: 6-31+G (6D, 7F)
 Ernie: Thresh=  0.10000D-02 Tol=  0.10000D-05 Strict=F.
 There are    77 symmetry adapted cartesian basis functions of A   symmetry.
 There are    77 symmetry adapted basis functions of A   symmetry.
    77 basis functions,   154 primitive gaussians,    77 cartesian basis functions
    20 alpha electrons       20 beta electrons
       nuclear repulsion energy       178.9278121301 Hartrees.
 IExCor= 4639 DFT=T Ex+Corr=wB97XD ExCW=0 ScaHFX=  1.000000
 ScaDFX=  1.000000  1.000000  1.000000  1.000000 ScalE2=  1.000000  1.000000
 IRadAn=      0 IRanWt=     -1 IRanGd=            0 ICorTp=0 IEmpDi=121
  HFx wShort=  0.000000 wLong=  0.200000 cFull=  0.222036 cShort=  0.000000 cLong=  0.777964
  DFx wShort=  0.000000 wLong=  0.200000 cFull=  0.000000 cShort=  0.000000 cLong=  1.000000
 NAtoms=   11 NActive=   11 NUniq=   11 SFac= 1.00D+00 NAtFMM=   60 NAOKFM=F Big=F
 Integral buffers will be    131072 words long.
 Raffenetti 2 integral format.
 Two-electron integral symmetry is turned on.
 R6Disp:  Grimme-D2 Dispersion energy=       -0.0038705257 Hartrees.
 Nuclear repulsion after empirical dispersion term =      178.9239416043 Hartrees.
 Leave Link  301 at Wed May 26 09:01:17 2021, MaxMem=  2147483648 cpu:         0.3
 (Enter /opt/cluster/programs/g09_d.01/g09/l302.exe)
 NPDir=0 NMtPBC=     1 NCelOv=     1 NCel=       1 NClECP=     1 NCelD=      1
         NCelK=      1 NCelE2=     1 NClLst=     1 CellRange=     0.0.
 One-electron integrals computed using PRISM.
 NBasis=    77 RedAO= T EigKep=  1.91D-04  NBF=    77
 NBsUse=    77 1.00D-06 EigRej= -1.00D+00 NBFU=    77
 Precomputing XC quadrature grid using
 IXCGrd= 4 IRadAn=           0 IRanWt=          -1 IRanGd=           0 AccXCQ= 0.00D+00.
 Generated NRdTot=       0 NPtTot=           0 NUsed=           0 NTot=          32
 NSgBfM=    77    77    77    77    77 MxSgAt=    11 MxSgA2=    11.
 Leave Link  302 at Wed May 26 09:01:17 2021, MaxMem=  2147483648 cpu:         0.9
 (Enter /opt/cluster/programs/g09_d.01/g09/l303.exe)
 DipDrv:  MaxL=1.
 Leave Link  303 at Wed May 26 09:01:17 2021, MaxMem=  2147483648 cpu:         0.3
 (Enter /opt/cluster/programs/g09_d.01/g09/l401.exe)
 ExpMin= 4.38D-02 ExpMax= 5.48D+03 ExpMxC= 8.25D+02 IAcc=2 IRadAn=         4 AccDes= 0.00D+00
 Harris functional with IExCor= 4639 and IRadAn=       4 diagonalized for initial guess.
 HarFok:  IExCor= 4639 AccDes= 0.00D+00 IRadAn=         4 IDoV= 1 UseB2=F ITyADJ=14
 ICtDFT=  3500011 ScaDFX=  1.000000  1.000000  1.000000  1.000000
 FoFCou: FMM=F IPFlag=           0 FMFlag=      100000 FMFlg1=           0
         NFxFlg=           0 DoJE=T BraDBF=F KetDBF=T FulRan=T
         wScrn=  0.000000 ICntrl=     500 IOpCl=  0 I1Cent=   200000004 NGrid=           0
         NMat0=    1 NMatS0=      1 NMatT0=    0 NMatD0=    1 NMtDS0=    0 NMtDT0=    0
 Petite list used in FoFCou.
 Harris En= -257.360441585784    
 JPrj=0 DoOrth=F DoCkMO=F.
 Leave Link  401 at Wed May 26 09:01:17 2021, MaxMem=  2147483648 cpu:         1.4
 (Enter /opt/cluster/programs/g09_d.01/g09/l502.exe)
 Closed shell SCF:
 Using DIIS extrapolation, IDIIS=  1040.
 Integral symmetry usage will be decided dynamically.
 Keep R1 ints in memory in canonical form, NReq=9956864.
 IVT=       37546 IEndB=       37546 NGot=  2147483648 MDV=  2138425091
 LenX=  2138425091 LenY=  2138418721
 Requested convergence on RMS density matrix=1.00D-08 within 128 cycles.
 Requested convergence on MAX density matrix=1.00D-06.
 Requested convergence on             energy=1.00D-06.
 No special actions if energy rises.
 FoFCou: FMM=F IPFlag=           0 FMFlag=           0 FMFlg1=           0
         NFxFlg=           0 DoJE=F BraDBF=F KetDBF=F FulRan=T
         wScrn=  0.000000 ICntrl=     600 IOpCl=  0 I1Cent=           0 NGrid=           0
         NMat0=    1 NMatS0=   3003 NMatT0=    0 NMatD0=    1 NMtDS0=    0 NMtDT0=    0
 Symmetry not used in FoFCou.

 Cycle   1  Pass 1  IDiag  1:
 E= -268.113116045040    
 DIIS: error= 2.53D-02 at cycle   1 NSaved=   1.
 NSaved= 1 IEnMin= 1 EnMin= -268.113116045040     IErMin= 1 ErrMin= 2.53D-02
 ErrMax= 2.53D-02  0.00D+00 EMaxC= 1.00D-01 BMatC= 1.42D-01 BMatP= 1.42D-01
 IDIUse=3 WtCom= 7.47D-01 WtEn= 2.53D-01
 Coeff-Com:  0.100D+01
 Coeff-En:   0.100D+01
 Coeff:      0.100D+01
 Gap=     0.525 Goal=   None    Shift=    0.000
 GapD=    0.525 DampG=2.000 DampE=0.500 DampFc=1.0000 IDamp=-1.
 RMSDP=1.01D-02 MaxDP=1.91D-01              OVMax= 9.31D-02

 Cycle   2  Pass 1  IDiag  1:
 E= -268.128344431477     Delta-E=       -0.015228386437 Rises=F Damp=F
 DIIS: error= 2.95D-02 at cycle   2 NSaved=   2.
 NSaved= 2 IEnMin= 2 EnMin= -268.128344431477     IErMin= 1 ErrMin= 2.53D-02
 ErrMax= 2.95D-02  0.00D+00 EMaxC= 1.00D-01 BMatC= 9.99D-02 BMatP= 1.42D-01
 IDIUse=3 WtCom= 7.05D-01 WtEn= 2.95D-01
 Coeff-Com:  0.449D+00 0.551D+00
 Coeff-En:   0.448D+00 0.552D+00
 Coeff:      0.449D+00 0.551D+00
 Gap=     0.428 Goal=   None    Shift=    0.000
 RMSDP=5.06D-03 MaxDP=7.96D-02 DE=-1.52D-02 OVMax= 7.88D-02

 Cycle   3  Pass 1  IDiag  1:
 E= -268.197788773852     Delta-E=       -0.069444342375 Rises=F Damp=F
 DIIS: error= 9.88D-03 at cycle   3 NSaved=   3.
 NSaved= 3 IEnMin= 3 EnMin= -268.197788773852     IErMin= 3 ErrMin= 9.88D-03
 ErrMax= 9.88D-03  0.00D+00 EMaxC= 1.00D-01 BMatC= 1.01D-02 BMatP= 9.99D-02
 IDIUse=3 WtCom= 9.01D-01 WtEn= 9.88D-02
 Coeff-Com:  0.996D-01 0.258D+00 0.643D+00
 Coeff-En:   0.000D+00 0.000D+00 0.100D+01
 Coeff:      0.898D-01 0.232D+00 0.678D+00
 Gap=     0.439 Goal=   None    Shift=    0.000
 RMSDP=1.68D-03 MaxDP=2.52D-02 DE=-6.94D-02 OVMax= 3.96D-02

 Cycle   4  Pass 1  IDiag  1:
 E= -268.203768072753     Delta-E=       -0.005979298901 Rises=F Damp=F
 DIIS: error= 4.06D-03 at cycle   4 NSaved=   4.
 NSaved= 4 IEnMin= 4 EnMin= -268.203768072753     IErMin= 4 ErrMin= 4.06D-03
 ErrMax= 4.06D-03  0.00D+00 EMaxC= 1.00D-01 BMatC= 2.04D-03 BMatP= 1.01D-02
 IDIUse=3 WtCom= 9.59D-01 WtEn= 4.06D-02
 Coeff-Com: -0.200D-02 0.535D-01 0.365D+00 0.583D+00
 Coeff-En:   0.000D+00 0.000D+00 0.157D+00 0.843D+00
 Coeff:     -0.192D-02 0.514D-01 0.357D+00 0.594D+00
 Gap=     0.419 Goal=   None    Shift=    0.000
 RMSDP=9.19D-04 MaxDP=1.30D-02 DE=-5.98D-03 OVMax= 1.12D-02

 Cycle   5  Pass 1  IDiag  1:
 E= -268.205222672297     Delta-E=       -0.001454599544 Rises=F Damp=F
 DIIS: error= 1.19D-03 at cycle   5 NSaved=   5.
 NSaved= 5 IEnMin= 5 EnMin= -268.205222672297     IErMin= 5 ErrMin= 1.19D-03
 ErrMax= 1.19D-03  0.00D+00 EMaxC= 1.00D-01 BMatC= 1.15D-04 BMatP= 2.04D-03
 IDIUse=3 WtCom= 9.88D-01 WtEn= 1.19D-02
 Coeff-Com: -0.563D-02 0.101D-01 0.148D+00 0.316D+00 0.532D+00
 Coeff-En:   0.000D+00 0.000D+00 0.000D+00 0.000D+00 0.100D+01
 Coeff:     -0.557D-02 0.997D-02 0.146D+00 0.312D+00 0.537D+00
 Gap=     0.414 Goal=   None    Shift=    0.000
 RMSDP=1.66D-04 MaxDP=2.30D-03 DE=-1.45D-03 OVMax= 2.64D-03

 Cycle   6  Pass 1  IDiag  1:
 E= -268.205314719908     Delta-E=       -0.000092047610 Rises=F Damp=F
 DIIS: error= 1.59D-04 at cycle   6 NSaved=   6.
 NSaved= 6 IEnMin= 6 EnMin= -268.205314719908     IErMin= 6 ErrMin= 1.59D-04
 ErrMax= 1.59D-04  0.00D+00 EMaxC= 1.00D-01 BMatC= 2.71D-06 BMatP= 1.15D-04
 IDIUse=3 WtCom= 9.98D-01 WtEn= 1.59D-03
 Coeff-Com: -0.367D-03-0.736D-02-0.260D-01-0.335D-01 0.644D-01 0.100D+01
 Coeff-En:   0.000D+00 0.000D+00 0.000D+00 0.000D+00 0.000D+00 0.100D+01
 Coeff:     -0.367D-03-0.735D-02-0.259D-01-0.334D-01 0.643D-01 0.100D+01
 Gap=     0.415 Goal=   None    Shift=    0.000
 RMSDP=1.63D-04 MaxDP=2.99D-03 DE=-9.20D-05 OVMax= 1.06D-03

 Cycle   7  Pass 1  IDiag  1:
 E= -268.205319545304     Delta-E=       -0.000004825396 Rises=F Damp=F
 DIIS: error= 5.25D-05 at cycle   7 NSaved=   7.
 NSaved= 7 IEnMin= 7 EnMin= -268.205319545304     IErMin= 7 ErrMin= 5.25D-05
 ErrMax= 5.25D-05  0.00D+00 EMaxC= 1.00D-01 BMatC= 3.01D-07 BMatP= 2.71D-06
 IDIUse=1 WtCom= 1.00D+00 WtEn= 0.00D+00
 Coeff-Com:  0.422D-03-0.316D-02-0.188D-01-0.363D-01-0.155D-01 0.300D+00
 Coeff-Com:  0.774D+00
 Coeff:      0.422D-03-0.316D-02-0.188D-01-0.363D-01-0.155D-01 0.300D+00
 Coeff:      0.774D+00
 Gap=     0.415 Goal=   None    Shift=    0.000
 RMSDP=3.03D-05 MaxDP=5.13D-04 DE=-4.83D-06 OVMax= 3.02D-04

 Cycle   8  Pass 1  IDiag  1:
 E= -268.205320048895     Delta-E=       -0.000000503591 Rises=F Damp=F
 DIIS: error= 1.96D-05 at cycle   8 NSaved=   8.
 NSaved= 8 IEnMin= 8 EnMin= -268.205320048895     IErMin= 8 ErrMin= 1.96D-05
 ErrMax= 1.96D-05  0.00D+00 EMaxC= 1.00D-01 BMatC= 2.27D-08 BMatP= 3.01D-07
 IDIUse=1 WtCom= 1.00D+00 WtEn= 0.00D+00
 Coeff-Com:  0.240D-04 0.676D-03 0.247D-02 0.120D-02-0.540D-02-0.109D+00
 Coeff-Com:  0.888D-02 0.110D+01
 Coeff:      0.240D-04 0.676D-03 0.247D-02 0.120D-02-0.540D-02-0.109D+00
 Coeff:      0.888D-02 0.110D+01
 Gap=     0.415 Goal=   None    Shift=    0.000
 RMSDP=9.58D-06 MaxDP=6.99D-05 DE=-5.04D-07 OVMax= 1.80D-04

 Cycle   9  Pass 1  IDiag  1:
 E= -268.205320109566     Delta-E=       -0.000000060671 Rises=F Damp=F
 DIIS: error= 5.27D-06 at cycle   9 NSaved=   9.
 NSaved= 9 IEnMin= 9 EnMin= -268.205320109566     IErMin= 9 ErrMin= 5.27D-06
 ErrMax= 5.27D-06  0.00D+00 EMaxC= 1.00D-01 BMatC= 7.27D-10 BMatP= 2.27D-08
 IDIUse=1 WtCom= 1.00D+00 WtEn= 0.00D+00
 Coeff-Com: -0.227D-04 0.162D-03 0.111D-02 0.206D-02 0.193D-02-0.118D-01
 Coeff-Com: -0.473D-01-0.620D-01 0.112D+01
 Coeff:     -0.227D-04 0.162D-03 0.111D-02 0.206D-02 0.193D-02-0.118D-01
 Coeff:     -0.473D-01-0.620D-01 0.112D+01
 Gap=     0.415 Goal=   None    Shift=    0.000
 RMSDP=3.57D-06 MaxDP=5.60D-05 DE=-6.07D-08 OVMax= 4.02D-05

 Cycle  10  Pass 1  IDiag  1:
 E= -268.205320112280     Delta-E=       -0.000000002714 Rises=F Damp=F
 DIIS: error= 1.26D-06 at cycle  10 NSaved=  10.
 NSaved=10 IEnMin=10 EnMin= -268.205320112280     IErMin=10 ErrMin= 1.26D-06
 ErrMax= 1.26D-06  0.00D+00 EMaxC= 1.00D-01 BMatC= 5.13D-11 BMatP= 7.27D-10
 IDIUse=1 WtCom= 1.00D+00 WtEn= 0.00D+00
 Coeff-Com: -0.249D-05-0.198D-04-0.214D-04 0.870D-04 0.533D-03 0.461D-02
 Coeff-Com: -0.522D-02-0.587D-01 0.114D+00 0.945D+00
 Coeff:     -0.249D-05-0.198D-04-0.214D-04 0.870D-04 0.533D-03 0.461D-02
 Coeff:     -0.522D-02-0.587D-01 0.114D+00 0.945D+00
 Gap=     0.415 Goal=   None    Shift=    0.000
 RMSDP=7.41D-07 MaxDP=1.26D-05 DE=-2.71D-09 OVMax= 6.50D-06

 Cycle  11  Pass 1  IDiag  1:
 E= -268.205320112422     Delta-E=       -0.000000000142 Rises=F Damp=F
 DIIS: error= 4.00D-07 at cycle  11 NSaved=  11.
 NSaved=11 IEnMin=11 EnMin= -268.205320112422     IErMin=11 ErrMin= 4.00D-07
 ErrMax= 4.00D-07  0.00D+00 EMaxC= 1.00D-01 BMatC= 1.02D-11 BMatP= 5.13D-11
 IDIUse=1 WtCom= 1.00D+00 WtEn= 0.00D+00
 Coeff-Com:  0.167D-05-0.258D-04-0.139D-03-0.228D-03-0.835D-04 0.284D-02
 Coeff-Com:  0.391D-02-0.992D-02-0.101D+00 0.295D+00 0.810D+00
 Coeff:      0.167D-05-0.258D-04-0.139D-03-0.228D-03-0.835D-04 0.284D-02
 Coeff:      0.391D-02-0.992D-02-0.101D+00 0.295D+00 0.810D+00
 Gap=     0.415 Goal=   None    Shift=    0.000
 RMSDP=1.71D-07 MaxDP=2.27D-06 DE=-1.42D-10 OVMax= 2.78D-06

 Cycle  12  Pass 1  IDiag  1:
 E= -268.205320112446     Delta-E=       -0.000000000023 Rises=F Damp=F
 DIIS: error= 1.76D-07 at cycle  12 NSaved=  12.
 NSaved=12 IEnMin=12 EnMin= -268.205320112446     IErMin=12 ErrMin= 1.76D-07
 ErrMax= 1.76D-07  0.00D+00 EMaxC= 1.00D-01 BMatC= 5.25D-13 BMatP= 1.02D-11
 IDIUse=1 WtCom= 1.00D+00 WtEn= 0.00D+00
 Coeff-Com: -0.137D-06 0.663D-05 0.278D-04 0.341D-04-0.641D-04-0.959D-03
 Coeff-Com: -0.361D-03 0.707D-02 0.998D-02-0.149D+00-0.169D+00 0.130D+01
 Coeff:     -0.137D-06 0.663D-05 0.278D-04 0.341D-04-0.641D-04-0.959D-03
 Coeff:     -0.361D-03 0.707D-02 0.998D-02-0.149D+00-0.169D+00 0.130D+01
 Gap=     0.415 Goal=   None    Shift=    0.000
 RMSDP=6.34D-08 MaxDP=7.25D-07 DE=-2.32D-11 OVMax= 1.85D-06

 Cycle  13  Pass 1  IDiag  1:
 E= -268.205320112449     Delta-E=       -0.000000000003 Rises=F Damp=F
 DIIS: error= 4.51D-08 at cycle  13 NSaved=  13.
 NSaved=13 IEnMin=13 EnMin= -268.205320112449     IErMin=13 ErrMin= 4.51D-08
 ErrMax= 4.51D-08  0.00D+00 EMaxC= 1.00D-01 BMatC= 3.15D-14 BMatP= 5.25D-13
 IDIUse=1 WtCom= 1.00D+00 WtEn= 0.00D+00
 Coeff-Com: -0.743D-07-0.327D-06 0.175D-05 0.759D-05 0.225D-04 0.117D-03
 Coeff-Com: -0.151D-03-0.157D-02 0.418D-02 0.258D-01-0.260D-02-0.383D+00
 Coeff-Com:  0.136D+01
 Coeff:     -0.743D-07-0.327D-06 0.175D-05 0.759D-05 0.225D-04 0.117D-03
 Coeff:     -0.151D-03-0.157D-02 0.418D-02 0.258D-01-0.260D-02-0.383D+00
 Coeff:      0.136D+01
 Gap=     0.415 Goal=   None    Shift=    0.000
 RMSDP=2.29D-08 MaxDP=3.14D-07 DE=-2.96D-12 OVMax= 5.37D-07

 Cycle  14  Pass 1  IDiag  1:
 E= -268.205320112448     Delta-E=        0.000000000000 Rises=F Damp=F
 DIIS: error= 8.16D-09 at cycle  14 NSaved=  14.
 NSaved=14 IEnMin=13 EnMin= -268.205320112449     IErMin=14 ErrMin= 8.16D-09
 ErrMax= 8.16D-09  0.00D+00 EMaxC= 1.00D-01 BMatC= 1.51D-15 BMatP= 3.15D-14
 IDIUse=1 WtCom= 1.00D+00 WtEn= 0.00D+00
 Coeff-Com:  0.303D-07-0.950D-07-0.161D-05-0.368D-05-0.400D-05-0.554D-05
 Coeff-Com:  0.651D-04 0.219D-03-0.163D-02-0.251D-02 0.709D-02 0.781D-01
 Coeff-Com: -0.503D+00 0.142D+01
 Coeff:      0.303D-07-0.950D-07-0.161D-05-0.368D-05-0.400D-05-0.554D-05
 Coeff:      0.651D-04 0.219D-03-0.163D-02-0.251D-02 0.709D-02 0.781D-01
 Coeff:     -0.503D+00 0.142D+01
 Gap=     0.415 Goal=   None    Shift=    0.000
 RMSDP=3.48D-09 MaxDP=3.81D-08 DE= 3.41D-13 OVMax= 1.24D-07

 SCF Done:  E(RwB97XD) =  -268.205320112     A.U. after   14 cycles
            NFock= 14  Conv=0.35D-08     -V/T= 2.0057
 KE= 2.666781111030D+02 PE=-9.853081249764D+02 EE= 2.715007521566D+02
 Leave Link  502 at Wed May 26 09:01:19 2021, MaxMem=  2147483648 cpu:        15.4
 (Enter /opt/cluster/programs/g09_d.01/g09/l601.exe)
 Copying SCF densities to generalized density rwf, IOpCl= 0 IROHF=0.

 **********************************************************************

            Population analysis using the SCF density.

 **********************************************************************

 Orbital symmetries:
       Occupied  (A) (A) (A) (A) (A) (A) (A) (A) (A) (A) (A) (A)
                 (A) (A) (A) (A) (A) (A) (A) (A)
       Virtual   (A) (A) (A) (A) (A) (A) (A) (A) (A) (A) (A) (A)
                 (A) (A) (A) (A) (A) (A) (A) (A) (A) (A) (A) (A)
                 (A) (A) (A) (A) (A) (A) (A) (A) (A) (A) (A) (A)
                 (A) (A) (A) (A) (A) (A) (A) (A) (A) (A) (A) (A)
                 (A) (A) (A) (A) (A) (A) (A) (A) (A)
 The electronic state is 1-A.
 Alpha  occ. eigenvalues --  -19.31852 -19.27594 -10.45242 -10.36980 -10.32128
 Alpha  occ. eigenvalues --   -1.21687  -1.14002  -0.87212  -0.83710  -0.67114
 Alpha  occ. eigenvalues --   -0.60454  -0.59011  -0.57573  -0.53784  -0.51801
 Alpha  occ. eigenvalues --   -0.50809  -0.47706  -0.42869  -0.38651  -0.36375
 Alpha virt. eigenvalues --    0.05096   0.06365   0.07671   0.09155   0.09513
 Alpha virt. eigenvalues --    0.11987   0.12554   0.12906   0.14388   0.14829
 Alpha virt. eigenvalues --    0.16703   0.17107   0.19351   0.21130   0.23484
 Alpha virt. eigenvalues --    0.26486   0.27142   0.29382   0.29859   0.31365
 Alpha virt. eigenvalues --    0.33726   0.34946   0.36517   0.37092   0.39143
 Alpha virt. eigenvalues --    0.39602   0.41452   0.43389   0.44604   0.45715
 Alpha virt. eigenvalues --    0.56273   0.67394   0.72545   0.73802   0.74045
 Alpha virt. eigenvalues --    0.78258   0.80793   0.85291   0.93396   0.95061
 Alpha virt. eigenvalues --    1.07626   1.09071   1.11282   1.15989   1.16354
 Alpha virt. eigenvalues --    1.21450   1.24717   1.27681   1.33787   1.37376
 Alpha virt. eigenvalues --    1.40286   1.44411   1.46461   1.50604   1.65576
 Alpha virt. eigenvalues --    1.91518   2.02210
          Condensed to atoms (all electrons):
               1          2          3          4          5          6
     1  C    6.690439  -0.365029   0.325789   0.347825   0.393000  -0.442759
     2  C   -0.365029   5.624162  -0.006327  -0.007605  -0.065992   0.119281
     3  H    0.325789  -0.006327   0.486119  -0.020099  -0.026477  -0.000848
     4  H    0.347825  -0.007605  -0.020099   0.439340  -0.019834   0.008682
     5  H    0.393000  -0.065992  -0.026477  -0.019834   0.462381   0.012874
     6  O   -0.442759   0.119281  -0.000848   0.008682   0.012874   8.892769
     7  O   -0.176637   0.345913   0.002481  -0.003862   0.002242  -0.183317
     8  C   -0.088101  -0.049048   0.010274   0.000250  -0.006502   0.041393
     9  H    0.008917  -0.008230  -0.002331   0.000020   0.000818  -0.032478
    10  H   -0.006555   0.003985   0.000159  -0.000001  -0.000017  -0.058336
    11  H    0.008613  -0.010919  -0.000103  -0.000018   0.000071  -0.046439
               7          8          9         10         11
     1  C   -0.176637  -0.088101   0.008917  -0.006555   0.008613
     2  C    0.345913  -0.049048  -0.008230   0.003985  -0.010919
     3  H    0.002481   0.010274  -0.002331   0.000159  -0.000103
     4  H   -0.003862   0.000250   0.000020  -0.000001  -0.000018
     5  H    0.002242  -0.006502   0.000818  -0.000017   0.000071
     6  O   -0.183317   0.041393  -0.032478  -0.058336  -0.046439
     7  O    8.398072   0.013903  -0.002173  -0.000016   0.003312
     8  C    0.013903   5.313593   0.366686   0.410557   0.382662
     9  H   -0.002173   0.366686   0.536899  -0.026825  -0.041198
    10  H   -0.000016   0.410557  -0.026825   0.469380  -0.026773
    11  H    0.003312   0.382662  -0.041198  -0.026773   0.517128
 Mulliken charges:
               1
     1  C   -0.695502
     2  C    0.419808
     3  H    0.231362
     4  H    0.255302
     5  H    0.247436
     6  O   -0.310822
     7  O   -0.399917
     8  C   -0.395668
     9  H    0.199894
    10  H    0.234442
    11  H    0.213664
 Sum of Mulliken charges =   0.00000
 Mulliken charges with hydrogens summed into heavy atoms:
               1
     1  C    0.038598
     2  C    0.419808
     6  O   -0.310822
     7  O   -0.399917
     8  C    0.252333
 Electronic spatial extent (au):  <R**2>=            433.5680
 Charge=              0.0000 electrons
 Dipole moment (field-independent basis, Debye):
    X=              3.0287    Y=              4.1299    Z=              0.5585  Tot=              5.1518
 Quadrupole moment (field-independent basis, Debye-Ang):
   XX=            -30.0463   YY=            -33.0169   ZZ=            -30.0141
   XY=             -3.2858   XZ=              1.5974   YZ=             -0.4221
 Traceless Quadrupole moment (field-independent basis, Debye-Ang):
   XX=              0.9795   YY=             -1.9912   ZZ=              1.0117
   XY=             -3.2858   XZ=              1.5974   YZ=             -0.4221
 Octapole moment (field-independent basis, Debye-Ang**2):
  XXX=             16.7209  YYY=              2.7758  ZZZ=              0.5177  XYY=              2.0985
  XXY=              4.7978  XXZ=             -0.7898  XZZ=              0.1020  YZZ=              0.1176
  YYZ=             -0.4505  XYZ=             -1.0421
 Hexadecapole moment (field-independent basis, Debye-Ang**3):
 XXXX=           -315.5379 YYYY=           -181.9674 ZZZZ=            -46.4363 XXXY=            -16.1172
 XXXZ=             -0.5462 YYYX=             -1.8489 YYYZ=             -0.2744 ZZZX=              1.3494
 ZZZY=             -0.8465 XXYY=            -86.1493 XXZZ=            -63.0930 YYZZ=            -36.0080
 XXYZ=              1.5897 YYXZ=             -0.0846 ZZXY=              1.4588
 N-N= 1.789239416043D+02 E-N=-9.853081250765D+02  KE= 2.666781111030D+02
 No NMR shielding tensors so no spin-rotation constants.
 Leave Link  601 at Wed May 26 09:01:19 2021, MaxMem=  2147483648 cpu:         0.6
 (Enter /opt/cluster/programs/g09_d.01/g09/l701.exe)
 Compute integral first derivatives.
 ... and contract with generalized density number  0.
 R6Disp: Adding Grimme-D2 dispersion energy 1st derivatives to the gradient.
 Leave Link  701 at Wed May 26 09:01:19 2021, MaxMem=  2147483648 cpu:         0.6
 (Enter /opt/cluster/programs/g09_d.01/g09/l702.exe)
 L702 exits ... SP integral derivatives will be done elsewhere.
 Leave Link  702 at Wed May 26 09:01:19 2021, MaxMem=  2147483648 cpu:         0.2
 (Enter /opt/cluster/programs/g09_d.01/g09/l703.exe)
 Compute integral first derivatives, UseDBF=F ICtDFT=           0.
 Integral derivatives from FoFJK, PRISM(SPDF).
 Calling FoFJK, ICntrl=      2127 FMM=F ISym2X=0 I1Cent= 0 IOpClX= 0 NMat=1 NMatS=1 NMatT=0.
 FoFJK:  IHMeth= 1 ICntrl=    2127 DoSepK=T KAlg= 0 I1Cent=   0 FoldK=F
 IRaf=         1 NMat=   1 IRICut=       1 DoRegI=T DoRafI=F ISym2E= 0.
 FoFCou: FMM=F IPFlag=           0 FMFlag=      100000 FMFlg1=         800
         NFxFlg=           0 DoJE=F BraDBF=F KetDBF=F FulRan=T
         wScrn=  0.000000 ICntrl=    2527 IOpCl=  0 I1Cent=           0 NGrid=           0
         NMat0=    1 NMatS0=      1 NMatT0=    0 NMatD0=    1 NMtDS0=    0 NMtDT0=    0
 Symmetry not used in FoFCou.
 Leave Link  703 at Wed May 26 09:01:20 2021, MaxMem=  2147483648 cpu:         3.7
 (Enter /opt/cluster/programs/g09_d.01/g09/l716.exe)
 Dipole        = 1.19159672D+00 1.62483359D+00 2.19726533D-01
 ***** Axes restored to original set *****
 -------------------------------------------------------------------
 Center     Atomic                   Forces (Hartrees/Bohr)
 Number     Number              X              Y              Z
 -------------------------------------------------------------------
      1        6          -0.000969739   -0.000180110    0.003744192
      2        6           0.001429410   -0.000963457   -0.007420283
      3        1           0.000008416    0.000002156   -0.000000744
      4        1           0.000002778    0.000007473   -0.000005781
      5        1           0.000000093    0.000001583   -0.000000884
      6        8          -0.000424068    0.003463545    0.007110561
      7        8          -0.000004239    0.000008104   -0.000006997
      8        6          -0.000038346   -0.002322372   -0.003434291
      9        1          -0.000000854   -0.000005295    0.000005312
     10        1          -0.000004723   -0.000009429    0.000006091
     11        1           0.000001272   -0.000002199    0.000002824
 -------------------------------------------------------------------
 Cartesian Forces:  Max     0.007420283 RMS     0.002152868
 Leave Link  716 at Wed May 26 09:01:20 2021, MaxMem=  2147483648 cpu:         0.2
 (Enter /opt/cluster/programs/g09_d.01/g09/l103.exe)

 GradGradGradGradGradGradGradGradGradGradGradGradGradGradGradGradGradGrad
 Berny optimization.
 FormGI is forming the generalized inverse of G from B-inverse, IUseBI=4.
 Internal  Forces:  Max     0.006068122 RMS     0.001271160
 Search for a local minimum.
 Step number   1 out of a maximum of   47
 All quantities printed in internal units (Hartrees-Bohrs-Radians)
 RMS Force = .21583D-05 SwitMx=.10000D-02 MixMth= 2
 Mixed Optimization -- En-DIIS/RFO-DIIS
 Second derivative matrix not updated -- first step.
 ITU=  0
     Eigenvalues ---    0.00670   0.00946   0.01178   0.07219   0.07459
     Eigenvalues ---    0.09931   0.10636   0.16000   0.16000   0.16000
     Eigenvalues ---    0.16000   0.16000   0.16000   0.24882   0.25000
     Eigenvalues ---    0.25000   0.31626   0.34204   0.34295   0.34326
     Eigenvalues ---    0.34434   0.34883   0.35101   0.37421   0.49106
     Eigenvalues ---    0.939431000.000001000.000001000.000001000.00000
     Eigenvalues --- 1000.000001000.000001000.000001000.000001000.00000
     Eigenvalues --- 1000.000001000.00000
 RFO step:  Lambda= 0.00000000D+00 EMin= 6.69743440D-03
 Linear search not attempted -- first point.
 Iteration  1 RMS(Cart)=  0.00006073 RMS(Int)=  0.00000000
 Iteration  2 RMS(Cart)=  0.00000000 RMS(Int)=  0.00000000
 Iteration  1 RMS(Cart)=  0.00000000 RMS(Int)=  0.00000000
 ITry= 1 IFail=0 DXMaxC= 1.99D-04 DCOld= 1.00D+10 DXMaxT= 3.00D-01 DXLimC= 3.00D+00 Rises=F
 Variable       Old X    -DE/DX   Delta X   Delta X   Delta X     New X
                                 (Linear)    (Quad)   (Total)
    R1        2.84833   0.00000   0.00000   0.00001   0.00001   2.84834
    R2        2.06986   0.00000   0.00000   0.00000   0.00000   2.06986
    R3        2.05865   0.00000   0.00000   0.00000   0.00000   2.05865
    R4        2.06834   0.00000   0.00000   0.00000   0.00000   2.06834
    R5        2.60778   0.00000   0.00000   0.00001   0.00001   2.60779
    R6        2.31167   0.00000   0.00000   0.00000   0.00000   2.31167
    R7        2.75216   0.00000   0.00000   0.00000   0.00000   2.75217
    R8        2.06783   0.00000   0.00000   0.00000   0.00000   2.06783
    R9        2.05512   0.00000   0.00000   0.00000   0.00000   2.05512
   R10        2.06604   0.00000   0.00000   0.00000   0.00000   2.06604
    A1        1.94914   0.00000   0.00000   0.00002   0.00002   1.94915
    A2        1.89692   0.00000   0.00000   0.00000   0.00000   1.89692
    A3        1.92350   0.00000   0.00000  -0.00001  -0.00001   1.92349
    A4        1.89619   0.00000   0.00000   0.00000   0.00000   1.89619
    A5        1.88468   0.00000   0.00000   0.00000   0.00000   1.88468
    A6        1.91308   0.00000   0.00000   0.00000   0.00000   1.91308
    A7        2.03654   0.00006   0.00000   0.00002   0.00002   2.03656
    A8        2.16593   0.00032   0.00000   0.00000   0.00000   2.16592
    A9        2.07575  -0.00016   0.00000  -0.00001  -0.00001   2.07574
   A10        2.10036   0.00001   0.00000   0.00004   0.00004   2.10040
   A11        1.94556   0.00000   0.00000   0.00001   0.00001   1.94557
   A12        1.82985   0.00000   0.00000   0.00000   0.00000   1.82985
   A13        1.92569   0.00000   0.00000   0.00001   0.00001   1.92570
   A14        1.91444   0.00000   0.00000  -0.00002  -0.00002   1.91442
   A15        1.92832   0.00000   0.00000   0.00001   0.00001   1.92833
   A16        1.91763   0.00000   0.00000  -0.00001  -0.00001   1.91762
    D1       -1.20630   0.00119   0.00000  -0.00006  -0.00006  -1.20636
    D2        2.04360  -0.00119   0.00000  -0.00008  -0.00008   2.04352
    D3        2.98527   0.00119   0.00000  -0.00007  -0.00007   2.98521
    D4       -0.04801  -0.00119   0.00000  -0.00009  -0.00009  -0.04810
    D5        0.88851   0.00119   0.00000  -0.00006  -0.00006   0.88846
    D6       -2.14477  -0.00119   0.00000  -0.00008  -0.00008  -2.14485
    D7        0.68740  -0.00607   0.00000   0.00000   0.00000   0.68740
    D8       -2.55665  -0.00378   0.00000   0.00002   0.00002  -2.55662
    D9       -1.14151   0.00000   0.00000   0.00001   0.00001  -1.14150
   D10        3.07160   0.00000   0.00000   0.00003   0.00003   3.07163
   D11        1.00784   0.00000   0.00000   0.00003   0.00003   1.00788
         Item               Value     Threshold  Converged?
 Maximum Force            0.000009     0.000450     YES
 RMS     Force            0.000002     0.000300     YES
 Maximum Displacement     0.000199     0.001800     YES
 RMS     Displacement     0.000061     0.001200     YES
 Predicted change in Energy=-4.852492D-10
 Optimization completed.
    -- Stationary point found.
                           ----------------------------
                           !   Optimized Parameters   !
                           ! (Angstroms and Degrees)  !
 --------------------------                            --------------------------
 ! Name  Definition              Value          Derivative Info.                !
 --------------------------------------------------------------------------------
 ! R1    R(1,2)                  1.5073         -DE/DX =    0.0                 !
 ! R2    R(1,3)                  1.0953         -DE/DX =    0.0                 !
 ! R3    R(1,4)                  1.0894         -DE/DX =    0.0                 !
 ! R4    R(1,5)                  1.0945         -DE/DX =    0.0                 !
 ! R5    R(2,6)                  1.38           -DE/DX =    0.0                 !
 ! R6    R(2,7)                  1.2233         -DE/DX =    0.0                 !
 ! R7    R(6,8)                  1.4564         -DE/DX =    0.0                 !
 ! R8    R(8,9)                  1.0942         -DE/DX =    0.0                 !
 ! R9    R(8,10)                 1.0875         -DE/DX =    0.0                 !
 ! R10   R(8,11)                 1.0933         -DE/DX =    0.0                 !
 ! A1    A(2,1,3)              111.6773         -DE/DX =    0.0                 !
 ! A2    A(2,1,4)              108.6857         -DE/DX =    0.0                 !
 ! A3    A(2,1,5)              110.2084         -DE/DX =    0.0                 !
 ! A4    A(3,1,4)              108.6437         -DE/DX =    0.0                 !
 ! A5    A(3,1,5)              107.9844         -DE/DX =    0.0                 !
 ! A6    A(4,1,5)              109.6114         -DE/DX =    0.0                 !
 ! A7    A(1,2,6)              116.6853         -DE/DX =    0.0001              !
 ! A8    A(1,2,7)              124.0986         -DE/DX =    0.0003              !
 ! A9    A(6,2,7)              118.9319         -DE/DX =   -0.0002              !
 ! A10   A(2,6,8)              120.3418         -DE/DX =    0.0                 !
 ! A11   A(6,8,9)              111.4725         -DE/DX =    0.0                 !
 ! A12   A(6,8,10)             104.8429         -DE/DX =    0.0                 !
 ! A13   A(6,8,11)             110.3338         -DE/DX =    0.0                 !
 ! A14   A(9,8,10)             109.6894         -DE/DX =    0.0                 !
 ! A15   A(9,8,11)             110.4845         -DE/DX =    0.0                 !
 ! A16   A(10,8,11)            109.8722         -DE/DX =    0.0                 !
 ! D1    D(3,1,2,6)            -69.116          -DE/DX =    0.0012              !
 ! D2    D(3,1,2,7)            117.0897         -DE/DX =   -0.0012              !
 ! D3    D(4,1,2,6)            171.0437         -DE/DX =    0.0012              !
 ! D4    D(4,1,2,7)             -2.7507         -DE/DX =   -0.0012              !
 ! D5    D(5,1,2,6)             50.9081         -DE/DX =    0.0012              !
 ! D6    D(5,1,2,7)           -122.8863         -DE/DX =   -0.0012              !
 ! D7    D(1,2,6,8)             39.3854         -DE/DX =   -0.0061              !
 ! D8    D(7,2,6,8)           -146.485          -DE/DX =   -0.0038              !
 ! D9    D(2,6,8,9)            -65.4038         -DE/DX =    0.0                 !
 ! D10   D(2,6,8,10)           175.9897         -DE/DX =    0.0                 !
 ! D11   D(2,6,8,11)            57.7451         -DE/DX =    0.0                 !
 --------------------------------------------------------------------------------
 Lowest energy point so far.  Saving SCF results.
 GradGradGradGradGradGradGradGradGradGradGradGradGradGradGradGradGradGrad

 Largest change from initial coordinates is atom   10       0.000 Angstoms.
 Leave Link  103 at Wed May 26 09:01:20 2021, MaxMem=  2147483648 cpu:         0.1
 (Enter /opt/cluster/programs/g09_d.01/g09/l202.exe)
                          Input orientation:                          
 ---------------------------------------------------------------------
 Center     Atomic      Atomic             Coordinates (Angstroms)
 Number     Number       Type             X           Y           Z
 ---------------------------------------------------------------------
      1          6           0        0.782510   -1.324685   -0.038170
      2          6           0        0.597164    0.170948   -0.013679
      3          1           0        0.244626   -1.812508    0.781858
      4          1           0        1.844444   -1.546446    0.061290
      5          1           0        0.407855   -1.736713   -0.980423
      6          8           0       -0.662686    0.644373   -0.318618
      7          8           0        1.507117    0.972184    0.148894
      8          6           0       -1.847117   -0.052079    0.164215
      9          1           0       -1.934935   -1.048269   -0.279939
     10          1           0       -2.683121    0.566178   -0.154466
     11          1           0       -1.829662   -0.119805    1.255279
 ---------------------------------------------------------------------
                    Distance matrix (angstroms):
                    1          2          3          4          5
     1  C    0.000000
     2  C    1.507273   0.000000
     3  H    1.095325   2.165932   0.000000
     4  H    1.089392   2.123857   1.774662   0.000000
     5  H    1.094520   2.146998   1.771447   1.784700   0.000000
     6  O    2.458543   1.379979   2.840867   3.351077   2.693254
     7  O    2.415710   1.223284   3.122345   2.542629   3.133984
     8  C    2.928382   2.460873   2.802852   3.983886   3.038599
     9  H    2.742146   2.822926   2.542039   3.827313   2.540334
    10  H    3.949618   3.307007   3.886715   5.000857   3.942036
    11  H    3.154075   2.753956   2.718831   4.118248   3.552357
                    6          7          8          9         10
     6  O    0.000000
     7  O    2.243674   0.000000
     8  C    1.456382   3.507169   0.000000
     9  H    2.117817   4.014206   1.094248   0.000000
    10  H    2.028600   4.220777   1.087521   1.783806   0.000000
    11  H    2.103082   3.681117   1.093303   1.797226   1.785034
                   11
    11  H    0.000000
 Stoichiometry    C3H6O2
 Framework group  C1[X(C3H6O2)]
 Deg. of freedom    27
 Full point group                 C1      NOp   1
 RotChk:  IX=0 Diff= 2.20D-15
 Largest Abelian subgroup         C1      NOp   1
 Largest concise Abelian subgroup C1      NOp   1
                         Standard orientation:                         
 ---------------------------------------------------------------------
 Center     Atomic      Atomic             Coordinates (Angstroms)
 Number     Number       Type             X           Y           Z
 ---------------------------------------------------------------------
      1          6           0       -0.782510    1.324685   -0.038170
      2          6           0       -0.597164   -0.170948   -0.013679
      3          1           0       -0.244626    1.812508    0.781858
      4          1           0       -1.844444    1.546446    0.061290
      5          1           0       -0.407855    1.736713   -0.980423
      6          8           0        0.662686   -0.644373   -0.318618
      7          8           0       -1.507117   -0.972184    0.148894
      8          6           0        1.847117    0.052079    0.164215
      9          1           0        1.934935    1.048269   -0.279939
     10          1           0        2.683121   -0.566178   -0.154466
     11          1           0        1.829662    0.119805    1.255279
 ---------------------------------------------------------------------
 Rotational constants (GHZ):      8.6524976      4.2286696      3.0303552
 Leave Link  202 at Wed May 26 09:01:20 2021, MaxMem=  2147483648 cpu:         0.0
 (Enter /opt/cluster/programs/g09_d.01/g09/l9999.exe)
 1\1\GINC-NODE10\FOpt\RwB97XD\6-31+G\C3H6O2\BOITTIER\26-May-2021\0\\#p 
 wB97XD/6-31+G Opt=ModRedun\\O.pdb\\0,1\C,0.78251,-1.324685,-0.03817\C,
 0.597164,0.170948,-0.013679\H,0.244626,-1.812508,0.781858\H,1.844444,-
 1.546446,0.06129\H,0.407855,-1.736713,-0.980423\O,-0.662686,0.644373,-
 0.318618\O,1.507117,0.972184,0.148894\C,-1.847117,-0.052079,0.164215\H
 ,-1.934935,-1.048269,-0.279939\H,-2.683121,0.566178,-0.154466\H,-1.829
 662,-0.119805,1.255279\\Version=ES64L-G09RevD.01\State=1-A\HF=-268.205
 3201\RMSD=3.477e-09\RMSF=2.153e-03\Dipole=-1.191597,-1.6248334,0.21972
 65\Quadrupole=0.7282384,-1.4803777,0.7521394,-2.4428914,-1.1876603,0.3
 138507\PG=C01 [X(C3H6O2)]\\@


 THE WHOLE OF SCIENCE IS NOTHING MORE THAN A REFINEMENT OF EVERYDAY THINKING.
                                                              -- A. EINSTEIN
 Job cpu time:       0 days  0 hours  0 minutes 28.6 seconds.
 File lengths (MBytes):  RWF=      5 Int=      0 D2E=      0 Chk=      2 Scr=      1
 Normal termination of Gaussian 09 at Wed May 26 09:01:20 2021.
