 Entering Gaussian System, Link 0=/opt/cluster/programs/g09_d.01/g09//g09
 Input=/home/unibas/boittier/RDKit_G2/L.pdb/SCAN_1_2_3_4_S_17_20.0/3_SCAN_1_2_3_4_F/3_SCAN_L.pdb.com
 Output=/scratch/boittier/3_SCAN_L.pdb/3_SCAN_L.pdb.out
 Initial command:
 /opt/cluster/programs/g09_d.01/g09/l1.exe "/scratch/boittier/3_SCAN_L.pdb/Gau-193495.inp" -scrdir="/scratch/boittier/3_SCAN_L.pdb/"
 Entering Link 1 = /opt/cluster/programs/g09_d.01/g09/l1.exe PID=    193496.
  
 Copyright (c) 1988,1990,1992,1993,1995,1998,2003,2009,2013,
            Gaussian, Inc.  All Rights Reserved.
  
 This is part of the Gaussian(R) 09 program.  It is based on
 the Gaussian(R) 03 system (copyright 2003, Gaussian, Inc.),
 the Gaussian(R) 98 system (copyright 1998, Gaussian, Inc.),
 the Gaussian(R) 94 system (copyright 1995, Gaussian, Inc.),
 the Gaussian 92(TM) system (copyright 1992, Gaussian, Inc.),
 the Gaussian 90(TM) system (copyright 1990, Gaussian, Inc.),
 the Gaussian 88(TM) system (copyright 1988, Gaussian, Inc.),
 the Gaussian 86(TM) system (copyright 1986, Carnegie Mellon
 University), and the Gaussian 82(TM) system (copyright 1983,
 Carnegie Mellon University). Gaussian is a federally registered
 trademark of Gaussian, Inc.
  
 This software contains proprietary and confidential information,
 including trade secrets, belonging to Gaussian, Inc.
  
 This software is provided under written license and may be
 used, copied, transmitted, or stored only in accord with that
 written license.
  
 The following legend is applicable only to US Government
 contracts under FAR:
  
                    RESTRICTED RIGHTS LEGEND
  
 Use, reproduction and disclosure by the US Government is
 subject to restrictions as set forth in subparagraphs (a)
 and (c) of the Commercial Computer Software - Restricted
 Rights clause in FAR 52.227-19.
  
 Gaussian, Inc.
 340 Quinnipiac St., Bldg. 40, Wallingford CT 06492
  
  
 ---------------------------------------------------------------
 Warning -- This program may not be used in any manner that
 competes with the business of Gaussian, Inc. or will provide
 assistance to any competitor of Gaussian, Inc.  The licensee
 of this program is prohibited from giving any competitor of
 Gaussian, Inc. access to this program.  By using this program,
 the user acknowledges that Gaussian, Inc. is engaged in the
 business of creating and licensing software in the field of
 computational chemistry and represents and warrants to the
 licensee that it is not a competitor of Gaussian, Inc. and that
 it will not use this program in any manner prohibited above.
 ---------------------------------------------------------------
  

 Cite this work as:
 Gaussian 09, Revision D.01,
 M. J. Frisch, G. W. Trucks, H. B. Schlegel, G. E. Scuseria, 
 M. A. Robb, J. R. Cheeseman, G. Scalmani, V. Barone, B. Mennucci, 
 G. A. Petersson, H. Nakatsuji, M. Caricato, X. Li, H. P. Hratchian, 
 A. F. Izmaylov, J. Bloino, G. Zheng, J. L. Sonnenberg, M. Hada, 
 M. Ehara, K. Toyota, R. Fukuda, J. Hasegawa, M. Ishida, T. Nakajima, 
 Y. Honda, O. Kitao, H. Nakai, T. Vreven, J. A. Montgomery, Jr., 
 J. E. Peralta, F. Ogliaro, M. Bearpark, J. J. Heyd, E. Brothers, 
 K. N. Kudin, V. N. Staroverov, T. Keith, R. Kobayashi, J. Normand, 
 K. Raghavachari, A. Rendell, J. C. Burant, S. S. Iyengar, J. Tomasi, 
 M. Cossi, N. Rega, J. M. Millam, M. Klene, J. E. Knox, J. B. Cross, 
 V. Bakken, C. Adamo, J. Jaramillo, R. Gomperts, R. E. Stratmann, 
 O. Yazyev, A. J. Austin, R. Cammi, C. Pomelli, J. W. Ochterski, 
 R. L. Martin, K. Morokuma, V. G. Zakrzewski, G. A. Voth, 
 P. Salvador, J. J. Dannenberg, S. Dapprich, A. D. Daniels, 
 O. Farkas, J. B. Foresman, J. V. Ortiz, J. Cioslowski, 
 and D. J. Fox, Gaussian, Inc., Wallingford CT, 2013.
 
 ******************************************
 Gaussian 09:  ES64L-G09RevD.01 24-Apr-2013
                12-May-2021 
 ******************************************
 %chk=/home/unibas/boittier/RDKit_G2/L.pdb/SCAN_1_2_3_4_S_17_20.0/3_SCAN_1_2_3_4_
 F/L.pdb.chk
 %nproc=8
 Will use up to    8 processors via shared memory.
 %mem=16GB
 -----------------------------
 #p wB97XD/6-31+G Opt=ModRedun
 -----------------------------
 1/14=-1,18=120,19=15,26=3,38=1/1,3;
 2/9=110,12=2,17=6,18=5,40=1/2;
 3/5=1,6=6,7=10,11=2,16=1,25=1,30=1,71=1,74=-58/1,2,3;
 4//1;
 5/5=2,38=5/2;
 6/7=2,8=2,9=2,10=2,28=1/1;
 7//1,2,3,16;
 1/14=-1,18=20,19=15,26=3/3(2);
 2/9=110/2;
 99//99;
 2/9=110/2;
 3/5=1,6=6,7=10,11=2,16=1,25=1,30=1,71=1,74=-58/1,2,3;
 4/5=5,16=3,69=1/1;
 5/5=2,38=5/2;
 7//1,2,3,16;
 1/14=-1,18=20,19=15,26=3/3(-5);
 2/9=110/2;
 6/7=2,8=2,9=2,10=2,19=2,28=1/1;
 99/9=1/99;
 Leave Link    1 at Wed May 12 11:58:23 2021, MaxMem=  2147483648 cpu:         0.4
 (Enter /opt/cluster/programs/g09_d.01/g09/l101.exe)
 -----
 L.pdb
 -----
 Symbolic Z-matrix:
 Charge =  0 Multiplicity = 1
 C                     1.70636   0.17958   0.19541 
 C                     0.59241  -0.42305  -0.25113 
 C                    -0.71217   0.28336  -0.29843 
 O                    -1.71254  -0.10697   0.32459 
 H                    -0.74469   1.24493  -0.84073 
 H                     2.62521  -0.3737    0.36249 
 H                     1.73699   1.2456    0.41108 
 H                     0.56317  -1.50043  -0.40469 
 
 The following ModRedundant input section has been read:
 D       1       2       3       4 F                                           
 
 NAtoms=      8 NQM=        8 NQMF=       0 NMMI=      0 NMMIF=      0
                NMic=       0 NMicF=      0.
                    Isotopes and Nuclear Properties:
 (Nuclear quadrupole moments (NQMom) in fm**2, nuclear magnetic moments (NMagM)
  in nuclear magnetons)

  Atom         1           2           3           4           5           6           7           8
 IAtWgt=          12          12          12          16           1           1           1           1
 AtmWgt=  12.0000000  12.0000000  12.0000000  15.9949146   1.0078250   1.0078250   1.0078250   1.0078250
 NucSpn=           0           0           0           0           1           1           1           1
 AtZEff=   0.0000000   0.0000000   0.0000000   0.0000000   0.0000000   0.0000000   0.0000000   0.0000000
 NQMom=    0.0000000   0.0000000   0.0000000   0.0000000   0.0000000   0.0000000   0.0000000   0.0000000
 NMagM=    0.0000000   0.0000000   0.0000000   0.0000000   2.7928460   2.7928460   2.7928460   2.7928460
 AtZNuc=   6.0000000   6.0000000   6.0000000   8.0000000   1.0000000   1.0000000   1.0000000   1.0000000
 Leave Link  101 at Wed May 12 11:58:23 2021, MaxMem=  2147483648 cpu:         2.5
 (Enter /opt/cluster/programs/g09_d.01/g09/l103.exe)

 GradGradGradGradGradGradGradGradGradGradGradGradGradGradGradGradGradGrad
 Berny optimization.
 Initialization pass.
                           ----------------------------
                           !    Initial Parameters    !
                           ! (Angstroms and Degrees)  !
 --------------------------                            --------------------------
 ! Name  Definition              Value          Derivative Info.                !
 --------------------------------------------------------------------------------
 ! R1    R(1,2)                  1.3429         estimate D2E/DX2                !
 ! R2    R(1,6)                  1.0855         estimate D2E/DX2                !
 ! R3    R(1,7)                  1.0881         estimate D2E/DX2                !
 ! R4    R(2,3)                  1.4843         estimate D2E/DX2                !
 ! R5    R(2,8)                  1.0887         estimate D2E/DX2                !
 ! R6    R(3,4)                  1.2415         estimate D2E/DX2                !
 ! R7    R(3,5)                  1.1044         estimate D2E/DX2                !
 ! A1    A(2,1,6)              121.6422         estimate D2E/DX2                !
 ! A2    A(2,1,7)              121.9324         estimate D2E/DX2                !
 ! A3    A(6,1,7)              116.4253         estimate D2E/DX2                !
 ! A4    A(1,2,3)              121.7417         estimate D2E/DX2                !
 ! A5    A(1,2,8)              120.8825         estimate D2E/DX2                !
 ! A6    A(3,2,8)              116.2874         estimate D2E/DX2                !
 ! A7    A(2,3,4)              122.8613         estimate D2E/DX2                !
 ! A8    A(2,3,5)              117.1218         estimate D2E/DX2                !
 ! A9    A(4,3,5)              119.7634         estimate D2E/DX2                !
 ! D1    D(6,1,2,3)            171.1886         estimate D2E/DX2                !
 ! D2    D(6,1,2,8)              3.5615         estimate D2E/DX2                !
 ! D3    D(7,1,2,3)             -8.6756         estimate D2E/DX2                !
 ! D4    D(7,1,2,8)           -176.3027         estimate D2E/DX2                !
 ! D5    D(1,2,3,4)           -119.9991         Frozen                          !
 ! D6    D(1,2,3,5)             54.194          estimate D2E/DX2                !
 ! D7    D(8,2,3,4)             48.1653         estimate D2E/DX2                !
 ! D8    D(8,2,3,5)           -137.6416         estimate D2E/DX2                !
 --------------------------------------------------------------------------------
 Trust Radius=3.00D-01 FncErr=1.00D-07 GrdErr=1.00D-06
 Number of steps in this run=     34 maximum allowed number of steps=    100.
 GradGradGradGradGradGradGradGradGradGradGradGradGradGradGradGradGradGrad

 Leave Link  103 at Wed May 12 11:58:23 2021, MaxMem=  2147483648 cpu:         0.0
 (Enter /opt/cluster/programs/g09_d.01/g09/l202.exe)
                          Input orientation:                          
 ---------------------------------------------------------------------
 Center     Atomic      Atomic             Coordinates (Angstroms)
 Number     Number       Type             X           Y           Z
 ---------------------------------------------------------------------
      1          6           0        1.706359    0.179576    0.195408
      2          6           0        0.592414   -0.423045   -0.251131
      3          6           0       -0.712166    0.283358   -0.298425
      4          8           0       -1.712539   -0.106967    0.324591
      5          1           0       -0.744693    1.244927   -0.840729
      6          1           0        2.625210   -0.373695    0.362494
      7          1           0        1.736990    1.245602    0.411084
      8          1           0        0.563165   -1.500433   -0.404690
 ---------------------------------------------------------------------
                    Distance matrix (angstroms):
                    1          2          3          4          5
     1  C    0.000000
     2  C    1.342916   0.000000
     3  C    2.470608   1.484308   0.000000
     4  O    3.433316   2.396700   1.241470   0.000000
     5  H    2.866393   2.217569   1.104430   2.030348   0.000000
     6  H    1.085502   2.123966   3.465056   4.346107   3.927331
     7  H    1.088056   2.129076   2.725377   3.706235   2.779530
     8  H    2.118830   1.088669   2.195375   2.766302   3.072072
                    6          7          8
     6  H    0.000000
     7  H    1.847544   0.000000
     8  H    2.471870   3.095813   0.000000
 Stoichiometry    C3H4O
 Framework group  C1[X(C3H4O)]
 Deg. of freedom    18
 Full point group                 C1      NOp   1
 Largest Abelian subgroup         C1      NOp   1
 Largest concise Abelian subgroup C1      NOp   1
                         Standard orientation:                         
 ---------------------------------------------------------------------
 Center     Atomic      Atomic             Coordinates (Angstroms)
 Number     Number       Type             X           Y           Z
 ---------------------------------------------------------------------
      1          6           0       -1.706359    0.179576   -0.195408
      2          6           0       -0.592414   -0.423045    0.251131
      3          6           0        0.712166    0.283358    0.298425
      4          8           0        1.712539   -0.106967   -0.324591
      5          1           0        0.744693    1.244927    0.840729
      6          1           0       -2.625210   -0.373695   -0.362494
      7          1           0       -1.736990    1.245602   -0.411084
      8          1           0       -0.563165   -1.500433    0.404690
 ---------------------------------------------------------------------
 Rotational constants (GHZ):     35.3154895      4.6858058      4.5139633
 Leave Link  202 at Wed May 12 11:58:23 2021, MaxMem=  2147483648 cpu:         0.0
 (Enter /opt/cluster/programs/g09_d.01/g09/l301.exe)
 Standard basis: 6-31+G (6D, 7F)
 Ernie: Thresh=  0.10000D-02 Tol=  0.10000D-05 Strict=F.
 There are    60 symmetry adapted cartesian basis functions of A   symmetry.
 There are    60 symmetry adapted basis functions of A   symmetry.
    60 basis functions,   120 primitive gaussians,    60 cartesian basis functions
    15 alpha electrons       15 beta electrons
       nuclear repulsion energy       102.2741539472 Hartrees.
 IExCor= 4639 DFT=T Ex+Corr=wB97XD ExCW=0 ScaHFX=  1.000000
 ScaDFX=  1.000000  1.000000  1.000000  1.000000 ScalE2=  1.000000  1.000000
 IRadAn=      0 IRanWt=     -1 IRanGd=            0 ICorTp=0 IEmpDi=121
  HFx wShort=  0.000000 wLong=  0.200000 cFull=  0.222036 cShort=  0.000000 cLong=  0.777964
  DFx wShort=  0.000000 wLong=  0.200000 cFull=  0.000000 cShort=  0.000000 cLong=  1.000000
 NAtoms=    8 NActive=    8 NUniq=    8 SFac= 1.00D+00 NAtFMM=   60 NAOKFM=F Big=F
 Integral buffers will be    131072 words long.
 Raffenetti 2 integral format.
 Two-electron integral symmetry is turned on.
 R6Disp:  Grimme-D2 Dispersion energy=       -0.0018118517 Hartrees.
 Nuclear repulsion after empirical dispersion term =      102.2723420954 Hartrees.
 Leave Link  301 at Wed May 12 11:58:23 2021, MaxMem=  2147483648 cpu:         0.3
 (Enter /opt/cluster/programs/g09_d.01/g09/l302.exe)
 NPDir=0 NMtPBC=     1 NCelOv=     1 NCel=       1 NClECP=     1 NCelD=      1
         NCelK=      1 NCelE2=     1 NClLst=     1 CellRange=     0.0.
 One-electron integrals computed using PRISM.
 NBasis=    60 RedAO= T EigKep=  1.45D-04  NBF=    60
 NBsUse=    60 1.00D-06 EigRej= -1.00D+00 NBFU=    60
 Precomputing XC quadrature grid using
 IXCGrd= 4 IRadAn=           0 IRanWt=          -1 IRanGd=           0 AccXCQ= 0.00D+00.
 Generated NRdTot=       0 NPtTot=           0 NUsed=           0 NTot=          32
 NSgBfM=    60    60    60    60    60 MxSgAt=     8 MxSgA2=     8.
 Leave Link  302 at Wed May 12 11:58:23 2021, MaxMem=  2147483648 cpu:         0.6
 (Enter /opt/cluster/programs/g09_d.01/g09/l303.exe)
 DipDrv:  MaxL=1.
 Leave Link  303 at Wed May 12 11:58:24 2021, MaxMem=  2147483648 cpu:         0.1
 (Enter /opt/cluster/programs/g09_d.01/g09/l401.exe)
 ExpMin= 4.38D-02 ExpMax= 5.48D+03 ExpMxC= 8.25D+02 IAcc=2 IRadAn=         4 AccDes= 0.00D+00
 Harris functional with IExCor= 4639 and IRadAn=       4 diagonalized for initial guess.
 HarFok:  IExCor= 4639 AccDes= 0.00D+00 IRadAn=         4 IDoV= 1 UseB2=F ITyADJ=14
 ICtDFT=  3500011 ScaDFX=  1.000000  1.000000  1.000000  1.000000
 FoFCou: FMM=F IPFlag=           0 FMFlag=      100000 FMFlg1=           0
         NFxFlg=           0 DoJE=T BraDBF=F KetDBF=T FulRan=T
         wScrn=  0.000000 ICntrl=     500 IOpCl=  0 I1Cent=   200000004 NGrid=           0
         NMat0=    1 NMatS0=      1 NMatT0=    0 NMatD0=    1 NMtDS0=    0 NMtDT0=    0
 Petite list used in FoFCou.
 Harris En= -183.742838573158    
 JPrj=0 DoOrth=F DoCkMO=F.
 Leave Link  401 at Wed May 12 11:58:24 2021, MaxMem=  2147483648 cpu:         1.0
 (Enter /opt/cluster/programs/g09_d.01/g09/l502.exe)
 Closed shell SCF:
 Using DIIS extrapolation, IDIIS=  1040.
 Integral symmetry usage will be decided dynamically.
 Keep R1 ints in memory in canonical form, NReq=4262490.
 IVT=       30290 IEndB=       30290 NGot=  2147483648 MDV=  2144102629
 LenX=  2144102629 LenY=  2144098588
 Requested convergence on RMS density matrix=1.00D-08 within 128 cycles.
 Requested convergence on MAX density matrix=1.00D-06.
 Requested convergence on             energy=1.00D-06.
 No special actions if energy rises.
 FoFCou: FMM=F IPFlag=           0 FMFlag=           0 FMFlg1=           0
         NFxFlg=           0 DoJE=F BraDBF=F KetDBF=F FulRan=T
         wScrn=  0.000000 ICntrl=     600 IOpCl=  0 I1Cent=           0 NGrid=           0
         NMat0=    1 NMatS0=   1830 NMatT0=    0 NMatD0=    1 NMtDS0=    0 NMtDT0=    0
 Symmetry not used in FoFCou.

 Cycle   1  Pass 1  IDiag  1:
 E= -191.745440453660    
 DIIS: error= 2.88D-02 at cycle   1 NSaved=   1.
 NSaved= 1 IEnMin= 1 EnMin= -191.745440453660     IErMin= 1 ErrMin= 2.88D-02
 ErrMax= 2.88D-02  0.00D+00 EMaxC= 1.00D-01 BMatC= 7.40D-02 BMatP= 7.40D-02
 IDIUse=3 WtCom= 7.12D-01 WtEn= 2.88D-01
 Coeff-Com:  0.100D+01
 Coeff-En:   0.100D+01
 Coeff:      0.100D+01
 Gap=     0.411 Goal=   None    Shift=    0.000
 GapD=    0.411 DampG=2.000 DampE=0.500 DampFc=1.0000 IDamp=-1.
 RMSDP=1.03D-02 MaxDP=1.04D-01              OVMax= 8.28D-02

 Cycle   2  Pass 1  IDiag  1:
 E= -191.755503417392     Delta-E=       -0.010062963732 Rises=F Damp=F
 DIIS: error= 2.27D-02 at cycle   2 NSaved=   2.
 NSaved= 2 IEnMin= 2 EnMin= -191.755503417392     IErMin= 2 ErrMin= 2.27D-02
 ErrMax= 2.27D-02  0.00D+00 EMaxC= 1.00D-01 BMatC= 3.70D-02 BMatP= 7.40D-02
 IDIUse=3 WtCom= 7.73D-01 WtEn= 2.27D-01
 Coeff-Com:  0.395D+00 0.605D+00
 Coeff-En:   0.411D+00 0.589D+00
 Coeff:      0.399D+00 0.601D+00
 Gap=     0.398 Goal=   None    Shift=    0.000
 RMSDP=4.00D-03 MaxDP=5.56D-02 DE=-1.01D-02 OVMax= 7.70D-02

 Cycle   3  Pass 1  IDiag  1:
 E= -191.779724215039     Delta-E=       -0.024220797646 Rises=F Damp=F
 DIIS: error= 1.06D-02 at cycle   3 NSaved=   3.
 NSaved= 3 IEnMin= 3 EnMin= -191.779724215039     IErMin= 3 ErrMin= 1.06D-02
 ErrMax= 1.06D-02  0.00D+00 EMaxC= 1.00D-01 BMatC= 8.15D-03 BMatP= 3.70D-02
 IDIUse=3 WtCom= 8.94D-01 WtEn= 1.06D-01
 Coeff-Com:  0.644D-01 0.325D+00 0.611D+00
 Coeff-En:   0.000D+00 0.145D+00 0.855D+00
 Coeff:      0.576D-01 0.306D+00 0.637D+00
 Gap=     0.356 Goal=   None    Shift=    0.000
 RMSDP=1.73D-03 MaxDP=2.15D-02 DE=-2.42D-02 OVMax= 3.09D-02

 Cycle   4  Pass 1  IDiag  1:
 E= -191.785394127392     Delta-E=       -0.005669912354 Rises=F Damp=F
 DIIS: error= 2.78D-03 at cycle   4 NSaved=   4.
 NSaved= 4 IEnMin= 4 EnMin= -191.785394127392     IErMin= 4 ErrMin= 2.78D-03
 ErrMax= 2.78D-03  0.00D+00 EMaxC= 1.00D-01 BMatC= 8.38D-04 BMatP= 8.15D-03
 IDIUse=3 WtCom= 9.72D-01 WtEn= 2.78D-02
 Coeff-Com: -0.541D-02 0.847D-01 0.321D+00 0.600D+00
 Coeff-En:   0.000D+00 0.000D+00 0.451D-01 0.955D+00
 Coeff:     -0.526D-02 0.823D-01 0.313D+00 0.610D+00
 Gap=     0.353 Goal=   None    Shift=    0.000
 RMSDP=6.33D-04 MaxDP=5.65D-03 DE=-5.67D-03 OVMax= 8.47D-03

 Cycle   5  Pass 1  IDiag  1:
 E= -191.786101170444     Delta-E=       -0.000707043052 Rises=F Damp=F
 DIIS: error= 7.35D-04 at cycle   5 NSaved=   5.
 NSaved= 5 IEnMin= 5 EnMin= -191.786101170444     IErMin= 5 ErrMin= 7.35D-04
 ErrMax= 7.35D-04  0.00D+00 EMaxC= 1.00D-01 BMatC= 2.12D-05 BMatP= 8.38D-04
 IDIUse=3 WtCom= 9.93D-01 WtEn= 7.35D-03
 Coeff-Com: -0.467D-02 0.177D-01 0.977D-01 0.241D+00 0.649D+00
 Coeff-En:   0.000D+00 0.000D+00 0.000D+00 0.000D+00 0.100D+01
 Coeff:     -0.464D-02 0.176D-01 0.969D-01 0.239D+00 0.651D+00
 Gap=     0.353 Goal=   None    Shift=    0.000
 RMSDP=1.46D-04 MaxDP=1.68D-03 DE=-7.07D-04 OVMax= 2.65D-03

 Cycle   6  Pass 1  IDiag  1:
 E= -191.786125696800     Delta-E=       -0.000024526355 Rises=F Damp=F
 DIIS: error= 2.02D-04 at cycle   6 NSaved=   6.
 NSaved= 6 IEnMin= 6 EnMin= -191.786125696800     IErMin= 6 ErrMin= 2.02D-04
 ErrMax= 2.02D-04  0.00D+00 EMaxC= 1.00D-01 BMatC= 2.08D-06 BMatP= 2.12D-05
 IDIUse=3 WtCom= 9.98D-01 WtEn= 2.02D-03
 Coeff-Com: -0.131D-04-0.128D-01-0.356D-01-0.487D-01 0.186D+00 0.911D+00
 Coeff-En:   0.000D+00 0.000D+00 0.000D+00 0.000D+00 0.000D+00 0.100D+01
 Coeff:     -0.131D-04-0.127D-01-0.355D-01-0.486D-01 0.186D+00 0.911D+00
 Gap=     0.353 Goal=   None    Shift=    0.000
 RMSDP=1.18D-04 MaxDP=1.42D-03 DE=-2.45D-05 OVMax= 1.24D-03

 Cycle   7  Pass 1  IDiag  1:
 E= -191.786129940309     Delta-E=       -0.000004243510 Rises=F Damp=F
 DIIS: error= 6.11D-05 at cycle   7 NSaved=   7.
 NSaved= 7 IEnMin= 7 EnMin= -191.786129940309     IErMin= 7 ErrMin= 6.11D-05
 ErrMax= 6.11D-05  0.00D+00 EMaxC= 1.00D-01 BMatC= 1.37D-07 BMatP= 2.08D-06
 IDIUse=1 WtCom= 1.00D+00 WtEn= 0.00D+00
 Coeff-Com:  0.381D-03-0.462D-02-0.174D-01-0.291D-01 0.283D-02 0.225D+00
 Coeff-Com:  0.823D+00
 Coeff:      0.381D-03-0.462D-02-0.174D-01-0.291D-01 0.283D-02 0.225D+00
 Coeff:      0.823D+00
 Gap=     0.353 Goal=   None    Shift=    0.000
 RMSDP=2.08D-05 MaxDP=1.85D-04 DE=-4.24D-06 OVMax= 4.10D-04

 Cycle   8  Pass 1  IDiag  1:
 E= -191.786130344678     Delta-E=       -0.000000404369 Rises=F Damp=F
 DIIS: error= 3.31D-05 at cycle   8 NSaved=   8.
 NSaved= 8 IEnMin= 8 EnMin= -191.786130344678     IErMin= 8 ErrMin= 3.31D-05
 ErrMax= 3.31D-05  0.00D+00 EMaxC= 1.00D-01 BMatC= 1.61D-08 BMatP= 1.37D-07
 IDIUse=1 WtCom= 1.00D+00 WtEn= 0.00D+00
 Coeff-Com: -0.498D-04 0.228D-02 0.594D-02 0.939D-02-0.303D-01-0.160D+00
 Coeff-Com: -0.171D-01 0.119D+01
 Coeff:     -0.498D-04 0.228D-02 0.594D-02 0.939D-02-0.303D-01-0.160D+00
 Coeff:     -0.171D-01 0.119D+01
 Gap=     0.353 Goal=   None    Shift=    0.000
 RMSDP=1.17D-05 MaxDP=7.70D-05 DE=-4.04D-07 OVMax= 3.20D-04

 Cycle   9  Pass 1  IDiag  1:
 E= -191.786130443249     Delta-E=       -0.000000098570 Rises=F Damp=F
 DIIS: error= 1.01D-05 at cycle   9 NSaved=   9.
 NSaved= 9 IEnMin= 9 EnMin= -191.786130443249     IErMin= 9 ErrMin= 1.01D-05
 ErrMax= 1.01D-05  0.00D+00 EMaxC= 1.00D-01 BMatC= 1.13D-09 BMatP= 1.61D-08
 IDIUse=1 WtCom= 1.00D+00 WtEn= 0.00D+00
 Coeff-Com: -0.198D-04-0.803D-04 0.276D-03 0.646D-03 0.820D-02 0.175D-01
 Coeff-Com: -0.727D-01-0.261D+00 0.131D+01
 Coeff:     -0.198D-04-0.803D-04 0.276D-03 0.646D-03 0.820D-02 0.175D-01
 Coeff:     -0.727D-01-0.261D+00 0.131D+01
 Gap=     0.353 Goal=   None    Shift=    0.000
 RMSDP=4.43D-06 MaxDP=4.66D-05 DE=-9.86D-08 OVMax= 1.24D-04

 Cycle  10  Pass 1  IDiag  1:
 E= -191.786130454058     Delta-E=       -0.000000010810 Rises=F Damp=F
 DIIS: error= 3.26D-06 at cycle  10 NSaved=  10.
 NSaved=10 IEnMin=10 EnMin= -191.786130454058     IErMin=10 ErrMin= 3.26D-06
 ErrMax= 3.26D-06  0.00D+00 EMaxC= 1.00D-01 BMatC= 1.31D-10 BMatP= 1.13D-09
 IDIUse=1 WtCom= 1.00D+00 WtEn= 0.00D+00
 Coeff-Com:  0.107D-04-0.173D-03-0.638D-03-0.106D-02-0.407D-03 0.727D-02
 Coeff-Com:  0.303D-01-0.182D-02-0.541D+00 0.151D+01
 Coeff:      0.107D-04-0.173D-03-0.638D-03-0.106D-02-0.407D-03 0.727D-02
 Coeff:      0.303D-01-0.182D-02-0.541D+00 0.151D+01
 Gap=     0.353 Goal=   None    Shift=    0.000
 RMSDP=1.34D-06 MaxDP=1.28D-05 DE=-1.08D-08 OVMax= 5.46D-05

 Cycle  11  Pass 1  IDiag  1:
 E= -191.786130455529     Delta-E=       -0.000000001470 Rises=F Damp=F
 DIIS: error= 7.18D-07 at cycle  11 NSaved=  11.
 NSaved=11 IEnMin=11 EnMin= -191.786130455529     IErMin=11 ErrMin= 7.18D-07
 ErrMax= 7.18D-07  0.00D+00 EMaxC= 1.00D-01 BMatC= 1.31D-11 BMatP= 1.31D-10
 IDIUse=1 WtCom= 1.00D+00 WtEn= 0.00D+00
 Coeff-Com: -0.149D-05 0.509D-04 0.172D-03 0.210D-03-0.732D-03-0.384D-02
 Coeff-Com: -0.254D-02 0.234D-01 0.332D-01-0.418D+00 0.137D+01
 Coeff:     -0.149D-05 0.509D-04 0.172D-03 0.210D-03-0.732D-03-0.384D-02
 Coeff:     -0.254D-02 0.234D-01 0.332D-01-0.418D+00 0.137D+01
 Gap=     0.353 Goal=   None    Shift=    0.000
 RMSDP=5.32D-07 MaxDP=5.13D-06 DE=-1.47D-09 OVMax= 1.43D-05

 Cycle  12  Pass 1  IDiag  1:
 E= -191.786130455618     Delta-E=       -0.000000000090 Rises=F Damp=F
 DIIS: error= 9.47D-08 at cycle  12 NSaved=  12.
 NSaved=12 IEnMin=12 EnMin= -191.786130455618     IErMin=12 ErrMin= 9.47D-08
 ErrMax= 9.47D-08  0.00D+00 EMaxC= 1.00D-01 BMatC= 3.28D-13 BMatP= 1.31D-11
 IDIUse=1 WtCom= 1.00D+00 WtEn= 0.00D+00
 Coeff-Com: -0.176D-06-0.111D-05 0.223D-05 0.187D-04 0.144D-03 0.471D-03
 Coeff-Com: -0.774D-03-0.415D-02 0.184D-01 0.109D-01-0.273D+00 0.125D+01
 Coeff:     -0.176D-06-0.111D-05 0.223D-05 0.187D-04 0.144D-03 0.471D-03
 Coeff:     -0.774D-03-0.415D-02 0.184D-01 0.109D-01-0.273D+00 0.125D+01
 Gap=     0.353 Goal=   None    Shift=    0.000
 RMSDP=7.55D-08 MaxDP=6.72D-07 DE=-8.95D-11 OVMax= 1.42D-06

 Cycle  13  Pass 1  IDiag  1:
 E= -191.786130455621     Delta-E=       -0.000000000002 Rises=F Damp=F
 DIIS: error= 1.78D-08 at cycle  13 NSaved=  13.
 NSaved=13 IEnMin=13 EnMin= -191.786130455621     IErMin=13 ErrMin= 1.78D-08
 ErrMax= 1.78D-08  0.00D+00 EMaxC= 1.00D-01 BMatC= 1.47D-14 BMatP= 3.28D-13
 IDIUse=1 WtCom= 1.00D+00 WtEn= 0.00D+00
 Coeff-Com:  0.866D-07-0.170D-05-0.693D-05-0.949D-05-0.412D-05 0.928D-04
 Coeff-Com:  0.177D-03-0.281D-03-0.388D-02 0.150D-01-0.140D-01-0.184D+00
 Coeff-Com:  0.119D+01
 Coeff:      0.866D-07-0.170D-05-0.693D-05-0.949D-05-0.412D-05 0.928D-04
 Coeff:      0.177D-03-0.281D-03-0.388D-02 0.150D-01-0.140D-01-0.184D+00
 Coeff:      0.119D+01
 Gap=     0.353 Goal=   None    Shift=    0.000
 RMSDP=1.06D-08 MaxDP=1.05D-07 DE=-2.39D-12 OVMax= 1.19D-07

 Cycle  14  Pass 1  IDiag  1:
 E= -191.786130455621     Delta-E=        0.000000000000 Rises=F Damp=F
 DIIS: error= 2.80D-09 at cycle  14 NSaved=  14.
 NSaved=14 IEnMin=14 EnMin= -191.786130455621     IErMin=14 ErrMin= 2.80D-09
 ErrMax= 2.80D-09  0.00D+00 EMaxC= 1.00D-01 BMatC= 3.24D-16 BMatP= 1.47D-14
 IDIUse=1 WtCom= 1.00D+00 WtEn= 0.00D+00
 Coeff-Com: -0.502D-08 0.172D-06 0.480D-06 0.295D-06-0.525D-05-0.245D-04
 Coeff-Com:  0.394D-05 0.162D-03-0.237D-03-0.190D-02 0.109D-01-0.224D-01
 Coeff-Com: -0.126D+00 0.114D+01
 Coeff:     -0.502D-08 0.172D-06 0.480D-06 0.295D-06-0.525D-05-0.245D-04
 Coeff:      0.394D-05 0.162D-03-0.237D-03-0.190D-02 0.109D-01-0.224D-01
 Coeff:     -0.126D+00 0.114D+01
 Gap=     0.353 Goal=   None    Shift=    0.000
 RMSDP=1.84D-09 MaxDP=1.86D-08 DE=-3.41D-13 OVMax= 1.74D-08

 SCF Done:  E(RwB97XD) =  -191.786130456     A.U. after   14 cycles
            NFock= 14  Conv=0.18D-08     -V/T= 2.0061
 KE= 1.906297044222D+02 PE=-6.518978811762D+02 EE= 1.672097042029D+02
 Leave Link  502 at Wed May 12 11:58:25 2021, MaxMem=  2147483648 cpu:         9.1
 (Enter /opt/cluster/programs/g09_d.01/g09/l601.exe)
 Copying SCF densities to generalized density rwf, IOpCl= 0 IROHF=0.

 **********************************************************************

            Population analysis using the SCF density.

 **********************************************************************

 Orbital symmetries:
       Occupied  (A) (A) (A) (A) (A) (A) (A) (A) (A) (A) (A) (A)
                 (A) (A) (A)
       Virtual   (A) (A) (A) (A) (A) (A) (A) (A) (A) (A) (A) (A)
                 (A) (A) (A) (A) (A) (A) (A) (A) (A) (A) (A) (A)
                 (A) (A) (A) (A) (A) (A) (A) (A) (A) (A) (A) (A)
                 (A) (A) (A) (A) (A) (A) (A) (A) (A)
 The electronic state is 1-A.
 Alpha  occ. eigenvalues --  -19.29425 -10.41194 -10.33398 -10.33281  -1.17331
 Alpha  occ. eigenvalues --   -0.91428  -0.76022  -0.67763  -0.58864  -0.57176
 Alpha  occ. eigenvalues --   -0.53037  -0.49209  -0.47313  -0.37906  -0.35520
 Alpha virt. eigenvalues --   -0.00225   0.06313   0.07582   0.08840   0.08958
 Alpha virt. eigenvalues --    0.11166   0.12543   0.13047   0.14686   0.16318
 Alpha virt. eigenvalues --    0.17135   0.17807   0.19820   0.22687   0.27215
 Alpha virt. eigenvalues --    0.28130   0.28865   0.31065   0.32730   0.34481
 Alpha virt. eigenvalues --    0.36770   0.39904   0.42873   0.45683   0.50009
 Alpha virt. eigenvalues --    0.69672   0.71966   0.75056   0.79410   0.80403
 Alpha virt. eigenvalues --    0.84900   0.88248   0.92498   1.00704   1.05498
 Alpha virt. eigenvalues --    1.09643   1.12977   1.14556   1.23775   1.26786
 Alpha virt. eigenvalues --    1.33557   1.34419   1.38479   1.42908   1.88263
          Condensed to atoms (all electrons):
               1          2          3          4          5          6
     1  C    5.227505   0.374446   0.025322  -0.010651   0.029595   0.353603
     2  C    0.374446   5.420240   0.251448  -0.117229  -0.119715  -0.004952
     3  C    0.025322   0.251448   5.054437   0.281630   0.358006   0.007439
     4  O   -0.010651  -0.117229   0.281630   8.301243  -0.066386  -0.000479
     5  H    0.029595  -0.119715   0.358006  -0.066386   0.611150  -0.000072
     6  H    0.353603  -0.004952   0.007439  -0.000479  -0.000072   0.461338
     7  H    0.389608  -0.058960   0.010608   0.000455   0.000739  -0.022526
     8  H   -0.008951   0.352193  -0.017083  -0.002902   0.001487  -0.003918
               7          8
     1  C    0.389608  -0.008951
     2  C   -0.058960   0.352193
     3  C    0.010608  -0.017083
     4  O    0.000455  -0.002902
     5  H    0.000739   0.001487
     6  H   -0.022526  -0.003918
     7  H    0.473444   0.002500
     8  H    0.002500   0.440133
 Mulliken charges:
               1
     1  C   -0.380477
     2  C   -0.097473
     3  C    0.028192
     4  O   -0.385682
     5  H    0.185197
     6  H    0.209568
     7  H    0.204132
     8  H    0.236543
 Sum of Mulliken charges =   0.00000
 Mulliken charges with hydrogens summed into heavy atoms:
               1
     1  C    0.033223
     2  C    0.139070
     3  C    0.213389
     4  O   -0.385682
 Electronic spatial extent (au):  <R**2>=            296.1210
 Charge=              0.0000 electrons
 Dipole moment (field-independent basis, Debye):
    X=             -3.0909    Y=              0.7144    Z=              1.1213  Tot=              3.3648
 Quadrupole moment (field-independent basis, Debye-Ang):
   XX=            -27.7012   YY=            -21.7646   ZZ=            -25.3299
   XY=              1.1073   XZ=              3.1286   YZ=             -0.5587
 Traceless Quadrupole moment (field-independent basis, Debye-Ang):
   XX=             -2.7693   YY=              3.1673   ZZ=             -0.3980
   XY=              1.1073   XZ=              3.1286   YZ=             -0.5587
 Octapole moment (field-independent basis, Debye-Ang**2):
  XXX=            -13.7003  YYY=             -0.1950  ZZZ=             -0.7922  XYY=              0.0611
  XXY=              0.3959  XXZ=              0.1603  XZZ=              3.6285  YZZ=              0.6810
  YYZ=              0.6839  XYZ=              0.5096
 Hexadecapole moment (field-independent basis, Debye-Ang**3):
 XXXX=           -294.7677 YYYY=            -51.0093 ZZZZ=            -42.4829 XXXY=              3.5344
 XXXZ=             10.8979 YYYX=              0.3044 YYYZ=             -1.3738 ZZZX=             -0.1153
 ZZZY=             -0.0062 XXYY=            -55.2496 XXZZ=            -58.0613 YYZZ=            -16.1400
 XXYZ=             -0.7631 YYXZ=              1.2441 ZZXY=              0.2845
 N-N= 1.022723420954D+02 E-N=-6.518978812026D+02  KE= 1.906297044222D+02
 No NMR shielding tensors so no spin-rotation constants.
 Leave Link  601 at Wed May 12 11:58:25 2021, MaxMem=  2147483648 cpu:         0.5
 (Enter /opt/cluster/programs/g09_d.01/g09/l701.exe)
 Compute integral first derivatives.
 ... and contract with generalized density number  0.
 R6Disp: Adding Grimme-D2 dispersion energy 1st derivatives to the gradient.
 Leave Link  701 at Wed May 12 11:58:25 2021, MaxMem=  2147483648 cpu:         0.5
 (Enter /opt/cluster/programs/g09_d.01/g09/l702.exe)
 L702 exits ... SP integral derivatives will be done elsewhere.
 Leave Link  702 at Wed May 12 11:58:25 2021, MaxMem=  2147483648 cpu:         0.1
 (Enter /opt/cluster/programs/g09_d.01/g09/l703.exe)
 Compute integral first derivatives, UseDBF=F ICtDFT=           0.
 Integral derivatives from FoFJK, PRISM(SPDF).
 Calling FoFJK, ICntrl=      2127 FMM=F ISym2X=0 I1Cent= 0 IOpClX= 0 NMat=1 NMatS=1 NMatT=0.
 FoFJK:  IHMeth= 1 ICntrl=    2127 DoSepK=T KAlg= 0 I1Cent=   0 FoldK=F
 IRaf=         1 NMat=   1 IRICut=       1 DoRegI=T DoRafI=F ISym2E= 0.
 FoFCou: FMM=F IPFlag=           0 FMFlag=      100000 FMFlg1=         800
         NFxFlg=           0 DoJE=F BraDBF=F KetDBF=F FulRan=T
         wScrn=  0.000000 ICntrl=    2527 IOpCl=  0 I1Cent=           0 NGrid=           0
         NMat0=    1 NMatS0=      1 NMatT0=    0 NMatD0=    1 NMtDS0=    0 NMtDT0=    0
 Symmetry not used in FoFCou.
 Leave Link  703 at Wed May 12 11:58:25 2021, MaxMem=  2147483648 cpu:         2.3
 (Enter /opt/cluster/programs/g09_d.01/g09/l716.exe)
 Dipole        =-1.21606326D+00 2.81061092D-01 4.41169797D-01
 ***** Axes restored to original set *****
 -------------------------------------------------------------------
 Center     Atomic                   Forces (Hartrees/Bohr)
 Number     Number              X              Y              Z
 -------------------------------------------------------------------
      1        6          -0.002910094    0.000335822   -0.007872106
      2        6           0.000379516   -0.004108221    0.009586278
      3        6          -0.002401341    0.006036850    0.009144617
      4        8           0.006105605   -0.001248232   -0.010567790
      5        1          -0.000272486   -0.001465291    0.000634764
      6        1          -0.000721450    0.000029156   -0.000499825
      7        1          -0.000434734   -0.000342033   -0.000074445
      8        1           0.000254984    0.000761950   -0.000351493
 -------------------------------------------------------------------
 Cartesian Forces:  Max     0.010567790 RMS     0.004379376
 Leave Link  716 at Wed May 12 11:58:25 2021, MaxMem=  2147483648 cpu:         0.1
 (Enter /opt/cluster/programs/g09_d.01/g09/l103.exe)

 GradGradGradGradGradGradGradGradGradGradGradGradGradGradGradGradGradGrad
 Berny optimization.
 FormGI is forming the generalized inverse of G from B-inverse, IUseBI=4.
 Internal  Forces:  Max     0.009830370 RMS     0.003419898
 Search for a local minimum.
 Step number   1 out of a maximum of   34
 All quantities printed in internal units (Hartrees-Bohrs-Radians)
 RMS Force = .25098D-02 SwitMx=.10000D-02 MixMth= 1
 Mixed Optimization -- RFO/linear search
 Second derivative matrix not updated -- first step.
 ITU=  0
     Eigenvalues ---    0.00995   0.01836   0.02844   0.02844   0.15774
     Eigenvalues ---    0.16000   0.16000   0.16000   0.22013   0.22052
     Eigenvalues ---    0.33197   0.34081   0.34967   0.35038   0.35338
     Eigenvalues ---    0.56557   0.864701000.000001000.000001000.00000
     Eigenvalues --- 1000.000001000.000001000.000001000.00000
 RFO step:  Lambda=-2.48943480D-04 EMin= 9.95245863D-03
 Linear search not attempted -- first point.
 Iteration  1 RMS(Cart)=  0.01112844 RMS(Int)=  0.00007907
 Iteration  2 RMS(Cart)=  0.00007715 RMS(Int)=  0.00002173
 Iteration  3 RMS(Cart)=  0.00000000 RMS(Int)=  0.00002173
 Iteration  1 RMS(Cart)=  0.00000115 RMS(Int)=  0.00000083
 Iteration  2 RMS(Cart)=  0.00000044 RMS(Int)=  0.00000092
 ITry= 1 IFail=0 DXMaxC= 2.18D-02 DCOld= 1.00D+10 DXMaxT= 3.00D-01 DXLimC= 3.00D+00 Rises=F
 Variable       Old X    -DE/DX   Delta X   Delta X   Delta X     New X
                                 (Linear)    (Quad)   (Total)
    R1        2.53774  -0.00617   0.00000  -0.01091  -0.01091   2.52684
    R2        2.05130  -0.00070   0.00000  -0.00199  -0.00199   2.04931
    R3        2.05613  -0.00036   0.00000  -0.00103  -0.00103   2.05510
    R4        2.80494  -0.00141   0.00000  -0.00413  -0.00413   2.80080
    R5        2.05729  -0.00071   0.00000  -0.00203  -0.00203   2.05525
    R6        2.34604  -0.00983   0.00000  -0.01137  -0.01137   2.33467
    R7        2.08707  -0.00158   0.00000  -0.00476  -0.00476   2.08232
    A1        2.12306  -0.00033   0.00000  -0.00209  -0.00209   2.12097
    A2        2.12812  -0.00025   0.00000  -0.00158  -0.00158   2.12654
    A3        2.03200   0.00059   0.00000   0.00367   0.00367   2.03567
    A4        2.12479  -0.00106   0.00000  -0.00488  -0.00494   2.11985
    A5        2.10980   0.00114   0.00000   0.00333   0.00327   2.11307
    A6        2.02960   0.00063   0.00000   0.00524   0.00518   2.03478
    A7        2.14433  -0.00052   0.00000  -0.00308  -0.00310   2.14123
    A8        2.04416   0.00087   0.00000   0.00382   0.00380   2.04796
    A9        2.09027   0.00030   0.00000   0.00026   0.00024   2.09050
    D1        2.98781   0.00225   0.00000   0.01905   0.01904   3.00685
    D2        0.06216  -0.00177   0.00000  -0.00232  -0.00232   0.05984
    D3       -0.15142   0.00212   0.00000   0.01428   0.01428  -0.13714
    D4       -3.07706  -0.00191   0.00000  -0.00709  -0.00709  -3.08415
    D5       -2.09438  -0.00918   0.00000   0.00000   0.00000  -2.09438
    D6        0.94586  -0.00176   0.00000   0.01134   0.01134   0.95720
    D7        0.84064  -0.00525   0.00000   0.02029   0.02030   0.86094
    D8       -2.40230   0.00217   0.00000   0.03164   0.03164  -2.37066
         Item               Value     Threshold  Converged?
 Maximum Force            0.009830     0.000450     NO 
 RMS     Force            0.002510     0.000300     NO 
 Maximum Displacement     0.021831     0.001800     NO 
 RMS     Displacement     0.011147     0.001200     NO 
 Predicted change in Energy=-1.247094D-04
 Lowest energy point so far.  Saving SCF results.
 GradGradGradGradGradGradGradGradGradGradGradGradGradGradGradGradGradGrad

 Leave Link  103 at Wed May 12 11:58:25 2021, MaxMem=  2147483648 cpu:         0.1
 (Enter /opt/cluster/programs/g09_d.01/g09/l202.exe)
                          Input orientation:                          
 ---------------------------------------------------------------------
 Center     Atomic      Atomic             Coordinates (Angstroms)
 Number     Number       Type             X           Y           Z
 ---------------------------------------------------------------------
      1          6           0        1.700639    0.178110    0.198185
      2          6           0        0.592245   -0.425055   -0.244093
      3          6           0       -0.707305    0.285750   -0.295184
      4          8           0       -1.702473   -0.097788    0.328427
      5          1           0       -0.742271    1.237156   -0.849997
      6          1           0        2.622307   -0.372024    0.352821
      7          1           0        1.725438    1.242729    0.418752
      8          1           0        0.566160   -1.499555   -0.410308
 ---------------------------------------------------------------------
                    Distance matrix (angstroms):
                    1          2          3          4          5
     1  C    0.000000
     2  C    1.337144   0.000000
     3  C    2.460323   1.482121   0.000000
     4  O    3.416760   2.387595   1.235456   0.000000
     5  H    2.861481   2.216077   1.101914   2.023054   0.000000
     6  H    1.084450   2.116666   3.455270   4.333535   3.918752
     7  H    1.087510   2.122497   2.709935   3.681808   2.774769
     8  H    2.114679   1.087593   2.195969   2.767196   3.065111
                    6          7          8
     6  H    0.000000
     7  H    1.848282   0.000000
     8  H    2.466057   3.090532   0.000000
 Stoichiometry    C3H4O
 Framework group  C1[X(C3H4O)]
 Deg. of freedom    18
 Full point group                 C1      NOp   1
 RotChk:  IX=0 Diff= 9.58D-03
 Largest Abelian subgroup         C1      NOp   1
 Largest concise Abelian subgroup C1      NOp   1
                         Standard orientation:                         
 ---------------------------------------------------------------------
 Center     Atomic      Atomic             Coordinates (Angstroms)
 Number     Number       Type             X           Y           Z
 ---------------------------------------------------------------------
      1          6           0       -1.697760    0.183249   -0.194679
      2          6           0       -0.591656   -0.426358    0.244489
      3          6           0        0.710367    0.279563    0.300135
      4          8           0        1.704408   -0.103866   -0.325338
      5          1           0        0.748476    1.227619    0.860449
      6          1           0       -2.621301   -0.362735   -0.352809
      7          1           0       -1.718734    1.249205   -0.409099
      8          1           0       -0.569411   -1.501886    0.404501
 ---------------------------------------------------------------------
 Rotational constants (GHZ):     35.3691564      4.7254267      4.5517838
 Leave Link  202 at Wed May 12 11:58:25 2021, MaxMem=  2147483648 cpu:         0.0
 (Enter /opt/cluster/programs/g09_d.01/g09/l301.exe)
 Standard basis: 6-31+G (6D, 7F)
 Ernie: Thresh=  0.10000D-02 Tol=  0.10000D-05 Strict=F.
 There are    60 symmetry adapted cartesian basis functions of A   symmetry.
 There are    60 symmetry adapted basis functions of A   symmetry.
    60 basis functions,   120 primitive gaussians,    60 cartesian basis functions
    15 alpha electrons       15 beta electrons
       nuclear repulsion energy       102.6197189018 Hartrees.
 IExCor= 4639 DFT=T Ex+Corr=wB97XD ExCW=0 ScaHFX=  1.000000
 ScaDFX=  1.000000  1.000000  1.000000  1.000000 ScalE2=  1.000000  1.000000
 IRadAn=      0 IRanWt=     -1 IRanGd=            0 ICorTp=0 IEmpDi=121
  HFx wShort=  0.000000 wLong=  0.200000 cFull=  0.222036 cShort=  0.000000 cLong=  0.777964
  DFx wShort=  0.000000 wLong=  0.200000 cFull=  0.000000 cShort=  0.000000 cLong=  1.000000
 NAtoms=    8 NActive=    8 NUniq=    8 SFac= 1.00D+00 NAtFMM=   60 NAOKFM=F Big=F
 Integral buffers will be    131072 words long.
 Raffenetti 2 integral format.
 Two-electron integral symmetry is turned on.
 R6Disp:  Grimme-D2 Dispersion energy=       -0.0018116517 Hartrees.
 Nuclear repulsion after empirical dispersion term =      102.6179072501 Hartrees.
 Leave Link  301 at Wed May 12 11:58:25 2021, MaxMem=  2147483648 cpu:         0.2
 (Enter /opt/cluster/programs/g09_d.01/g09/l302.exe)
 NPDir=0 NMtPBC=     1 NCelOv=     1 NCel=       1 NClECP=     1 NCelD=      1
         NCelK=      1 NCelE2=     1 NClLst=     1 CellRange=     0.0.
 One-electron integrals computed using PRISM.
 NBasis=    60 RedAO= T EigKep=  1.42D-04  NBF=    60
 NBsUse=    60 1.00D-06 EigRej= -1.00D+00 NBFU=    60
 Precomputing XC quadrature grid using
 IXCGrd= 4 IRadAn=           0 IRanWt=          -1 IRanGd=           0 AccXCQ= 0.00D+00.
 Generated NRdTot=       0 NPtTot=           0 NUsed=           0 NTot=          32
 NSgBfM=    60    60    60    60    60 MxSgAt=     8 MxSgA2=     8.
 Leave Link  302 at Wed May 12 11:58:26 2021, MaxMem=  2147483648 cpu:         0.6
 (Enter /opt/cluster/programs/g09_d.01/g09/l303.exe)
 DipDrv:  MaxL=1.
 Leave Link  303 at Wed May 12 11:58:26 2021, MaxMem=  2147483648 cpu:         0.1
 (Enter /opt/cluster/programs/g09_d.01/g09/l401.exe)
 Initial guess from the checkpoint file:  "/home/unibas/boittier/RDKit_G2/L.pdb/SCAN_1_2_3_4_S_17_20.0/3_SCAN_1_2_3_4_F/L.pdb.chk"
 B after Tr=     0.000000    0.000000    0.000000
         Rot=    0.999991   -0.004276   -0.000013    0.000729 Ang=  -0.50 deg.
 Guess basis will be translated and rotated to current coordinates.
 JPrj=2 DoOrth=T DoCkMO=T.
 Generating alternative initial guess.
 ExpMin= 4.38D-02 ExpMax= 5.48D+03 ExpMxC= 8.25D+02 IAcc=2 IRadAn=         4 AccDes= 0.00D+00
 Harris functional with IExCor= 4639 and IRadAn=       4 diagonalized for initial guess.
 HarFok:  IExCor= 4639 AccDes= 0.00D+00 IRadAn=         4 IDoV= 1 UseB2=F ITyADJ=14
 ICtDFT=  3500011 ScaDFX=  1.000000  1.000000  1.000000  1.000000
 FoFCou: FMM=F IPFlag=           0 FMFlag=      100000 FMFlg1=           0
         NFxFlg=           0 DoJE=T BraDBF=F KetDBF=T FulRan=T
         wScrn=  0.000000 ICntrl=     500 IOpCl=  0 I1Cent=   200000004 NGrid=           0
         NMat0=    1 NMatS0=      1 NMatT0=    0 NMatD0=    1 NMtDS0=    0 NMtDT0=    0
 Petite list used in FoFCou.
 Harris En= -183.740406973521    
 Leave Link  401 at Wed May 12 11:58:26 2021, MaxMem=  2147483648 cpu:         1.3
 (Enter /opt/cluster/programs/g09_d.01/g09/l502.exe)
 Closed shell SCF:
 Using DIIS extrapolation, IDIIS=  1040.
 Integral symmetry usage will be decided dynamically.
 Keep R1 ints in memory in canonical form, NReq=4262490.
 IVT=       30290 IEndB=       30290 NGot=  2147483648 MDV=  2144102629
 LenX=  2144102629 LenY=  2144098588
 Requested convergence on RMS density matrix=1.00D-08 within 128 cycles.
 Requested convergence on MAX density matrix=1.00D-06.
 Requested convergence on             energy=1.00D-06.
 No special actions if energy rises.
 FoFCou: FMM=F IPFlag=           0 FMFlag=           0 FMFlg1=           0
         NFxFlg=           0 DoJE=F BraDBF=F KetDBF=F FulRan=T
         wScrn=  0.000000 ICntrl=     600 IOpCl=  0 I1Cent=           0 NGrid=           0
         NMat0=    1 NMatS0=   1830 NMatT0=    0 NMatD0=    1 NMtDS0=    0 NMtDT0=    0
 Symmetry not used in FoFCou.

 Cycle   1  Pass 1  IDiag  1:
 E= -191.786147164513    
 DIIS: error= 5.92D-04 at cycle   1 NSaved=   1.
 NSaved= 1 IEnMin= 1 EnMin= -191.786147164513     IErMin= 1 ErrMin= 5.92D-04
 ErrMax= 5.92D-04  0.00D+00 EMaxC= 1.00D-01 BMatC= 4.95D-05 BMatP= 4.95D-05
 IDIUse=3 WtCom= 9.94D-01 WtEn= 5.92D-03
 Coeff-Com:  0.100D+01
 Coeff-En:   0.100D+01
 Coeff:      0.100D+01
 Gap=     0.616 Goal=   None    Shift=    0.000
 RMSDP=2.40D-04 MaxDP=1.60D-03              OVMax= 3.29D-03

 Cycle   2  Pass 1  IDiag  1:
 E= -191.786237176086     Delta-E=       -0.000090011573 Rises=F Damp=F
 DIIS: error= 2.33D-04 at cycle   2 NSaved=   2.
 NSaved= 2 IEnMin= 2 EnMin= -191.786237176086     IErMin= 2 ErrMin= 2.33D-04
 ErrMax= 2.33D-04  0.00D+00 EMaxC= 1.00D-01 BMatC= 4.34D-06 BMatP= 4.95D-05
 IDIUse=3 WtCom= 9.98D-01 WtEn= 2.33D-03
 Coeff-Com:  0.108D-01 0.989D+00
 Coeff-En:   0.000D+00 0.100D+01
 Coeff:      0.107D-01 0.989D+00
 Gap=     0.355 Goal=   None    Shift=    0.000
 RMSDP=9.37D-05 MaxDP=7.59D-04 DE=-9.00D-05 OVMax= 1.33D-03

 Cycle   3  Pass 1  IDiag  1:
 E= -191.786245516430     Delta-E=       -0.000008340345 Rises=F Damp=F
 DIIS: error= 1.83D-04 at cycle   3 NSaved=   3.
 NSaved= 3 IEnMin= 3 EnMin= -191.786245516430     IErMin= 3 ErrMin= 1.83D-04
 ErrMax= 1.83D-04  0.00D+00 EMaxC= 1.00D-01 BMatC= 2.23D-06 BMatP= 4.34D-06
 IDIUse=3 WtCom= 9.98D-01 WtEn= 1.83D-03
 Coeff-Com: -0.717D-01 0.406D+00 0.666D+00
 Coeff-En:   0.000D+00 0.000D+00 0.100D+01
 Coeff:     -0.716D-01 0.405D+00 0.666D+00
 Gap=     0.354 Goal=   None    Shift=    0.000
 RMSDP=4.02D-05 MaxDP=4.10D-04 DE=-8.34D-06 OVMax= 6.61D-04

 Cycle   4  Pass 1  IDiag  1:
 E= -191.786248047599     Delta-E=       -0.000002531168 Rises=F Damp=F
 DIIS: error= 9.32D-05 at cycle   4 NSaved=   4.
 NSaved= 4 IEnMin= 4 EnMin= -191.786248047599     IErMin= 4 ErrMin= 9.32D-05
 ErrMax= 9.32D-05  0.00D+00 EMaxC= 1.00D-01 BMatC= 7.15D-07 BMatP= 2.23D-06
 IDIUse=1 WtCom= 1.00D+00 WtEn= 0.00D+00
 Coeff-Com: -0.464D-01 0.903D-01 0.383D+00 0.573D+00
 Coeff:     -0.464D-01 0.903D-01 0.383D+00 0.573D+00
 Gap=     0.354 Goal=   None    Shift=    0.000
 RMSDP=2.01D-05 MaxDP=2.42D-04 DE=-2.53D-06 OVMax= 3.51D-04

 Cycle   5  Pass 1  IDiag  1:
 E= -191.786248846952     Delta-E=       -0.000000799354 Rises=F Damp=F
 DIIS: error= 3.43D-05 at cycle   5 NSaved=   5.
 NSaved= 5 IEnMin= 5 EnMin= -191.786248846952     IErMin= 5 ErrMin= 3.43D-05
 ErrMax= 3.43D-05  0.00D+00 EMaxC= 1.00D-01 BMatC= 3.74D-08 BMatP= 7.15D-07
 IDIUse=1 WtCom= 1.00D+00 WtEn= 0.00D+00
 Coeff-Com:  0.136D-01-0.930D-01-0.111D+00 0.492D-01 0.114D+01
 Coeff:      0.136D-01-0.930D-01-0.111D+00 0.492D-01 0.114D+01
 Gap=     0.354 Goal=   None    Shift=    0.000
 RMSDP=1.60D-05 MaxDP=2.03D-04 DE=-7.99D-07 OVMax= 3.68D-04

 Cycle   6  Pass 1  IDiag  1:
 E= -191.786249034198     Delta-E=       -0.000000187246 Rises=F Damp=F
 DIIS: error= 1.62D-05 at cycle   6 NSaved=   6.
 NSaved= 6 IEnMin= 6 EnMin= -191.786249034198     IErMin= 6 ErrMin= 1.62D-05
 ErrMax= 1.62D-05  0.00D+00 EMaxC= 1.00D-01 BMatC= 3.34D-09 BMatP= 3.74D-08
 IDIUse=1 WtCom= 1.00D+00 WtEn= 0.00D+00
 Coeff-Com:  0.337D-02-0.920D-02-0.258D-01-0.471D-01 0.393D-01 0.104D+01
 Coeff:      0.337D-02-0.920D-02-0.258D-01-0.471D-01 0.393D-01 0.104D+01
 Gap=     0.354 Goal=   None    Shift=    0.000
 RMSDP=4.61D-06 MaxDP=3.63D-05 DE=-1.87D-07 OVMax= 1.47D-04

 Cycle   7  Pass 1  IDiag  1:
 E= -191.786249054782     Delta-E=       -0.000000020584 Rises=F Damp=F
 DIIS: error= 6.94D-06 at cycle   7 NSaved=   7.
 NSaved= 7 IEnMin= 7 EnMin= -191.786249054782     IErMin= 7 ErrMin= 6.94D-06
 ErrMax= 6.94D-06  0.00D+00 EMaxC= 1.00D-01 BMatC= 1.27D-09 BMatP= 3.34D-09
 IDIUse=1 WtCom= 1.00D+00 WtEn= 0.00D+00
 Coeff-Com: -0.152D-02 0.158D-01 0.134D-01-0.283D-01-0.227D+00 0.425D+00
 Coeff-Com:  0.803D+00
 Coeff:     -0.152D-02 0.158D-01 0.134D-01-0.283D-01-0.227D+00 0.425D+00
 Coeff:      0.803D+00
 Gap=     0.354 Goal=   None    Shift=    0.000
 RMSDP=2.10D-06 MaxDP=1.71D-05 DE=-2.06D-08 OVMax= 7.53D-05

 Cycle   8  Pass 1  IDiag  1:
 E= -191.786249060164     Delta-E=       -0.000000005382 Rises=F Damp=F
 DIIS: error= 3.10D-06 at cycle   8 NSaved=   8.
 NSaved= 8 IEnMin= 8 EnMin= -191.786249060164     IErMin= 8 ErrMin= 3.10D-06
 ErrMax= 3.10D-06  0.00D+00 EMaxC= 1.00D-01 BMatC= 1.76D-10 BMatP= 1.27D-09
 IDIUse=1 WtCom= 1.00D+00 WtEn= 0.00D+00
 Coeff-Com: -0.103D-02 0.455D-02 0.756D-02 0.907D-02-0.505D-01-0.163D+00
 Coeff-Com:  0.929D-01 0.110D+01
 Coeff:     -0.103D-02 0.455D-02 0.756D-02 0.907D-02-0.505D-01-0.163D+00
 Coeff:      0.929D-01 0.110D+01
 Gap=     0.354 Goal=   None    Shift=    0.000
 RMSDP=1.31D-06 MaxDP=1.03D-05 DE=-5.38D-09 OVMax= 4.60D-05

 Cycle   9  Pass 1  IDiag  1:
 E= -191.786249061374     Delta-E=       -0.000000001209 Rises=F Damp=F
 DIIS: error= 8.15D-07 at cycle   9 NSaved=   9.
 NSaved= 9 IEnMin= 9 EnMin= -191.786249061374     IErMin= 9 ErrMin= 8.15D-07
 ErrMax= 8.15D-07  0.00D+00 EMaxC= 1.00D-01 BMatC= 3.86D-11 BMatP= 1.76D-10
 IDIUse=1 WtCom= 1.00D+00 WtEn= 0.00D+00
 Coeff-Com: -0.572D-05-0.167D-02-0.212D-03 0.924D-02 0.289D-01-0.138D+00
 Coeff-Com: -0.133D+00 0.414D+00 0.821D+00
 Coeff:     -0.572D-05-0.167D-02-0.212D-03 0.924D-02 0.289D-01-0.138D+00
 Coeff:     -0.133D+00 0.414D+00 0.821D+00
 Gap=     0.354 Goal=   None    Shift=    0.000
 RMSDP=4.54D-07 MaxDP=4.84D-06 DE=-1.21D-09 OVMax= 1.33D-05

 Cycle  10  Pass 1  IDiag  1:
 E= -191.786249061503     Delta-E=       -0.000000000129 Rises=F Damp=F
 DIIS: error= 2.25D-07 at cycle  10 NSaved=  10.
 NSaved=10 IEnMin=10 EnMin= -191.786249061503     IErMin=10 ErrMin= 2.25D-07
 ErrMax= 2.25D-07  0.00D+00 EMaxC= 1.00D-01 BMatC= 1.31D-12 BMatP= 3.86D-11
 IDIUse=1 WtCom= 1.00D+00 WtEn= 0.00D+00
 Coeff-Com:  0.104D-03-0.387D-03-0.757D-03-0.195D-02 0.431D-02 0.266D-01
 Coeff-Com: -0.522D-02-0.136D+00-0.689D-01 0.118D+01
 Coeff:      0.104D-03-0.387D-03-0.757D-03-0.195D-02 0.431D-02 0.266D-01
 Coeff:     -0.522D-02-0.136D+00-0.689D-01 0.118D+01
 Gap=     0.354 Goal=   None    Shift=    0.000
 RMSDP=1.33D-07 MaxDP=1.42D-06 DE=-1.29D-10 OVMax= 3.14D-06

 Cycle  11  Pass 1  IDiag  1:
 E= -191.786249061512     Delta-E=       -0.000000000009 Rises=F Damp=F
 DIIS: error= 4.44D-08 at cycle  11 NSaved=  11.
 NSaved=11 IEnMin=11 EnMin= -191.786249061512     IErMin=11 ErrMin= 4.44D-08
 ErrMax= 4.44D-08  0.00D+00 EMaxC= 1.00D-01 BMatC= 4.80D-14 BMatP= 1.31D-12
 IDIUse=1 WtCom= 1.00D+00 WtEn= 0.00D+00
 Coeff-Com: -0.179D-04 0.135D-03 0.118D-03 0.458D-04-0.198D-02 0.886D-03
 Coeff-Com:  0.536D-02 0.110D-01-0.286D-01-0.216D+00 0.123D+01
 Coeff:     -0.179D-04 0.135D-03 0.118D-03 0.458D-04-0.198D-02 0.886D-03
 Coeff:      0.536D-02 0.110D-01-0.286D-01-0.216D+00 0.123D+01
 Gap=     0.354 Goal=   None    Shift=    0.000
 RMSDP=2.48D-08 MaxDP=2.45D-07 DE=-8.98D-12 OVMax= 4.41D-07

 Cycle  12  Pass 1  IDiag  1:
 E= -191.786249061512     Delta-E=        0.000000000000 Rises=F Damp=F
 DIIS: error= 6.14D-09 at cycle  12 NSaved=  12.
 NSaved=12 IEnMin=12 EnMin= -191.786249061512     IErMin=12 ErrMin= 6.14D-09
 ErrMax= 6.14D-09  0.00D+00 EMaxC= 1.00D-01 BMatC= 1.73D-15 BMatP= 4.80D-14
 IDIUse=1 WtCom= 1.00D+00 WtEn= 0.00D+00
 Coeff-Com:  0.141D-05-0.229D-04-0.118D-04 0.579D-04 0.396D-03-0.106D-02
 Coeff-Com: -0.158D-02 0.231D-02 0.848D-02 0.217D-01-0.343D+00 0.131D+01
 Coeff:      0.141D-05-0.229D-04-0.118D-04 0.579D-04 0.396D-03-0.106D-02
 Coeff:     -0.158D-02 0.231D-02 0.848D-02 0.217D-01-0.343D+00 0.131D+01
 Gap=     0.354 Goal=   None    Shift=    0.000
 RMSDP=5.10D-09 MaxDP=7.59D-08 DE=-3.41D-13 OVMax= 8.60D-08

 SCF Done:  E(RwB97XD) =  -191.786249062     A.U. after   12 cycles
            NFock= 12  Conv=0.51D-08     -V/T= 2.0058
 KE= 1.906816161719D+02 PE=-6.526294960439D+02 EE= 1.675437235604D+02
 Leave Link  502 at Wed May 12 11:58:27 2021, MaxMem=  2147483648 cpu:         8.0
 (Enter /opt/cluster/programs/g09_d.01/g09/l701.exe)
 Compute integral first derivatives.
 ... and contract with generalized density number  0.
 R6Disp: Adding Grimme-D2 dispersion energy 1st derivatives to the gradient.
 Leave Link  701 at Wed May 12 11:58:27 2021, MaxMem=  2147483648 cpu:         0.5
 (Enter /opt/cluster/programs/g09_d.01/g09/l702.exe)
 L702 exits ... SP integral derivatives will be done elsewhere.
 Leave Link  702 at Wed May 12 11:58:27 2021, MaxMem=  2147483648 cpu:         0.1
 (Enter /opt/cluster/programs/g09_d.01/g09/l703.exe)
 Compute integral first derivatives, UseDBF=F ICtDFT=           0.
 Integral derivatives from FoFJK, PRISM(SPDF).
 Calling FoFJK, ICntrl=      2127 FMM=F ISym2X=0 I1Cent= 0 IOpClX= 0 NMat=1 NMatS=1 NMatT=0.
 FoFJK:  IHMeth= 1 ICntrl=    2127 DoSepK=T KAlg= 0 I1Cent=   0 FoldK=F
 IRaf=         1 NMat=   1 IRICut=       1 DoRegI=T DoRafI=F ISym2E= 0.
 FoFCou: FMM=F IPFlag=           0 FMFlag=      100000 FMFlg1=         800
         NFxFlg=           0 DoJE=F BraDBF=F KetDBF=F FulRan=T
         wScrn=  0.000000 ICntrl=    2527 IOpCl=  0 I1Cent=           0 NGrid=           0
         NMat0=    1 NMatS0=      1 NMatT0=    0 NMatD0=    1 NMtDS0=    0 NMtDT0=    0
 Symmetry not used in FoFCou.
 Leave Link  703 at Wed May 12 11:58:27 2021, MaxMem=  2147483648 cpu:         2.4
 (Enter /opt/cluster/programs/g09_d.01/g09/l716.exe)
 Dipole        =-1.19892171D+00 2.73694957D-01 4.53148139D-01
 ***** Axes restored to original set *****
 -------------------------------------------------------------------
 Center     Atomic                   Forces (Hartrees/Bohr)
 Number     Number              X              Y              Z
 -------------------------------------------------------------------
      1        6           0.002127001    0.002322109   -0.006101463
      2        6          -0.002536187   -0.005249202    0.006345895
      3        6           0.001543376    0.005983576    0.005581866
      4        8          -0.001415336   -0.003463170   -0.005868508
      5        1           0.000289737    0.000243651   -0.000040083
      6        1           0.000100493    0.000059701    0.000193364
      7        1           0.000006700   -0.000001015    0.000060971
      8        1          -0.000115784    0.000104350   -0.000172040
 -------------------------------------------------------------------
 Cartesian Forces:  Max     0.006345895 RMS     0.003158541
 Leave Link  716 at Wed May 12 11:58:27 2021, MaxMem=  2147483648 cpu:         0.1
 (Enter /opt/cluster/programs/g09_d.01/g09/l103.exe)

 GradGradGradGradGradGradGradGradGradGradGradGradGradGradGradGradGradGrad
 Berny optimization.
 Using GEDIIS/GDIIS optimizer.
 FormGI is forming the generalized inverse of G from B-inverse, IUseBI=4.
 Internal  Forces:  Max     0.008522458 RMS     0.002240948
 Search for a local minimum.
 Step number   2 out of a maximum of   34
 All quantities printed in internal units (Hartrees-Bohrs-Radians)
 RMS Force = .38285D-03 SwitMx=.10000D-02 MixMth= 2
 Mixed Optimization -- En-DIIS/RFO-DIIS
 Update second derivatives using D2CorX and points    1    2
 DE= -1.19D-04 DEPred=-1.25D-04 R= 9.51D-01
 TightC=F SS=  1.41D+00  RLast= 5.07D-02 DXNew= 5.0454D-01 1.5201D-01
 Trust test= 9.51D-01 RLast= 5.07D-02 DXMaxT set to 3.00D-01
 ITU=  1  0
 Use linear search instead of GDIIS.
     Eigenvalues ---    0.01038   0.01708   0.02837   0.02887   0.15826
     Eigenvalues ---    0.15955   0.16000   0.16220   0.21852   0.22647
     Eigenvalues ---    0.33174   0.34755   0.35016   0.35149   0.35640
     Eigenvalues ---    0.61365   0.793591000.000001000.000001000.00000
     Eigenvalues --- 1000.000001000.000001000.000001000.00000
 RFO step:  Lambda=-1.52581822D-05 EMin= 1.03793724D-02
 Quartic linear search produced a step of -0.05001.
 Iteration  1 RMS(Cart)=  0.00423131 RMS(Int)=  0.00003064
 Iteration  2 RMS(Cart)=  0.00002490 RMS(Int)=  0.00001519
 Iteration  3 RMS(Cart)=  0.00000000 RMS(Int)=  0.00001519
 Iteration  1 RMS(Cart)=  0.00000007 RMS(Int)=  0.00000005
 ITry= 1 IFail=0 DXMaxC= 1.02D-02 DCOld= 1.00D+10 DXMaxT= 3.00D-01 DXLimC= 3.00D+00 Rises=F
 Variable       Old X    -DE/DX   Delta X   Delta X   Delta X     New X
                                 (Linear)    (Quad)   (Total)
    R1        2.52684   0.00099   0.00055   0.00045   0.00100   2.52783
    R2        2.04931   0.00008   0.00010   0.00000   0.00010   2.04941
    R3        2.05510   0.00001   0.00005  -0.00008  -0.00003   2.05506
    R4        2.80080   0.00097   0.00021   0.00225   0.00245   2.80325
    R5        2.05525  -0.00007   0.00010  -0.00043  -0.00033   2.05493
    R6        2.33467  -0.00075   0.00057  -0.00209  -0.00152   2.33316
    R7        2.08232   0.00022   0.00024   0.00010   0.00034   2.08266
    A1        2.12097   0.00019   0.00010   0.00092   0.00102   2.12199
    A2        2.12654  -0.00007   0.00008  -0.00061  -0.00053   2.12601
    A3        2.03567  -0.00012  -0.00018  -0.00030  -0.00049   2.03519
    A4        2.11985   0.00026   0.00025   0.00015   0.00038   2.12024
    A5        2.11307   0.00069  -0.00016   0.00171   0.00154   2.11461
    A6        2.03478  -0.00038  -0.00026  -0.00021  -0.00048   2.03430
    A7        2.14123   0.00070   0.00016   0.00159   0.00170   2.14293
    A8        2.04796  -0.00037  -0.00019  -0.00288  -0.00311   2.04485
    A9        2.09050   0.00019  -0.00001   0.00001  -0.00005   2.09046
    D1        3.00685   0.00163  -0.00095   0.00194   0.00099   3.00784
    D2        0.05984  -0.00188   0.00012  -0.00828  -0.00816   0.05167
    D3       -0.13714   0.00180  -0.00071   0.00720   0.00649  -0.13065
    D4       -3.08415  -0.00170   0.00035  -0.00302  -0.00267  -3.08682
    D5       -2.09438  -0.00852   0.00000   0.00000   0.00000  -2.09438
    D6        0.95720  -0.00189  -0.00057  -0.01658  -0.01714   0.94006
    D7        0.86094  -0.00505  -0.00102   0.00999   0.00897   0.86991
    D8       -2.37066   0.00158  -0.00158  -0.00660  -0.00818  -2.37884
         Item               Value     Threshold  Converged?
 Maximum Force            0.000992     0.000450     NO 
 RMS     Force            0.000383     0.000300     NO 
 Maximum Displacement     0.010210     0.001800     NO 
 RMS     Displacement     0.004234     0.001200     NO 
 Predicted change in Energy=-7.970874D-06
 Lowest energy point so far.  Saving SCF results.
 GradGradGradGradGradGradGradGradGradGradGradGradGradGradGradGradGradGrad

 Leave Link  103 at Wed May 12 11:58:27 2021, MaxMem=  2147483648 cpu:         0.0
 (Enter /opt/cluster/programs/g09_d.01/g09/l202.exe)
                          Input orientation:                          
 ---------------------------------------------------------------------
 Center     Atomic      Atomic             Coordinates (Angstroms)
 Number     Number       Type             X           Y           Z
 ---------------------------------------------------------------------
      1          6           0        1.700707    0.178452    0.196443
      2          6           0        0.591842   -0.427619   -0.242262
      3          6           0       -0.709179    0.282895   -0.297433
      4          8           0       -1.704560   -0.095579    0.327342
      5          1           0       -0.737374    1.239153   -0.844594
      6          1           0        2.623261   -0.369606    0.353526
      7          1           0        1.723255    1.243241    0.416340
      8          1           0        0.566788   -1.501613   -0.410760
 ---------------------------------------------------------------------
                    Distance matrix (angstroms):
                    1          2          3          4          5
     1  C    0.000000
     2  C    1.337671   0.000000
     3  C    2.462189   1.483418   0.000000
     4  O    3.418782   2.389176   1.234653   0.000000
     5  H    2.855360   2.215344   1.102094   2.022472   0.000000
     6  H    1.084503   2.117779   3.457551   4.336566   3.913753
     7  H    1.087492   2.122646   2.710806   3.681070   2.764899
     8  H    2.115912   1.087420   2.196680   2.771416   3.066080
                    6          7          8
     6  H    0.000000
     7  H    1.848035   0.000000
     8  H    2.468735   3.091235   0.000000
 Stoichiometry    C3H4O
 Framework group  C1[X(C3H4O)]
 Deg. of freedom    18
 Full point group                 C1      NOp   1
 RotChk:  IX=0 Diff= 3.33D-03
 Largest Abelian subgroup         C1      NOp   1
 Largest concise Abelian subgroup C1      NOp   1
                         Standard orientation:                         
 ---------------------------------------------------------------------
 Center     Atomic      Atomic             Coordinates (Angstroms)
 Number     Number       Type             X           Y           Z
 ---------------------------------------------------------------------
      1          6           0       -1.698618    0.184963   -0.193109
      2          6           0       -0.592264   -0.428930    0.241036
      3          6           0        0.711475    0.276073    0.302396
      4          8           0        1.705611   -0.101174   -0.325096
      5          1           0        0.743169    1.227749    0.857301
      6          1           0       -2.623227   -0.358229   -0.354935
      7          1           0       -1.716968    1.251579   -0.404375
      8          1           0       -0.571424   -1.504344    0.400830
 ---------------------------------------------------------------------
 Rotational constants (GHZ):     35.3976187      4.7209757      4.5461529
 Leave Link  202 at Wed May 12 11:58:27 2021, MaxMem=  2147483648 cpu:         0.0
 (Enter /opt/cluster/programs/g09_d.01/g09/l301.exe)
 Standard basis: 6-31+G (6D, 7F)
 Ernie: Thresh=  0.10000D-02 Tol=  0.10000D-05 Strict=F.
 There are    60 symmetry adapted cartesian basis functions of A   symmetry.
 There are    60 symmetry adapted basis functions of A   symmetry.
    60 basis functions,   120 primitive gaussians,    60 cartesian basis functions
    15 alpha electrons       15 beta electrons
       nuclear repulsion energy       102.5968479968 Hartrees.
 IExCor= 4639 DFT=T Ex+Corr=wB97XD ExCW=0 ScaHFX=  1.000000
 ScaDFX=  1.000000  1.000000  1.000000  1.000000 ScalE2=  1.000000  1.000000
 IRadAn=      0 IRanWt=     -1 IRanGd=            0 ICorTp=0 IEmpDi=121
  HFx wShort=  0.000000 wLong=  0.200000 cFull=  0.222036 cShort=  0.000000 cLong=  0.777964
  DFx wShort=  0.000000 wLong=  0.200000 cFull=  0.000000 cShort=  0.000000 cLong=  1.000000
 NAtoms=    8 NActive=    8 NUniq=    8 SFac= 1.00D+00 NAtFMM=   60 NAOKFM=F Big=F
 Integral buffers will be    131072 words long.
 Raffenetti 2 integral format.
 Two-electron integral symmetry is turned on.
 R6Disp:  Grimme-D2 Dispersion energy=       -0.0018132159 Hartrees.
 Nuclear repulsion after empirical dispersion term =      102.5950347809 Hartrees.
 Leave Link  301 at Wed May 12 11:58:27 2021, MaxMem=  2147483648 cpu:         0.2
 (Enter /opt/cluster/programs/g09_d.01/g09/l302.exe)
 NPDir=0 NMtPBC=     1 NCelOv=     1 NCel=       1 NClECP=     1 NCelD=      1
         NCelK=      1 NCelE2=     1 NClLst=     1 CellRange=     0.0.
 One-electron integrals computed using PRISM.
 NBasis=    60 RedAO= T EigKep=  1.42D-04  NBF=    60
 NBsUse=    60 1.00D-06 EigRej= -1.00D+00 NBFU=    60
 Precomputing XC quadrature grid using
 IXCGrd= 4 IRadAn=           0 IRanWt=          -1 IRanGd=           0 AccXCQ= 0.00D+00.
 Generated NRdTot=       0 NPtTot=           0 NUsed=           0 NTot=          32
 NSgBfM=    60    60    60    60    60 MxSgAt=     8 MxSgA2=     8.
 Leave Link  302 at Wed May 12 11:58:27 2021, MaxMem=  2147483648 cpu:         0.6
 (Enter /opt/cluster/programs/g09_d.01/g09/l303.exe)
 DipDrv:  MaxL=1.
 Leave Link  303 at Wed May 12 11:58:27 2021, MaxMem=  2147483648 cpu:         0.1
 (Enter /opt/cluster/programs/g09_d.01/g09/l401.exe)
 Initial guess from the checkpoint file:  "/home/unibas/boittier/RDKit_G2/L.pdb/SCAN_1_2_3_4_S_17_20.0/3_SCAN_1_2_3_4_F/L.pdb.chk"
 B after Tr=     0.000000    0.000000    0.000000
         Rot=    0.999998   -0.002149    0.000108    0.000014 Ang=  -0.25 deg.
 Guess basis will be translated and rotated to current coordinates.
 JPrj=2 DoOrth=T DoCkMO=T.
 Leave Link  401 at Wed May 12 11:58:27 2021, MaxMem=  2147483648 cpu:         0.4
 (Enter /opt/cluster/programs/g09_d.01/g09/l502.exe)
 Closed shell SCF:
 Using DIIS extrapolation, IDIIS=  1040.
 Integral symmetry usage will be decided dynamically.
 Keep R1 ints in memory in canonical form, NReq=4262490.
 IVT=       30290 IEndB=       30290 NGot=  2147483648 MDV=  2144102629
 LenX=  2144102629 LenY=  2144098588
 Requested convergence on RMS density matrix=1.00D-08 within 128 cycles.
 Requested convergence on MAX density matrix=1.00D-06.
 Requested convergence on             energy=1.00D-06.
 No special actions if energy rises.
 FoFCou: FMM=F IPFlag=           0 FMFlag=           0 FMFlg1=           0
         NFxFlg=           0 DoJE=F BraDBF=F KetDBF=F FulRan=T
         wScrn=  0.000000 ICntrl=     600 IOpCl=  0 I1Cent=           0 NGrid=           0
         NMat0=    1 NMatS0=   1830 NMatT0=    0 NMatD0=    1 NMtDS0=    0 NMtDT0=    0
 Symmetry not used in FoFCou.

 Cycle   1  Pass 1  IDiag  1:
 E= -191.786229540909    
 DIIS: error= 3.06D-04 at cycle   1 NSaved=   1.
 NSaved= 1 IEnMin= 1 EnMin= -191.786229540909     IErMin= 1 ErrMin= 3.06D-04
 ErrMax= 3.06D-04  0.00D+00 EMaxC= 1.00D-01 BMatC= 8.54D-06 BMatP= 8.54D-06
 IDIUse=3 WtCom= 9.97D-01 WtEn= 3.06D-03
 Coeff-Com:  0.100D+01
 Coeff-En:   0.100D+01
 Coeff:      0.100D+01
 Gap=     0.617 Goal=   None    Shift=    0.000
 RMSDP=1.33D-04 MaxDP=1.22D-03              OVMax= 1.34D-03

 Cycle   2  Pass 1  IDiag  1:
 E= -191.786246328831     Delta-E=       -0.000016787922 Rises=F Damp=F
 DIIS: error= 8.46D-05 at cycle   2 NSaved=   2.
 NSaved= 2 IEnMin= 2 EnMin= -191.786246328831     IErMin= 2 ErrMin= 8.46D-05
 ErrMax= 8.46D-05  0.00D+00 EMaxC= 1.00D-01 BMatC= 6.80D-07 BMatP= 8.54D-06
 IDIUse=1 WtCom= 1.00D+00 WtEn= 0.00D+00
 Coeff-Com: -0.901D-01 0.109D+01
 Coeff:     -0.901D-01 0.109D+01
 Gap=     0.354 Goal=   None    Shift=    0.000
 RMSDP=4.02D-05 MaxDP=3.75D-04 DE=-1.68D-05 OVMax= 7.69D-04

 Cycle   3  Pass 1  IDiag  1:
 E= -191.786247266732     Delta-E=       -0.000000937901 Rises=F Damp=F
 DIIS: error= 9.88D-05 at cycle   3 NSaved=   3.
 NSaved= 3 IEnMin= 3 EnMin= -191.786247266732     IErMin= 2 ErrMin= 8.46D-05
 ErrMax= 9.88D-05  0.00D+00 EMaxC= 1.00D-01 BMatC= 9.32D-07 BMatP= 6.80D-07
 IDIUse=1 WtCom= 1.00D+00 WtEn= 0.00D+00
 Coeff-Com: -0.124D+00 0.651D+00 0.472D+00
 Coeff:     -0.124D+00 0.651D+00 0.472D+00
 Gap=     0.354 Goal=   None    Shift=    0.000
 RMSDP=1.75D-05 MaxDP=2.25D-04 DE=-9.38D-07 OVMax= 2.55D-04

 Cycle   4  Pass 1  IDiag  1:
 E= -191.786248080535     Delta-E=       -0.000000813803 Rises=F Damp=F
 DIIS: error= 3.26D-05 at cycle   4 NSaved=   4.
 NSaved= 4 IEnMin= 4 EnMin= -191.786248080535     IErMin= 4 ErrMin= 3.26D-05
 ErrMax= 3.26D-05  0.00D+00 EMaxC= 1.00D-01 BMatC= 2.85D-08 BMatP= 6.80D-07
 IDIUse=1 WtCom= 1.00D+00 WtEn= 0.00D+00
 Coeff-Com: -0.501D-02-0.549D-01 0.824D-01 0.978D+00
 Coeff:     -0.501D-02-0.549D-01 0.824D-01 0.978D+00
 Gap=     0.354 Goal=   None    Shift=    0.000
 RMSDP=1.01D-05 MaxDP=9.78D-05 DE=-8.14D-07 OVMax= 2.82D-04

 Cycle   5  Pass 1  IDiag  1:
 E= -191.786248183889     Delta-E=       -0.000000103353 Rises=F Damp=F
 DIIS: error= 1.53D-05 at cycle   5 NSaved=   5.
 NSaved= 5 IEnMin= 5 EnMin= -191.786248183889     IErMin= 5 ErrMin= 1.53D-05
 ErrMax= 1.53D-05  0.00D+00 EMaxC= 1.00D-01 BMatC= 7.64D-09 BMatP= 2.85D-08
 IDIUse=1 WtCom= 1.00D+00 WtEn= 0.00D+00
 Coeff-Com:  0.182D-01-0.126D+00-0.479D-01 0.358D+00 0.797D+00
 Coeff:      0.182D-01-0.126D+00-0.479D-01 0.358D+00 0.797D+00
 Gap=     0.354 Goal=   None    Shift=    0.000
 RMSDP=4.66D-06 MaxDP=4.03D-05 DE=-1.03D-07 OVMax= 1.56D-04

 Cycle   6  Pass 1  IDiag  1:
 E= -191.786248213951     Delta-E=       -0.000000030063 Rises=F Damp=F
 DIIS: error= 9.24D-06 at cycle   6 NSaved=   6.
 NSaved= 6 IEnMin= 6 EnMin= -191.786248213951     IErMin= 6 ErrMin= 9.24D-06
 ErrMax= 9.24D-06  0.00D+00 EMaxC= 1.00D-01 BMatC= 1.31D-09 BMatP= 7.64D-09
 IDIUse=1 WtCom= 1.00D+00 WtEn= 0.00D+00
 Coeff-Com:  0.437D-02-0.733D-02-0.333D-01-0.178D+00 0.101D+00 0.111D+01
 Coeff:      0.437D-02-0.733D-02-0.333D-01-0.178D+00 0.101D+00 0.111D+01
 Gap=     0.354 Goal=   None    Shift=    0.000
 RMSDP=3.47D-06 MaxDP=3.04D-05 DE=-3.01D-08 OVMax= 1.24D-04

 Cycle   7  Pass 1  IDiag  1:
 E= -191.786248223674     Delta-E=       -0.000000009723 Rises=F Damp=F
 DIIS: error= 2.99D-06 at cycle   7 NSaved=   7.
 NSaved= 7 IEnMin= 7 EnMin= -191.786248223674     IErMin= 7 ErrMin= 2.99D-06
 ErrMax= 2.99D-06  0.00D+00 EMaxC= 1.00D-01 BMatC= 3.39D-10 BMatP= 1.31D-09
 IDIUse=1 WtCom= 1.00D+00 WtEn= 0.00D+00
 Coeff-Com: -0.213D-02 0.233D-01-0.351D-02-0.143D+00-0.122D+00 0.444D+00
 Coeff-Com:  0.803D+00
 Coeff:     -0.213D-02 0.233D-01-0.351D-02-0.143D+00-0.122D+00 0.444D+00
 Coeff:      0.803D+00
 Gap=     0.354 Goal=   None    Shift=    0.000
 RMSDP=1.20D-06 MaxDP=1.17D-05 DE=-9.72D-09 OVMax= 4.48D-05

 Cycle   8  Pass 1  IDiag  1:
 E= -191.786248225058     Delta-E=       -0.000000001383 Rises=F Damp=F
 DIIS: error= 1.06D-06 at cycle   8 NSaved=   8.
 NSaved= 8 IEnMin= 8 EnMin= -191.786248225058     IErMin= 8 ErrMin= 1.06D-06
 ErrMax= 1.06D-06  0.00D+00 EMaxC= 1.00D-01 BMatC= 2.15D-11 BMatP= 3.39D-10
 IDIUse=1 WtCom= 1.00D+00 WtEn= 0.00D+00
 Coeff-Com: -0.564D-03 0.637D-03 0.585D-02 0.283D-01-0.107D-01-0.194D+00
 Coeff-Com:  0.540D-02 0.117D+01
 Coeff:     -0.564D-03 0.637D-03 0.585D-02 0.283D-01-0.107D-01-0.194D+00
 Coeff:      0.540D-02 0.117D+01
 Gap=     0.354 Goal=   None    Shift=    0.000
 RMSDP=4.95D-07 MaxDP=4.81D-06 DE=-1.38D-09 OVMax= 1.64D-05

 Cycle   9  Pass 1  IDiag  1:
 E= -191.786248225193     Delta-E=       -0.000000000136 Rises=F Damp=F
 DIIS: error= 1.46D-07 at cycle   9 NSaved=   9.
 NSaved= 9 IEnMin= 9 EnMin= -191.786248225193     IErMin= 9 ErrMin= 1.46D-07
 ErrMax= 1.46D-07  0.00D+00 EMaxC= 1.00D-01 BMatC= 6.55D-13 BMatP= 2.15D-11
 IDIUse=1 WtCom= 1.00D+00 WtEn= 0.00D+00
 Coeff-Com:  0.136D-03-0.123D-02-0.158D-03 0.572D-02 0.675D-02-0.825D-02
 Coeff-Com: -0.499D-01-0.690D-01 0.112D+01
 Coeff:      0.136D-03-0.123D-02-0.158D-03 0.572D-02 0.675D-02-0.825D-02
 Coeff:     -0.499D-01-0.690D-01 0.112D+01
 Gap=     0.354 Goal=   None    Shift=    0.000
 RMSDP=8.13D-08 MaxDP=1.07D-06 DE=-1.36D-10 OVMax= 1.89D-06

 Cycle  10  Pass 1  IDiag  1:
 E= -191.786248225197     Delta-E=       -0.000000000004 Rises=F Damp=F
 DIIS: error= 3.28D-08 at cycle  10 NSaved=  10.
 NSaved=10 IEnMin=10 EnMin= -191.786248225197     IErMin=10 ErrMin= 3.28D-08
 ErrMax= 3.28D-08  0.00D+00 EMaxC= 1.00D-01 BMatC= 4.21D-14 BMatP= 6.55D-13
 IDIUse=1 WtCom= 1.00D+00 WtEn= 0.00D+00
 Coeff-Com:  0.455D-04-0.178D-03-0.329D-03-0.836D-03 0.151D-02 0.882D-02
 Coeff-Com: -0.644D-02-0.626D-01 0.108D+00 0.952D+00
 Coeff:      0.455D-04-0.178D-03-0.329D-03-0.836D-03 0.151D-02 0.882D-02
 Coeff:     -0.644D-02-0.626D-01 0.108D+00 0.952D+00
 Gap=     0.354 Goal=   None    Shift=    0.000
 RMSDP=1.68D-08 MaxDP=1.66D-07 DE=-3.64D-12 OVMax= 3.18D-07

 Cycle  11  Pass 1  IDiag  1:
 E= -191.786248225198     Delta-E=       -0.000000000001 Rises=F Damp=F
 DIIS: error= 1.09D-08 at cycle  11 NSaved=  11.
 NSaved=11 IEnMin=11 EnMin= -191.786248225198     IErMin=11 ErrMin= 1.09D-08
 ErrMax= 1.09D-08  0.00D+00 EMaxC= 1.00D-01 BMatC= 5.77D-15 BMatP= 4.21D-14
 IDIUse=1 WtCom= 1.00D+00 WtEn= 0.00D+00
 Coeff-Com: -0.450D-05 0.794D-04-0.304D-04-0.723D-03-0.299D-03 0.227D-02
 Coeff-Com:  0.343D-02-0.419D-02-0.933D-01 0.183D+00 0.910D+00
 Coeff:     -0.450D-05 0.794D-04-0.304D-04-0.723D-03-0.299D-03 0.227D-02
 Coeff:      0.343D-02-0.419D-02-0.933D-01 0.183D+00 0.910D+00
 Gap=     0.354 Goal=   None    Shift=    0.000
 RMSDP=8.03D-09 MaxDP=8.41D-08 DE=-6.82D-13 OVMax= 1.07D-07

 SCF Done:  E(RwB97XD) =  -191.786248225     A.U. after   11 cycles
            NFock= 11  Conv=0.80D-08     -V/T= 2.0058
 KE= 1.906799493656D+02 PE=-6.525802750064D+02 EE= 1.675190426348D+02
 Leave Link  502 at Wed May 12 11:58:28 2021, MaxMem=  2147483648 cpu:         7.4
 (Enter /opt/cluster/programs/g09_d.01/g09/l701.exe)
 Compute integral first derivatives.
 ... and contract with generalized density number  0.
 R6Disp: Adding Grimme-D2 dispersion energy 1st derivatives to the gradient.
 Leave Link  701 at Wed May 12 11:58:29 2021, MaxMem=  2147483648 cpu:         0.5
 (Enter /opt/cluster/programs/g09_d.01/g09/l702.exe)
 L702 exits ... SP integral derivatives will be done elsewhere.
 Leave Link  702 at Wed May 12 11:58:29 2021, MaxMem=  2147483648 cpu:         0.1
 (Enter /opt/cluster/programs/g09_d.01/g09/l703.exe)
 Compute integral first derivatives, UseDBF=F ICtDFT=           0.
 Integral derivatives from FoFJK, PRISM(SPDF).
 Calling FoFJK, ICntrl=      2127 FMM=F ISym2X=0 I1Cent= 0 IOpClX= 0 NMat=1 NMatS=1 NMatT=0.
 FoFJK:  IHMeth= 1 ICntrl=    2127 DoSepK=T KAlg= 0 I1Cent=   0 FoldK=F
 IRaf=         1 NMat=   1 IRICut=       1 DoRegI=T DoRafI=F ISym2E= 0.
 FoFCou: FMM=F IPFlag=           0 FMFlag=      100000 FMFlg1=         800
         NFxFlg=           0 DoJE=F BraDBF=F KetDBF=F FulRan=T
         wScrn=  0.000000 ICntrl=    2527 IOpCl=  0 I1Cent=           0 NGrid=           0
         NMat0=    1 NMatS0=      1 NMatT0=    0 NMatD0=    1 NMtDS0=    0 NMtDT0=    0
 Symmetry not used in FoFCou.
 Leave Link  703 at Wed May 12 11:58:29 2021, MaxMem=  2147483648 cpu:         2.4
 (Enter /opt/cluster/programs/g09_d.01/g09/l716.exe)
 Dipole        =-1.19865036D+00 2.70173007D-01 4.52464838D-01
 ***** Axes restored to original set *****
 -------------------------------------------------------------------
 Center     Atomic                   Forces (Hartrees/Bohr)
 Number     Number              X              Y              Z
 -------------------------------------------------------------------
      1        6           0.001282499    0.001993954   -0.005812629
      2        6          -0.002667500   -0.004993850    0.005478875
      3        6           0.003659503    0.007366025    0.006671090
      4        8          -0.002326844   -0.004277230   -0.005832893
      5        1           0.000008346   -0.000091413   -0.000591713
      6        1           0.000027038    0.000005247    0.000028207
      7        1           0.000015927    0.000060742   -0.000039405
      8        1           0.000001031   -0.000063477    0.000098468
 -------------------------------------------------------------------
 Cartesian Forces:  Max     0.007366025 RMS     0.003364918
 Leave Link  716 at Wed May 12 11:58:29 2021, MaxMem=  2147483648 cpu:         0.1
 (Enter /opt/cluster/programs/g09_d.01/g09/l103.exe)

 GradGradGradGradGradGradGradGradGradGradGradGradGradGradGradGradGradGrad
 Berny optimization.
 Using GEDIIS/GDIIS optimizer.
 FormGI is forming the generalized inverse of G from B-inverse, IUseBI=4.
 Internal  Forces:  Max     0.009043170 RMS     0.002355204
 Search for a local minimum.
 Step number   3 out of a maximum of   34
 All quantities printed in internal units (Hartrees-Bohrs-Radians)
 RMS Force = .22157D-03 SwitMx=.10000D-02 MixMth= 2
 Mixed Optimization -- En-DIIS/RFO-DIIS
 Swapping is turned off.
 Update second derivatives using D2CorX and points    1    2    3
 DE=  8.36D-07 DEPred=-7.97D-06 R=-1.05D-01
 Trust test=-1.05D-01 RLast= 2.42D-02 DXMaxT set to 1.50D-01
 ITU= -1  1  0
     Eigenvalues ---    0.01192   0.02760   0.02852   0.04647   0.14429
     Eigenvalues ---    0.15939   0.16045   0.16056   0.20113   0.22620
     Eigenvalues ---    0.31819   0.33477   0.35004   0.35092   0.35410
     Eigenvalues ---    0.60404   0.733341000.000001000.000001000.00000
     Eigenvalues --- 1000.000001000.000001000.000001000.00000
 En-DIIS/RFO-DIIS IScMMF=        0 using points:     3    2
 RFO step:  Lambda=-8.24991694D-06.
 NNeg= 0 NP= 2 Switch=  2.50D-03 Rises=F DC= -8.36D-07 SmlDif=  1.00D-05
 RMS Error=  0.8666066952D-03 NUsed= 2 EDIIS=F
 DidBck=T Rises=F RFO-DIIS coefs:    0.47393    0.52607
 Iteration  1 RMS(Cart)=  0.00429119 RMS(Int)=  0.00002878
 Iteration  2 RMS(Cart)=  0.00002599 RMS(Int)=  0.00000627
 Iteration  3 RMS(Cart)=  0.00000000 RMS(Int)=  0.00000627
 Iteration  1 RMS(Cart)=  0.00000102 RMS(Int)=  0.00000074
 Iteration  2 RMS(Cart)=  0.00000039 RMS(Int)=  0.00000082
 ITry= 1 IFail=0 DXMaxC= 1.25D-02 DCOld= 1.00D+10 DXMaxT= 1.50D-01 DXLimC= 3.00D+00 Rises=F
 Variable       Old X    -DE/DX   Delta X   Delta X   Delta X     New X
                                 (Linear)    (Quad)   (Total)
    R1        2.52783   0.00012  -0.00052   0.00080   0.00028   2.52811
    R2        2.04941   0.00002  -0.00005   0.00007   0.00002   2.04943
    R3        2.05506   0.00005   0.00002  -0.00001   0.00001   2.05507
    R4        2.80325   0.00025  -0.00129   0.00286   0.00157   2.80482
    R5        2.05493   0.00005   0.00017  -0.00037  -0.00019   2.05473
    R6        2.33316   0.00024   0.00080  -0.00192  -0.00113   2.33203
    R7        2.08266   0.00021  -0.00018   0.00049   0.00031   2.08297
    A1        2.12199   0.00003  -0.00054   0.00112   0.00059   2.12257
    A2        2.12601  -0.00001   0.00028  -0.00068  -0.00040   2.12561
    A3        2.03519  -0.00002   0.00026  -0.00046  -0.00020   2.03499
    A4        2.12024  -0.00009  -0.00020  -0.00051  -0.00071   2.11953
    A5        2.11461   0.00063  -0.00081   0.00148   0.00067   2.11528
    A6        2.03430  -0.00004   0.00025  -0.00045  -0.00019   2.03411
    A7        2.14293   0.00049  -0.00089   0.00279   0.00188   2.14481
    A8        2.04485  -0.00003   0.00164  -0.00308  -0.00146   2.04338
    A9        2.09046   0.00027   0.00002   0.00096   0.00097   2.09143
    D1        3.00784   0.00163  -0.00052  -0.00220  -0.00272   3.00512
    D2        0.05167  -0.00166   0.00429  -0.00553  -0.00123   0.05045
    D3       -0.13065   0.00160  -0.00341   0.00316  -0.00026  -0.13091
    D4       -3.08682  -0.00169   0.00140  -0.00017   0.00124  -3.08558
    D5       -2.09438  -0.00904   0.00000   0.00000   0.00000  -2.09438
    D6        0.94006  -0.00112   0.00902   0.00727   0.01629   0.95635
    D7        0.86991  -0.00583  -0.00472   0.00337  -0.00134   0.86857
    D8       -2.37884   0.00209   0.00430   0.01065   0.01495  -2.36388
         Item               Value     Threshold  Converged?
 Maximum Force            0.000643     0.000450     NO 
 RMS     Force            0.000222     0.000300     YES
 Maximum Displacement     0.012507     0.001800     NO 
 RMS     Displacement     0.004297     0.001200     NO 
 Predicted change in Energy=-8.945581D-06
 GradGradGradGradGradGradGradGradGradGradGradGradGradGradGradGradGradGrad

 Leave Link  103 at Wed May 12 11:58:29 2021, MaxMem=  2147483648 cpu:         0.0
 (Enter /opt/cluster/programs/g09_d.01/g09/l202.exe)
                          Input orientation:                          
 ---------------------------------------------------------------------
 Center     Atomic      Atomic             Coordinates (Angstroms)
 Number     Number       Type             X           Y           Z
 ---------------------------------------------------------------------
      1          6           0        1.701676    0.178226    0.196816
      2          6           0        0.592439   -0.426816   -0.242816
[...]

 Cycle  10  Pass 1  IDiag  1:
 E= -191.786255995814     Delta-E=       -0.000000000002 Rises=F Damp=F
 DIIS: error= 2.01D-08 at cycle  10 NSaved=  10.
 NSaved=10 IEnMin=10 EnMin= -191.786255995814     IErMin=10 ErrMin= 2.01D-08
 ErrMax= 2.01D-08  0.00D+00 EMaxC= 1.00D-01 BMatC= 1.64D-14 BMatP= 4.44D-13
 IDIUse=1 WtCom= 1.00D+00 WtEn= 0.00D+00
 Coeff-Com:  0.105D-03-0.347D-03-0.935D-03-0.114D-02 0.281D-02 0.222D-01
 Coeff-Com: -0.126D-01-0.120D+00-0.559D-01 0.117D+01
 Coeff:      0.105D-03-0.347D-03-0.935D-03-0.114D-02 0.281D-02 0.222D-01
 Coeff:     -0.126D-01-0.120D+00-0.559D-01 0.117D+01
 Gap=     0.355 Goal=   None    Shift=    0.000
 RMSDP=1.18D-08 MaxDP=1.00D-07 DE=-2.27D-12 OVMax= 1.92D-07

 Cycle  11  Pass 1  IDiag  1:
 E= -191.786255995814     Delta-E=        0.000000000000 Rises=F Damp=F
 DIIS: error= 3.55D-09 at cycle  11 NSaved=  11.
 NSaved=11 IEnMin=10 EnMin= -191.786255995814     IErMin=11 ErrMin= 3.55D-09
 ErrMax= 3.55D-09  0.00D+00 EMaxC= 1.00D-01 BMatC= 4.42D-16 BMatP= 1.64D-14
 IDIUse=1 WtCom= 1.00D+00 WtEn= 0.00D+00
 Coeff-Com: -0.132D-04 0.968D-04 0.775D-04-0.282D-03-0.886D-03 0.109D-02
 Coeff-Com:  0.346D-02 0.315D-02-0.217D-01-0.158D+00 0.117D+01
 Coeff:     -0.132D-04 0.968D-04 0.775D-04-0.282D-03-0.886D-03 0.109D-02
 Coeff:      0.346D-02 0.315D-02-0.217D-01-0.158D+00 0.117D+01
 Gap=     0.355 Goal=   None    Shift=    0.000
 RMSDP=3.87D-09 MaxDP=4.91D-08 DE= 4.55D-13 OVMax= 4.22D-08

 SCF Done:  E(RwB97XD) =  -191.786255996     A.U. after   11 cycles
            NFock= 11  Conv=0.39D-08     -V/T= 2.0058
 KE= 1.906777964078D+02 PE=-6.525403803279D+02 EE= 1.675004210002D+02
 Leave Link  502 at Wed May 12 11:58:34 2021, MaxMem=  2147483648 cpu:         7.4
 (Enter /opt/cluster/programs/g09_d.01/g09/l701.exe)
 Compute integral first derivatives.
 ... and contract with generalized density number  0.
 R6Disp: Adding Grimme-D2 dispersion energy 1st derivatives to the gradient.
 Leave Link  701 at Wed May 12 11:58:34 2021, MaxMem=  2147483648 cpu:         0.5
 (Enter /opt/cluster/programs/g09_d.01/g09/l702.exe)
 L702 exits ... SP integral derivatives will be done elsewhere.
 Leave Link  702 at Wed May 12 11:58:34 2021, MaxMem=  2147483648 cpu:         0.1
 (Enter /opt/cluster/programs/g09_d.01/g09/l703.exe)
 Compute integral first derivatives, UseDBF=F ICtDFT=           0.
 Integral derivatives from FoFJK, PRISM(SPDF).
 Calling FoFJK, ICntrl=      2127 FMM=F ISym2X=0 I1Cent= 0 IOpClX= 0 NMat=1 NMatS=1 NMatT=0.
 FoFJK:  IHMeth= 1 ICntrl=    2127 DoSepK=T KAlg= 0 I1Cent=   0 FoldK=F
 IRaf=         1 NMat=   1 IRICut=       1 DoRegI=T DoRafI=F ISym2E= 0.
 FoFCou: FMM=F IPFlag=           0 FMFlag=      100000 FMFlg1=         800
         NFxFlg=           0 DoJE=F BraDBF=F KetDBF=F FulRan=T
         wScrn=  0.000000 ICntrl=    2527 IOpCl=  0 I1Cent=           0 NGrid=           0
         NMat0=    1 NMatS0=      1 NMatT0=    0 NMatD0=    1 NMtDS0=    0 NMtDT0=    0
 Symmetry not used in FoFCou.
 Leave Link  703 at Wed May 12 11:58:34 2021, MaxMem=  2147483648 cpu:         2.4
 (Enter /opt/cluster/programs/g09_d.01/g09/l716.exe)
 Dipole        =-1.19815164D+00 2.69452186D-01 4.53487564D-01
 ***** Axes restored to original set *****
 -------------------------------------------------------------------
 Center     Atomic                   Forces (Hartrees/Bohr)
 Number     Number              X              Y              Z
 -------------------------------------------------------------------
      1        6           0.001277203    0.001958589   -0.006023930
      2        6          -0.002786304   -0.004664366    0.006274845
      3        6           0.003484542    0.006685878    0.005198353
      4        8          -0.001982277   -0.003975839   -0.005498684
      5        1           0.000009503    0.000007931   -0.000006984
      6        1          -0.000004169   -0.000002152    0.000014735
      7        1          -0.000005692    0.000000664    0.000020439
      8        1           0.000007194   -0.000010705    0.000021225
 -------------------------------------------------------------------
 Cartesian Forces:  Max     0.006685878 RMS     0.003191709
 Leave Link  716 at Wed May 12 11:58:34 2021, MaxMem=  2147483648 cpu:         0.1
 (Enter /opt/cluster/programs/g09_d.01/g09/l103.exe)

 GradGradGradGradGradGradGradGradGradGradGradGradGradGradGradGradGradGrad
 Berny optimization.
 Using GEDIIS/GDIIS optimizer.
 FormGI is forming the generalized inverse of G from B-inverse, IUseBI=4.
 Internal  Forces:  Max     0.008578993 RMS     0.002224580
 Search for a local minimum.
 Step number   5 out of a maximum of   34
 All quantities printed in internal units (Hartrees-Bohrs-Radians)
 RMS Force = .18425D-04 SwitMx=.10000D-02 MixMth= 2
 Mixed Optimization -- En-DIIS/RFO-DIIS
 Swapping is turned off.
 Update second derivatives using D2CorX and points    1    2    3    4    5
 DE= -1.40D-06 DEPred=-1.43D-06 R= 9.80D-01
 TightC=F SS=  1.41D+00  RLast= 7.74D-03 DXNew= 2.5227D-01 2.3215D-02
 Trust test= 9.80D-01 RLast= 7.74D-03 DXMaxT set to 1.50D-01
 ITU=  1  1 -1  1  0
     Eigenvalues ---    0.01366   0.02837   0.03716   0.05071   0.13795
     Eigenvalues ---    0.15904   0.16000   0.16099   0.21349   0.22735
     Eigenvalues ---    0.32099   0.33430   0.34986   0.35038   0.35370
     Eigenvalues ---    0.61357   0.794371000.000001000.000001000.00000
     Eigenvalues --- 1000.000001000.000001000.000001000.00000
 En-DIIS/RFO-DIIS IScMMF=        0 using points:     5    4    3    2
 RFO step:  Lambda=-3.77417242D-06.
 NNeg= 0 NP= 4 Switch=  2.50D-03 Rises=F DC= -8.36D-07 SmlDif=  1.00D-05
 RMS Error=  0.8828427528D-04 NUsed= 4 EDIIS=F
 DidBck=F Rises=F RFO-DIIS coefs:    0.93424    0.03115    0.01315    0.02146
 Iteration  1 RMS(Cart)=  0.00025076 RMS(Int)=  0.00000110
 Iteration  2 RMS(Cart)=  0.00000008 RMS(Int)=  0.00000109
 Iteration  1 RMS(Cart)=  0.00000084 RMS(Int)=  0.00000060
 ITry= 1 IFail=0 DXMaxC= 5.38D-04 DCOld= 1.00D+10 DXMaxT= 1.50D-01 DXLimC= 3.00D+00 Rises=F
 Variable       Old X    -DE/DX   Delta X   Delta X   Delta X     New X
                                 (Linear)    (Quad)   (Total)
    R1        2.52812  -0.00004  -0.00003  -0.00003  -0.00006   2.52806
    R2        2.04950   0.00000  -0.00001   0.00001   0.00000   2.04950
    R3        2.05518   0.00000  -0.00001   0.00002   0.00002   2.05520
    R4        2.80430  -0.00001  -0.00007   0.00002  -0.00005   2.80425
    R5        2.05503   0.00001  -0.00001   0.00003   0.00003   2.05506
    R6        2.33309   0.00004   0.00000   0.00009   0.00009   2.33318
    R7        2.08332   0.00001  -0.00004   0.00008   0.00004   2.08336
    A1        2.12235   0.00000  -0.00003   0.00002  -0.00001   2.12234
    A2        2.12583   0.00000   0.00001   0.00000   0.00001   2.12583
    A3        2.03501   0.00000   0.00002  -0.00002   0.00000   2.03501
    A4        2.11950   0.00011   0.00002  -0.00021  -0.00019   2.11931
    A5        2.11487   0.00056  -0.00003   0.00000  -0.00003   2.11484
    A6        2.03430  -0.00014   0.00000   0.00013   0.00014   2.03443
    A7        2.14411   0.00019  -0.00006   0.00004  -0.00001   2.14410
    A8        2.04362   0.00018   0.00010  -0.00016  -0.00005   2.04356
    A9        2.09166   0.00019  -0.00005   0.00010   0.00005   2.09171
    D1        3.00732   0.00169  -0.00007  -0.00048  -0.00056   3.00677
    D2        0.05428  -0.00171  -0.00003   0.00004   0.00000   0.05429
    D3       -0.13324   0.00172   0.00002   0.00028   0.00030  -0.13294
    D4       -3.08628  -0.00168   0.00006   0.00079   0.00086  -3.08542
    D5       -2.09438  -0.00858   0.00000   0.00000   0.00000  -2.09438
    D6        0.95343  -0.00167   0.00000  -0.00021  -0.00021   0.95322
    D7        0.86694  -0.00526  -0.00004  -0.00051  -0.00055   0.86639
    D8       -2.36843   0.00165  -0.00004  -0.00071  -0.00076  -2.36919
         Item               Value     Threshold  Converged?
 Maximum Force            0.000045     0.000450     YES
 RMS     Force            0.000018     0.000300     YES
 Maximum Displacement     0.000538     0.001800     YES
 RMS     Displacement     0.000251     0.001200     YES
 Predicted change in Energy=-3.765909D-08
 Optimization completed.
    -- Stationary point found.
                           ----------------------------
                           !   Optimized Parameters   !
                           ! (Angstroms and Degrees)  !
 --------------------------                            --------------------------
 ! Name  Definition              Value          Derivative Info.                !
 --------------------------------------------------------------------------------
 ! R1    R(1,2)                  1.3378         -DE/DX =    0.0                 !
 ! R2    R(1,6)                  1.0845         -DE/DX =    0.0                 !
 ! R3    R(1,7)                  1.0876         -DE/DX =    0.0                 !
 ! R4    R(2,3)                  1.484          -DE/DX =    0.0                 !
 ! R5    R(2,8)                  1.0875         -DE/DX =    0.0                 !
 ! R6    R(3,4)                  1.2346         -DE/DX =    0.0                 !
 ! R7    R(3,5)                  1.1024         -DE/DX =    0.0                 !
 ! A1    A(2,1,6)              121.6017         -DE/DX =    0.0                 !
 ! A2    A(2,1,7)              121.8009         -DE/DX =    0.0                 !
 ! A3    A(6,1,7)              116.5975         -DE/DX =    0.0                 !
 ! A4    A(1,2,3)              121.4385         -DE/DX =    0.0001              !
 ! A5    A(1,2,8)              121.1731         -DE/DX =    0.0006              !
 ! A6    A(3,2,8)              116.5566         -DE/DX =   -0.0001              !
 ! A7    A(2,3,4)              122.8486         -DE/DX =    0.0002              !
 ! A8    A(2,3,5)              117.0905         -DE/DX =    0.0002              !
 ! A9    A(4,3,5)              119.8435         -DE/DX =    0.0002              !
 ! D1    D(6,1,2,3)            172.3068         -DE/DX =    0.0017              !
 ! D2    D(6,1,2,8)              3.1103         -DE/DX =   -0.0017              !
 ! D3    D(7,1,2,3)             -7.6342         -DE/DX =    0.0017              !
 ! D4    D(7,1,2,8)           -176.8307         -DE/DX =   -0.0017              !
 ! D5    D(1,2,3,4)           -119.9992         -DE/DX =   -0.0086              !
 ! D6    D(1,2,3,5)             54.6275         -DE/DX =   -0.0017              !
 ! D7    D(8,2,3,4)             49.6722         -DE/DX =   -0.0053              !
 ! D8    D(8,2,3,5)           -135.7011         -DE/DX =    0.0016              !
 --------------------------------------------------------------------------------
 Lowest energy point so far.  Saving SCF results.
 GradGradGradGradGradGradGradGradGradGradGradGradGradGradGradGradGradGrad

 Largest change from initial coordinates is atom    5       0.010 Angstoms.
 Leave Link  103 at Wed May 12 11:58:34 2021, MaxMem=  2147483648 cpu:         0.1
 (Enter /opt/cluster/programs/g09_d.01/g09/l202.exe)
                          Input orientation:                          
 ---------------------------------------------------------------------
 Center     Atomic      Atomic             Coordinates (Angstroms)
 Number     Number       Type             X           Y           Z
 ---------------------------------------------------------------------
      1          6           0        1.701195    0.178152    0.197536
      2          6           0        0.592263   -0.426885   -0.242888
      3          6           0       -0.709093    0.284437   -0.294556
      4          8           0       -1.704890   -0.094970    0.328919
      5          1           0       -0.739169    1.236483   -0.849613
      6          1           0        2.624134   -0.369856    0.352824
      7          1           0        1.723849    1.242694    0.418931
      8          1           0        0.566450   -1.500732   -0.412551
 ---------------------------------------------------------------------
                    Distance matrix (angstroms):
                    1          2          3          4          5
     1  C    0.000000
     2  C    1.337824   0.000000
     3  C    2.462304   1.483974   0.000000
     4  O    3.419543   2.390407   1.234619   0.000000
     5  H    2.858664   2.215315   1.102444   2.023443   0.000000
     6  H    1.084547   2.118165   3.457977   4.337809   3.916374
     7  H    1.087557   2.122731   2.710448   3.681536   2.770506
     8  H    2.116247   1.087473   2.197217   2.772171   3.063986
                    6          7          8
     6  H    0.000000
     7  H    1.848026   0.000000
     8  H    2.469563   3.091492   0.000000
 Stoichiometry    C3H4O
 Framework group  C1[X(C3H4O)]
 Deg. of freedom    18
 Full point group                 C1      NOp   1
 RotChk:  IX=0 Diff= 6.17D-16
 Largest Abelian subgroup         C1      NOp   1
 Largest concise Abelian subgroup C1      NOp   1
                         Standard orientation:                         
 ---------------------------------------------------------------------
 Center     Atomic      Atomic             Coordinates (Angstroms)
 Number     Number       Type             X           Y           Z
 ---------------------------------------------------------------------
      1          6           0       -1.698894    0.185001   -0.193621
      2          6           0       -0.592818   -0.428807    0.241820
      3          6           0        0.711469    0.276532    0.301064
      4          8           0        1.706110   -0.101156   -0.325295
      5          1           0        0.745139    1.223169    0.865092
      6          1           0       -2.624009   -0.357642   -0.354687
      7          1           0       -1.716933    1.251668   -0.404985
      8          1           0       -0.571623   -1.504304    0.401368
 ---------------------------------------------------------------------
 Rotational constants (GHZ):     35.3887834      4.7180287      4.5443394
 Leave Link  202 at Wed May 12 11:58:34 2021, MaxMem=  2147483648 cpu:         0.0
 (Enter /opt/cluster/programs/g09_d.01/g09/l601.exe)
 Copying SCF densities to generalized density rwf, IOpCl= 0 IROHF=0.

 **********************************************************************

            Population analysis using the SCF density.

 **********************************************************************

 Orbital symmetries:
       Occupied  (A) (A) (A) (A) (A) (A) (A) (A) (A) (A) (A) (A)
                 (A) (A) (A)
       Virtual   (A) (A) (A) (A) (A) (A) (A) (A) (A) (A) (A) (A)
                 (A) (A) (A) (A) (A) (A) (A) (A) (A) (A) (A) (A)
                 (A) (A) (A) (A) (A) (A) (A) (A) (A) (A) (A) (A)
                 (A) (A) (A) (A) (A) (A) (A) (A) (A)
 The electronic state is 1-A.
 Alpha  occ. eigenvalues --  -19.29401 -10.41097 -10.33245 -10.33106  -1.17733
 Alpha  occ. eigenvalues --   -0.91502  -0.75933  -0.67767  -0.59009  -0.57178
 Alpha  occ. eigenvalues --   -0.53161  -0.49226  -0.47433  -0.37959  -0.35482
 Alpha virt. eigenvalues --   -0.00026   0.06397   0.07589   0.08840   0.08985
 Alpha virt. eigenvalues --    0.11175   0.12575   0.13060   0.14685   0.16322
 Alpha virt. eigenvalues --    0.17166   0.17810   0.19789   0.22701   0.27327
 Alpha virt. eigenvalues --    0.28225   0.28952   0.31098   0.32798   0.34458
 Alpha virt. eigenvalues --    0.36891   0.39963   0.43157   0.45814   0.50186
 Alpha virt. eigenvalues --    0.69712   0.72022   0.75144   0.79659   0.80475
 Alpha virt. eigenvalues --    0.85089   0.88644   0.92369   1.00902   1.05552
 Alpha virt. eigenvalues --    1.09768   1.13149   1.14675   1.23753   1.26801
 Alpha virt. eigenvalues --    1.33580   1.34568   1.38507   1.43103   1.88274
          Condensed to atoms (all electrons):
               1          2          3          4          5          6
     1  C    5.228342   0.372698   0.024222  -0.009532   0.029682   0.354052
     2  C    0.372698   5.427520   0.250290  -0.119792  -0.122491  -0.005306
     3  C    0.024222   0.250290   5.059700   0.278113   0.360882   0.007498
     4  O   -0.009532  -0.119792   0.278113   8.305434  -0.067805  -0.000507
     5  H    0.029682  -0.122491   0.360882  -0.067805   0.613216  -0.000078
     6  H    0.354052  -0.005306   0.007498  -0.000507  -0.000078   0.461554
     7  H    0.390956  -0.060334   0.010610   0.000503   0.000751  -0.022324
     8  H   -0.009094   0.352213  -0.016334  -0.003103   0.001441  -0.003936
               7          8
     1  C    0.390956  -0.009094
     2  C   -0.060334   0.352213
     3  C    0.010610  -0.016334
     4  O    0.000503  -0.003103
     5  H    0.000751   0.001441
     6  H   -0.022324  -0.003936
     7  H    0.473411   0.002517
     8  H    0.002517   0.439241
 Mulliken charges:
               1
     1  C   -0.381326
     2  C   -0.094797
     3  C    0.025020
     4  O   -0.383311
     5  H    0.184402
     6  H    0.209048
     7  H    0.203910
     8  H    0.237055
 Sum of Mulliken charges =   0.00000
 Mulliken charges with hydrogens summed into heavy atoms:
               1
     1  C    0.031632
     2  C    0.142258
     3  C    0.209421
     4  O   -0.383311
 Electronic spatial extent (au):  <R**2>=            294.5866
 Charge=              0.0000 electrons
 Dipole moment (field-independent basis, Debye):
    X=             -3.0454    Y=              0.6849    Z=              1.1527  Tot=              3.3275
 Quadrupole moment (field-independent basis, Debye-Ang):
   XX=            -27.6766   YY=            -21.7559   ZZ=            -25.3021
   XY=              1.0696   XZ=              3.0917   YZ=             -0.5740
 Traceless Quadrupole moment (field-independent basis, Debye-Ang):
   XX=             -2.7651   YY=              3.1557   ZZ=             -0.3906
   XY=              1.0696   XZ=              3.0917   YZ=             -0.5740
 Octapole moment (field-independent basis, Debye-Ang**2):
  XXX=            -13.4208  YYY=             -0.2616  ZZZ=             -0.7037  XYY=              0.0934
  XXY=              0.3370  XXZ=              0.2947  XZZ=              3.6501  YZZ=              0.6965
  YYZ=              0.6892  XYZ=              0.5143
 Hexadecapole moment (field-independent basis, Debye-Ang**3):
 XXXX=           -292.6534 YYYY=            -50.8969 ZZZZ=            -42.4285 XXXY=              3.4485
 XXXZ=             10.5779 YYYX=              0.2990 YYYZ=             -1.4442 ZZZX=             -0.1564
 ZZZY=             -0.0208 XXYY=            -54.9584 XXZZ=            -57.7495 YYZZ=            -16.1044
 XXYZ=             -0.7931 YYXZ=              1.1725 ZZXY=              0.3242
 N-N= 1.025759069241D+02 E-N=-6.525403803718D+02  KE= 1.906777964078D+02
 No NMR shielding tensors so no spin-rotation constants.
 Leave Link  601 at Wed May 12 11:58:34 2021, MaxMem=  2147483648 cpu:         0.5
 (Enter /opt/cluster/programs/g09_d.01/g09/l9999.exe)
 1\1\GINC-NODE15\FOpt\RwB97XD\6-31+G\C3H4O1\BOITTIER\12-May-2021\0\\#p 
 wB97XD/6-31+G Opt=ModRedun\\L.pdb\\0,1\C,1.7011948967,0.1781517674,0.1
 975356264\C,0.59226318,-0.4268853705,-0.2428875241\C,-0.7090930033,0.2
 844373148,-0.2945564812\O,-1.704890208,-0.0949702414,0.3289190008\H,-0
 .7391688127,1.2364830487,-0.8496128659\H,2.6241339861,-0.369855621,0.3
 528243903\H,1.7238494995,1.2426940758,0.4189311126\H,0.5664504618,-1.5
 007319738,-0.4125512589\\Version=ES64L-G09RevD.01\State=1-A\HF=-191.78
 6256\RMSD=3.872e-09\RMSF=3.192e-03\Dipole=1.1989678,0.2686954,-0.45177
 63\Quadrupole=-2.0592782,2.3446511,-0.2853729,-0.7981262,2.2941462,0.4
 425122\PG=C01 [X(C3H4O1)]\\@



 IN THIS SHORT LIFE

 THAT ONLY LASTS AN HOUR

 HOW MUCH, HOW LITTLE, IS WITHIN OUR POWER....


 EMILY DICKINSON BOLTS OF MELODY NO. 521
 Job cpu time:       0 days  0 hours  1 minutes 21.8 seconds.
 File lengths (MBytes):  RWF=      5 Int=      0 D2E=      0 Chk=      2 Scr=      1
 Normal termination of Gaussian 09 at Wed May 12 11:58:34 2021.
