L.pdb                                                                   
Freq      RwB97XD                                                     6-31+G              
Number of atoms                            I                8
Info1-9                                    I   N=           9
          17          17        1002           0           0         100
           6          18        -802
Charge                                     I                0
Multiplicity                               I                1
Number of electrons                        I               30
Number of alpha electrons                  I               15
Number of beta electrons                   I               15
Number of basis functions                  I               60
Number of independent functions            I               60
Number of point charges in /Mol/           I                0
Number of translation vectors              I                0
Atomic numbers                             I   N=           8
           6           6           6           8           1           1
           1           1
Nuclear charges                            R   N=           8
  6.00000000E+00  6.00000000E+00  6.00000000E+00  8.00000000E+00  1.00000000E+00
  1.00000000E+00  1.00000000E+00  1.00000000E+00
Current cartesian coordinates              R   N=          24
  3.34286731E+00  2.58979215E-01  3.49556991E-05  1.06242224E+00 -8.41655266E-01
 -3.34942736E-05 -1.26311471E+00  6.77074881E-01 -1.29791913E-04 -3.41237139E+00
 -2.38265005E-01  6.93677869E-05 -1.00396594E+00  2.74683046E+00  1.24136942E-04
  5.07771070E+00 -8.31469457E-01  8.97086521E-05  3.54259946E+00  2.30552150E+00
  3.33712252E-05  8.29577911E-01 -2.88115544E+00 -3.21761881E-05
Force Field                                I                0
Int Atom Types                             I   N=           8
           0           0           0           0           0           0
           0           0
MM charges                                 R   N=           8
  0.00000000E+00  0.00000000E+00  0.00000000E+00  0.00000000E+00  0.00000000E+00
  0.00000000E+00  0.00000000E+00  0.00000000E+00
Integer atomic weights                     I   N=           8
          12          12          12          16           1           1
           1           1
Real atomic weights                        R   N=           8
  1.20000000E+01  1.20000000E+01  1.20000000E+01  1.59949146E+01  1.00782504E+00
  1.00782504E+00  1.00782504E+00  1.00782504E+00
Atom fragment info                         I   N=           8
           0           0           0           0           0           0
           0           0
Atom residue num                           I   N=           8
           0           0           0           0           0           0
           0           0
Nuclear spins                              I   N=           8
           0           0           0           0           1           1
           1           1
Nuclear ZEff                               R   N=           8
 -3.60000000E+00 -3.60000000E+00 -3.60000000E+00 -5.60000000E+00 -1.00000000E+00
 -1.00000000E+00 -1.00000000E+00 -1.00000000E+00
Nuclear ZNuc                               R   N=           8
  6.00000000E+00  6.00000000E+00  6.00000000E+00  8.00000000E+00  1.00000000E+00
  1.00000000E+00  1.00000000E+00  1.00000000E+00
Nuclear QMom                               R   N=           8
  0.00000000E+00  0.00000000E+00  0.00000000E+00  0.00000000E+00  0.00000000E+00
  0.00000000E+00  0.00000000E+00  0.00000000E+00
Nuclear GFac                               R   N=           8
  0.00000000E+00  0.00000000E+00  0.00000000E+00  0.00000000E+00  2.79284600E+00
  2.79284600E+00  2.79284600E+00  2.79284600E+00
MicOpt                                     I   N=           8
          -1          -1          -1          -1          -1          -1
          -1          -1
Number of contracted shells                I               24
Number of primitive shells                 I               60
Pure/Cartesian d shells                    I                1
Pure/Cartesian f shells                    I                0
Highest angular momentum                   I                1
Largest degree of contraction              I                6
Shell types                                I   N=          24
           0          -1          -1          -1           0          -1
          -1          -1           0          -1          -1          -1
           0          -1          -1          -1           0           0
           0           0           0           0           0           0
Number of primitives per shell             I   N=          24
           6           3           1           1           6           3
           1           1           6           3           1           1
           6           3           1           1           3           1
           3           1           3           1           3           1
Shell to atom map                          I   N=          24
           1           1           1           1           2           2
           2           2           3           3           3           3
           4           4           4           4           5           5
           6           6           7           7           8           8
Primitive exponents                        R   N=          60
  3.04752488E+03  4.57369518E+02  1.03948685E+02  2.92101553E+01  9.28666296E+00
  3.16392696E+00  7.86827235E+00  1.88128854E+00  5.44249258E-01  1.68714478E-01
  4.38000000E-02  3.04752488E+03  4.57369518E+02  1.03948685E+02  2.92101553E+01
  9.28666296E+00  3.16392696E+00  7.86827235E+00  1.88128854E+00  5.44249258E-01
  1.68714478E-01  4.38000000E-02  3.04752488E+03  4.57369518E+02  1.03948685E+02
  2.92101553E+01  9.28666296E+00  3.16392696E+00  7.86827235E+00  1.88128854E+00
  5.44249258E-01  1.68714478E-01  4.38000000E-02  5.48467166E+03  8.25234946E+02
  1.88046958E+02  5.29645000E+01  1.68975704E+01  5.79963534E+00  1.55396162E+01
  3.59993359E+00  1.01376175E+00  2.70005823E-01  8.45000000E-02  1.87311370E+01
  2.82539436E+00  6.40121692E-01  1.61277759E-01  1.87311370E+01  2.82539436E+00
  6.40121692E-01  1.61277759E-01  1.87311370E+01  2.82539436E+00  6.40121692E-01
  1.61277759E-01  1.87311370E+01  2.82539436E+00  6.40121692E-01  1.61277759E-01
Contraction coefficients                   R   N=          60
  1.83473713E-03  1.40373228E-02  6.88426223E-02  2.32184443E-01  4.67941348E-01
  3.62311985E-01 -1.19332420E-01 -1.60854152E-01  1.14345644E+00  1.00000000E+00
  1.00000000E+00  1.83473713E-03  1.40373228E-02  6.88426223E-02  2.32184443E-01
  4.67941348E-01  3.62311985E-01 -1.19332420E-01 -1.60854152E-01  1.14345644E+00
  1.00000000E+00  1.00000000E+00  1.83473713E-03  1.40373228E-02  6.88426223E-02
  2.32184443E-01  4.67941348E-01  3.62311985E-01 -1.19332420E-01 -1.60854152E-01
  1.14345644E+00  1.00000000E+00  1.00000000E+00  1.83107443E-03  1.39501722E-02
  6.84450781E-02  2.32714336E-01  4.70192898E-01  3.58520853E-01 -1.10777550E-01
 -1.48026263E-01  1.13076702E+00  1.00000000E+00  1.00000000E+00  3.34946043E-02
  2.34726953E-01  8.13757326E-01  1.00000000E+00  3.34946043E-02  2.34726953E-01
  8.13757326E-01  1.00000000E+00  3.34946043E-02  2.34726953E-01  8.13757326E-01
  1.00000000E+00  3.34946043E-02  2.34726953E-01  8.13757326E-01  1.00000000E+00
P(S=P) Contraction coefficients            R   N=          60
  0.00000000E+00  0.00000000E+00  0.00000000E+00  0.00000000E+00  0.00000000E+00
  0.00000000E+00  6.89990666E-02  3.16423961E-01  7.44308291E-01  1.00000000E+00
  1.00000000E+00  0.00000000E+00  0.00000000E+00  0.00000000E+00  0.00000000E+00
  0.00000000E+00  0.00000000E+00  6.89990666E-02  3.16423961E-01  7.44308291E-01
  1.00000000E+00  1.00000000E+00  0.00000000E+00  0.00000000E+00  0.00000000E+00
  0.00000000E+00  0.00000000E+00  0.00000000E+00  6.89990666E-02  3.16423961E-01
  7.44308291E-01  1.00000000E+00  1.00000000E+00  0.00000000E+00  0.00000000E+00
  0.00000000E+00  0.00000000E+00  0.00000000E+00  0.00000000E+00  7.08742682E-02
  3.39752839E-01  7.27158577E-01  1.00000000E+00  1.00000000E+00  0.00000000E+00
  0.00000000E+00  0.00000000E+00  0.00000000E+00  0.00000000E+00  0.00000000E+00
  0.00000000E+00  0.00000000E+00  0.00000000E+00  0.00000000E+00  0.00000000E+00
  0.00000000E+00  0.00000000E+00  0.00000000E+00  0.00000000E+00  0.00000000E+00
Coordinates of each shell                  R   N=          72
  3.34286731E+00  2.58979215E-01  3.49556991E-05  3.34286731E+00  2.58979215E-01
  3.49556991E-05  3.34286731E+00  2.58979215E-01  3.49556991E-05  3.34286731E+00
  2.58979215E-01  3.49556991E-05  1.06242224E+00 -8.41655266E-01 -3.34942736E-05
  1.06242224E+00 -8.41655266E-01 -3.34942736E-05  1.06242224E+00 -8.41655266E-01
 -3.34942736E-05  1.06242224E+00 -8.41655266E-01 -3.34942736E-05 -1.26311471E+00
  6.77074881E-01 -1.29791913E-04 -1.26311471E+00  6.77074881E-01 -1.29791913E-04
 -1.26311471E+00  6.77074881E-01 -1.29791913E-04 -1.26311471E+00  6.77074881E-01
 -1.29791913E-04 -3.41237139E+00 -2.38265005E-01  6.93677869E-05 -3.41237139E+00
 -2.38265005E-01  6.93677869E-05 -3.41237139E+00 -2.38265005E-01  6.93677869E-05
 -3.41237139E+00 -2.38265005E-01  6.93677869E-05 -1.00396594E+00  2.74683046E+00
  1.24136942E-04 -1.00396594E+00  2.74683046E+00  1.24136942E-04  5.07771070E+00
 -8.31469457E-01  8.97086521E-05  5.07771070E+00 -8.31469457E-01  8.97086521E-05
  3.54259946E+00  2.30552150E+00  3.33712252E-05  3.54259946E+00  2.30552150E+00
  3.33712252E-05  8.29577911E-01 -2.88115544E+00 -3.21761881E-05  8.29577911E-01
 -2.88115544E+00 -3.21761881E-05
Constraint Structure                       R   N=          24
  3.34286731E+00  2.58979215E-01  3.49556991E-05  1.06242224E+00 -8.41655266E-01
 -3.34942736E-05 -1.26311471E+00  6.77074881E-01 -1.29791913E-04 -3.41237139E+00
 -2.38265005E-01  6.93677869E-05 -1.00396594E+00  2.74683046E+00  1.24136942E-04
  5.07771070E+00 -8.31469457E-01  8.97086521E-05  3.54259946E+00  2.30552150E+00
  3.33712252E-05  8.29577911E-01 -2.88115544E+00 -3.21761881E-05
Num ILSW                                   I              100
ILSW                                       I   N=         100
           0           1           0           0           2           0
           0           0           0           0        4639          -1
           0           0           0           0           2           0
           0           0           0           0           1           0
           1           0           0           0           0           0
           0           0      100000           0          -1           0
           0           0           0           0           0           0
           0           0           0           1           0           0
           0           0           1           0           0           0
           0           0         121          41           0           0
           0           0          58           0           0           0
           0           0           0           8           0           0
           0           0           0           0           0           0
           0           0           0           0           0           0
           0           0           0           0           0           0
           0           0           0           0           0           0
           0           0           0           0
Num RLSW                                   I               41
RLSW                                       R   N=          41
  1.00000000E+00  1.00000000E+00  1.00000000E+00  1.00000000E+00  1.00000000E+00
  0.00000000E+00  2.00000000E-01  2.22036000E-01  0.00000000E+00  7.77964000E-01
  0.00000000E+00  2.00000000E-01  0.00000000E+00  0.00000000E+00  1.00000000E+00
  0.00000000E+00  0.00000000E+00  1.00000000E+00  0.00000000E+00  0.00000000E+00
  0.00000000E+00  0.00000000E+00  1.00000000E+00  0.00000000E+00  0.00000000E+00
  0.00000000E+00  0.00000000E+00  1.00000000E+00  0.00000000E+00  0.00000000E+00
  0.00000000E+00  0.00000000E+00  1.00000000E+00  0.00000000E+00  0.00000000E+00
  0.00000000E+00  0.00000000E+00  0.00000000E+00  1.00000000E+00  1.00000000E+00
  0.00000000E+00
MxBond                                     I                3
NBond                                      I   N=           8
           3           3           3           1           1           1
           1           1
IBond                                      I   N=          24
           2           6           7           1           3           8
           2           4           5           3           0           0
           3           0           0           1           0           0
           1           0           0           2           0           0
RBond                                      R   N=          24
  2.00000000E+00  1.00000000E+00  1.00000000E+00  2.00000000E+00  1.00000000E+00
  1.00000000E+00  1.00000000E+00  2.00000000E+00  1.00000000E+00  2.00000000E+00
  0.00000000E+00  0.00000000E+00  1.00000000E+00  0.00000000E+00  0.00000000E+00
  1.00000000E+00  0.00000000E+00  0.00000000E+00  1.00000000E+00  0.00000000E+00
  0.00000000E+00  1.00000000E+00  0.00000000E+00  0.00000000E+00
Virial Ratio                               R      2.005792609666724E+00
SCF Energy                                 R     -1.917957010991775E+02
Total Energy                               R     -1.917957010991775E+02
RMS Force                                  R      4.468325456002843E-05
RMS Density                                R      1.646155013016786E-09
External E-field                           R   N=          35
  0.00000000E+00  0.00000000E+00  0.00000000E+00  0.00000000E+00  0.00000000E+00
  0.00000000E+00  0.00000000E+00  0.00000000E+00  0.00000000E+00  0.00000000E+00
  0.00000000E+00  0.00000000E+00  0.00000000E+00  0.00000000E+00  0.00000000E+00
  0.00000000E+00  0.00000000E+00  0.00000000E+00  0.00000000E+00  0.00000000E+00
  0.00000000E+00  0.00000000E+00  0.00000000E+00  0.00000000E+00  0.00000000E+00
  0.00000000E+00  0.00000000E+00  0.00000000E+00  0.00000000E+00  0.00000000E+00
  0.00000000E+00  0.00000000E+00  0.00000000E+00  0.00000000E+00  0.00000000E+00
IOpCl                                      I                0
IROHF                                      I                0
Alpha Orbital Energies                     R   N=          60
 -1.92884377E+01 -1.04059422E+01 -1.03399180E+01 -1.03328514E+01 -1.17174120E+00
 -9.20948422E-01 -7.59833801E-01 -6.82722463E-01 -5.84348944E-01 -5.75986912E-01
 -5.13236771E-01 -4.98487535E-01 -4.88728827E-01 -3.82191358E-01 -3.53646753E-01
 -1.28959009E-02  6.94928890E-02  8.34624207E-02  8.52025749E-02  9.26236635E-02
  1.20629507E-01  1.24706413E-01  1.27382288E-01  1.48715090E-01  1.54933997E-01
  1.77368690E-01  1.88184348E-01  2.01966827E-01  2.20910905E-01  2.61196604E-01
  2.85878536E-01  2.90769813E-01  3.30182708E-01  3.32142051E-01  3.47072347E-01
  3.63984658E-01  3.86097179E-01  4.39267674E-01  4.74613388E-01  4.94383549E-01
  7.09469797E-01  7.16439777E-01  7.69940366E-01  7.71237225E-01  8.04196469E-01
  8.64965879E-01  8.81295705E-01  9.80972454E-01  1.02513746E+00  1.08439278E+00
  1.09660014E+00  1.12877018E+00  1.21006385E+00  1.24108873E+00  1.30225513E+00
  1.31251158E+00  1.37218622E+00  1.40299320E+00  1.46559867E+00  1.93104753E+00
Alpha MO coefficients                      R   N=        3600
 -2.07190438E-05 -2.43511162E-04  2.97998351E-04 -1.19177470E-04  3.54965317E-08
 -2.06949465E-03 -9.06994274E-04  1.79260091E-03 -6.78289807E-08  3.18379232E-03
 -9.07495888E-04 -3.75437700E-04 -1.07006318E-08  3.70508042E-05  1.45424208E-04
  3.76061276E-05 -1.40845533E-04 -5.19221561E-09 -1.82105111E-03  3.69212383E-03
  1.41951499E-03 -1.44679425E-08  8.72859861E-03 -3.85102959E-03  1.05159965E-03
  1.09761761E-07  1.97989171E-04  1.19711743E-04  2.01274033E-05  1.94269531E-04
  4.49514826E-08  8.84682563E-03 -5.66676455E-03 -5.68500127E-03  4.13751972E-07
 -1.63030844E-02 -8.78564245E-04  3.38392584E-03 -7.26494247E-07  9.95230572E-01
  2.95462532E-02  2.05330302E-03  7.87022231E-04 -2.08954768E-07 -2.22894905E-02
 -5.11470570E-03 -1.49483182E-03  4.86807238E-07  7.98063681E-03  7.22280328E-04
 -1.80662880E-04  1.94304178E-07 -1.95612620E-05  1.92336697E-03  1.86310607E-04
  1.29504291E-03 -2.07717632E-04 -5.98801655E-04  2.86048771E-04  8.60769664E-04
  7.75178054E-06 -1.54784521E-04  1.29546725E-04 -4.42879929E-05  6.79795090E-10
 -1.73761312E-04 -3.47323315E-04  1.85039964E-04 -1.90108655E-08 -2.16032883E-02
  3.20717875E-03  3.36126875E-03  1.15133343E-07  1.90609985E-03 -6.32692637E-04
  4.63114082E-04 -4.20847379E-04  2.85257032E-08  5.51579198E-03 -2.93236879E-03
  1.95017248E-03 -2.53340227E-08  5.07679808E-03  1.30772626E-02  1.20320124E-03
  4.32847483E-07  9.95439152E-01  3.62138011E-02 -1.22672276E-03 -6.93235067E-04
  2.47194191E-07 -3.23729164E-02  6.27182184E-04  2.36115352E-03 -8.44523673E-07
  1.40551063E-02  2.62049257E-03 -4.92996058E-03 -1.46841014E-07 -1.23567845E-04
 -2.92596084E-05 -5.59146784E-04 -2.13507535E-04  4.57656322E-08  1.10471103E-03
  2.70113591E-04 -2.19794149E-04  8.99002990E-08  1.11506807E-02  5.76560209E-03
  2.17900616E-03 -3.14384885E-07 -5.49728839E-04  3.47220527E-03 -1.17807509E-05
  8.17601383E-04 -4.80609025E-05 -2.58609901E-04 -1.45870049E-04 -9.97981853E-05
  9.93581914E-01  3.51989034E-02 -3.89192941E-04 -1.05037620E-04 -5.48199529E-09
 -2.99859136E-02  3.39018403E-03  1.46955601E-03  1.09767413E-07  2.07141489E-02
 -6.32276134E-03 -3.70985802E-03 -1.00728939E-07  5.87415789E-02  8.48236351E-04
 -1.08208433E-03 -5.28195076E-04 -2.75309348E-08  7.24868098E-03  5.02312915E-03
  2.11726745E-03  1.65626512E-07  1.88847422E-02 -1.24300277E-02  6.51068571E-03
 -6.12345591E-07 -1.49725737E-04 -1.79336154E-04 -1.08329748E-04 -4.08508405E-05
  7.48512585E-09 -1.32844764E-03  1.59845942E-03  5.93440147E-04 -1.45596920E-07
 -3.96625779E-02 -9.70806178E-03  5.25559429E-03 -4.33891915E-07 -1.29470868E-05
 -1.90720276E-04 -5.17125256E-05 -2.46500472E-05  1.23942306E-08  9.76284138E-04
  7.41259439E-04  2.86584608E-04 -9.10919190E-08  3.79088167E-03  1.54719944E-03
 -9.98544702E-05 -6.33660623E-08 -2.27468700E-04  2.75932451E-04 -7.45359589E-04
  4.08666627E-03 -6.22045904E-04  3.81042040E-03 -1.84703045E-04  1.98505680E-04
 -5.89952058E-02 -3.45290945E-03  8.95140565E-04  4.44070871E-04  2.21113933E-08
  1.23443851E-02 -5.71475713E-03 -8.20684999E-04 -1.70991409E-07 -4.00128541E-02
  9.43155340E-03  3.07726140E-03  3.22511282E-07  9.93659775E-01  3.63804629E-02
  2.66314019E-04  6.70547714E-04 -7.61866151E-09 -3.59020017E-02 -1.01955237E-03
 -5.96974519E-03  3.52103056E-09  7.28807502E-02  2.36468577E-03  1.29257553E-02
 -1.03632113E-07 -1.88133336E-03 -8.46727585E-04 -5.06926716E-04  3.14597583E-04
 -2.97134015E-08  7.34224718E-03  5.23673785E-03 -1.48593820E-03  2.32512020E-07
 -3.22291259E-02 -7.10903985E-03  4.28991691E-03 -2.66226915E-07  3.10420273E-07
 -3.57806757E-05 -6.10235797E-05 -6.87494947E-05  7.08119614E-09  8.10815433E-05
  7.17769964E-05  5.77198967E-04 -7.94354377E-08  3.12802549E-03  6.52256395E-04
 -1.67772998E-04 -1.74182120E-07 -2.82150154E-04 -4.41884325E-04 -7.93630679E-05
  7.33573726E-04 -3.13568917E-04 -9.33603143E-04 -7.11116848E-04  2.22674558E-03
 -3.60392181E-03  9.61958961E-03 -7.18235213E-03 -1.30122427E-04 -2.37080586E-07
  1.89459300E-02  9.54158591E-03 -1.70760072E-02  5.81703885E-07  5.98094688E-02
 -1.04809651E-02 -5.61630841E-03  1.33400344E-07 -2.00857418E-02  3.73269518E-02
 -2.57403796E-02  1.04879842E-02  7.32360411E-08  2.05870062E-02 -2.62092570E-02
 -1.17020338E-02  1.94061855E-07 -1.12688475E-01 -2.26795939E-03 -2.05613664E-02
 -2.81536662E-06 -1.16250266E-01  2.38479671E-01 -1.68377458E-01 -7.91793193E-02
  1.79553047E-05  2.71798459E-02  6.06232451E-02  4.68485257E-02 -2.12736216E-06
  6.52955481E-02  2.59949138E-03 -8.03346522E-03  5.66781544E-06 -1.92408764E-01
  4.23345925E-01  1.67240155E-01  6.91560811E-02 -1.47576296E-05  4.28834987E-01
  7.35712032E-02  2.61982070E-02 -6.92399024E-06  2.46152242E-03  7.16538316E-03
  4.42958022E-03 -2.82350482E-06  2.79312161E-02 -2.47616400E-02 -3.83545399E-04
 -1.46423441E-02  3.36238568E-03  5.93928480E-03  6.06396439E-03 -5.01267525E-03
 -1.42073870E-01  2.73697893E-01 -1.00467185E-01 -3.77031683E-02 -3.00306041E-06
  2.18878114E-01 -1.78451494E-02  7.41680531E-03 -3.25468009E-07  1.46517449E-02
 -4.28925888E-03  4.71399344E-03 -3.00277583E-08 -1.60379566E-01  3.13187218E-01
  6.07593229E-02  7.13186084E-02  1.19212568E-06  2.05335619E-01 -2.16560361E-03
 -1.59709947E-02 -3.72671507E-07 -1.00367360E-01  1.94519277E-02 -3.16696626E-02
  7.41818012E-07 -5.42519890E-02  1.05928178E-01  1.36150667E-01 -1.52456421E-02
  1.89754135E-06  1.01042701E-01  3.33218482E-02  3.76503767E-03  2.55785083E-06
  8.70204524E-02  2.59890768E-02 -4.54198335E-03  1.07299801E-06  3.99389935E-02
 -9.25966920E-02 -4.68934228E-03 -1.62825157E-02  3.44735526E-06 -9.01790456E-02
 -5.01284574E-04 -2.06345052E-03 -1.65118408E-07 -4.37244021E-03 -7.23919358E-03
 -2.82197960E-03 -1.88200370E-07  3.40029373E-02  3.01936525E-03  6.87272072E-02
  1.46068130E-02  7.27655366E-02  6.63267223E-03  7.42939466E-02 -1.66534910E-03
 -1.33244824E-01  2.67994056E-01  6.99945713E-02 -9.61074309E-03  1.90068622E-06
  2.58293092E-01  3.39150624E-02 -8.28794901E-03  4.06745951E-07 -1.13751507E-01
  2.55467233E-02  1.63438635E-02  8.15293530E-07  5.40157709E-02 -1.09926302E-01
  2.21112296E-01 -2.85834625E-02  7.74791075E-06 -1.02854629E-01  3.63715729E-02
 -3.46850023E-03  2.39305434E-06  1.96367350E-02  6.79067628E-02  6.77464148E-05
  1.55264851E-06  1.16043803E-01 -2.44790242E-01 -1.71925589E-01 -1.87649508E-03
 -7.64179690E-06 -2.60816813E-01 -2.11611131E-02  3.02744960E-03 -4.67263042E-06
  9.49351483E-02  1.35213195E-02 -2.25157135E-02  1.76708113E-06 -6.72501937E-02
  1.55233504E-01 -5.13419803E-02  9.05567527E-04 -2.35177532E-06  2.07318522E-01
 -1.03915177E-02  6.44246110E-03 -1.46524755E-06  3.25212059E-02  1.11304358E-02
  4.89854287E-03 -9.74083108E-07 -1.01569987E-01 -3.52592815E-02  1.33619853E-01
  3.80365052E-02  1.06221885E-01  3.70273809E-02 -4.13514782E-02 -1.09378080E-02
 -4.78131174E-02  9.35385330E-02  7.55754957E-02  1.43801536E-01  2.91830739E-06
  1.11931623E-01  1.03929244E-02  4.65121370E-02  1.44147579E-06 -9.86318250E-02
  2.83666400E-02  1.10288818E-02  1.27392547E-06  9.47888892E-02 -1.91478257E-01
 -2.71489885E-03  1.83947034E-01  1.96690295E-06 -2.11165369E-01  1.24058968E-03
  6.15085299E-02 -6.32159555E-07  1.50194455E-01  5.90395052E-03  2.47901819E-02
 -8.11680238E-07 -8.30111711E-02  1.77133134E-01 -6.31819264E-04  2.38829476E-01
  1.71479828E-05  1.90426615E-01  1.63291269E-02  9.18855977E-02  7.69248036E-06
 -5.18217612E-02 -7.83899356E-03  2.03005079E-02  6.84631510E-07  3.61874435E-02
 -8.51480367E-02  1.69687543E-02  1.14250307E-01  3.88800769E-06 -1.03258753E-01
  7.66123717E-03  5.09227443E-02  3.94947942E-07 -7.92165878E-03 -3.27950243E-03
 -6.13699676E-03 -1.08701560E-06  1.83647563E-01  7.76743005E-02  3.93459882E-02
  2.32986461E-02  1.18999297E-01  6.07838046E-02 -1.70159322E-01 -6.97411748E-02
  1.36852407E-02 -2.54668347E-02 -1.00075959E-01 -2.83903552E-01  3.64782643E-07
 -6.47400203E-02 -1.83590460E-02 -1.14364769E-01  1.99439976E-06 -7.11069952E-02
  1.29435664E-03 -6.34641050E-04  5.02505897E-07 -2.08877885E-02  3.85660349E-02
  2.54488771E-01 -1.16057677E-01  1.60168611E-05  7.33976016E-02  6.41454114E-02
 -3.35343615E-02  2.51346155E-06  7.05648459E-02  4.18286107E-02  7.24654904E-03
 -5.82973054E-07 -1.95541333E-03  2.28408112E-03 -1.38372429E-01  3.06916650E-01
  2.12038224E-05  1.45890558E-02 -5.89898717E-02  1.38001138E-01  1.15428195E-05
  6.60060505E-03 -1.69377718E-02  1.13300047E-02  2.63637034E-06  3.21015558E-03
 -7.06458509E-03 -7.22274139E-02  1.96216827E-01  1.29816660E-05 -1.19739403E-02
 -3.93914618E-02  9.69424018E-02  6.46430096E-06 -8.66523459E-03 -2.46089733E-04
 -4.98532339E-03 -6.82745998E-07  1.46180035E-01  6.98617114E-02  1.94660605E-02
  6.21663028E-03 -1.78548326E-01 -9.84742448E-02  6.78126600E-02  3.69199424E-02
 -9.10180350E-03  1.60170671E-02  3.56207055E-01 -7.83986041E-02  1.14053228E-05
  3.88753621E-02  1.33537010E-01 -4.42203827E-02  4.52091907E-06  1.50380446E-02
  1.78807501E-02 -6.77357734E-03 -1.65759914E-08  2.73924013E-02 -5.90371115E-02
 -1.61474224E-01 -2.26148420E-01 -4.94312451E-06 -3.46860616E-02 -2.54100360E-02
 -6.83301421E-02 -1.52304972E-06 -1.20881470E-02 -2.04903182E-02 -5.42871087E-03
  1.43447243E-06 -5.27769619E-02  1.28874771E-01 -1.21962392E-01 -6.69403469E-02
  1.10742024E-06  1.74564434E-01 -6.08746844E-02 -5.14573077E-02 -1.25755006E-07
  2.07084689E-02  6.71359005E-03 -1.06990982E-03 -2.01332436E-06  6.70317892E-02
 -1.48523321E-01  2.40940275E-01  7.10661429E-02 -2.79548187E-05 -2.79186098E-01
  7.97765774E-02  1.50262684E-02 -9.79477815E-06 -8.60817081E-02 -4.44050951E-03
  2.16126032E-03  1.21869493E-06  1.78273029E-02  1.97710020E-02  2.10753110E-01
  1.23018954E-01 -1.20301079E-02 -2.36936217E-03  1.04370378E-01  7.08807161E-02
 -1.75522394E-02  4.33842321E-02 -2.31846939E-01 -2.27673276E-02 -2.45566227E-05
  3.09168533E-02 -7.24324262E-02 -1.35933194E-02 -1.21674621E-05 -2.97720710E-02
 -1.36913709E-04 -4.71870134E-03  8.77057930E-07 -5.84405472E-04  4.87909631E-03
  1.86844587E-01  1.22882351E-01 -2.46344265E-05 -2.35097644E-02  4.84486227E-02
  4.95228758E-02 -1.17633989E-05  3.81270966E-02  5.27706189E-03  1.55791495E-02
 -2.19902912E-06 -1.36038782E-02  6.04393966E-02 -2.87668741E-01 -1.79622958E-01
 -6.72302855E-05  3.65888494E-03 -6.92886684E-02 -5.43653112E-02 -3.92058999E-05
 -2.06388592E-02 -4.66471206E-03 -1.69901484E-03 -4.44989701E-06  6.49228905E-02
 -1.40469416E-01  4.21617866E-01  1.50958304E-01 -1.33109223E-04 -2.59449544E-01
  1.81908755E-01  6.51362257E-02 -7.26292727E-05 -7.76849385E-02  1.59841688E-02
  9.66583455E-03 -3.30962641E-06 -1.15077914E-01 -8.93842278E-02 -1.00579302E-01
 -8.41409334E-02 -1.43363958E-02 -1.37286601E-02 -9.52293212E-02 -6.55488031E-02
 -3.34789767E-06  7.86340940E-06 -4.75558684E-05  1.96600646E-05  1.10462838E-01
  2.24697291E-05 -2.25565838E-05  9.85203770E-06  6.12383961E-02 -2.86956258E-05
  1.03081915E-05  7.04032348E-07 -7.96052551E-04 -6.55329936E-07  4.14170344E-06
  2.42030320E-05  6.81804395E-06  1.86462543E-01 -2.06412340E-05  1.88405483E-06
 -1.90573348E-05  9.08246121E-02  1.66097607E-05 -1.90515256E-06 -4.38441811E-07
  1.02455694E-02  8.55017671E-06 -1.52854128E-05 -5.72890919E-05 -4.73956943E-05
  3.71199697E-01 -1.04659822E-05  8.20339946E-07 -8.42447491E-06  1.97400327E-01
  1.11622723E-05  1.45615902E-05  2.63933759E-06  2.57894314E-02  1.32105147E-05
 -2.75933334E-05  1.41169870E-04  3.34208289E-05  4.30607575E-01 -5.58534477E-05
  6.75625159E-05  1.17585173E-05  2.58948000E-01 -1.78006266E-05  2.17842233E-06
  3.97416324E-06  7.26907637E-03 -2.13960490E-05 -3.28478855E-05 -2.82824276E-05
 -2.19833361E-05  1.32444772E-05  6.58684255E-06 -5.43397914E-06 -1.47593191E-05
  1.00810596E-02 -2.29688149E-02 -5.94597391E-02  3.21725960E-01 -7.75310358E-06
 -8.45481509E-03 -5.29875120E-02  1.60758216E-01 -4.34266158E-06 -3.85091714E-02
 -4.30423971E-03  3.43070337E-02  5.96151331E-07 -1.59648505E-02  2.58809438E-02
 -1.47690421E-03 -2.85003397E-01 -5.54925890E-06  8.65631574E-02 -7.99459687E-03
 -1.50806974E-01 -4.47736357E-06  1.09535559E-02  3.84819862E-02 -3.19262255E-02
 -1.23425562E-06  2.52132563E-02 -5.37694461E-02 -1.67847754E-01  1.11679703E-01
 -1.66887299E-05 -7.21891157E-02 -5.83795722E-02  7.36157081E-02 -8.80886259E-06
  4.17019339E-02 -9.34163692E-04  4.52093906E-03  8.16946742E-07  1.01350779E-02
 -2.35529750E-02  1.74765271E-03  1.69592716E-01 -3.23831721E-05 -3.87565058E-02
 -4.70061179E-03  9.01816852E-02 -1.89005271E-05 -6.26871242E-03  4.85834181E-03
  4.75532525E-03 -1.84851853E-06  3.35866270E-02  1.99971971E-02 -1.73819217E-01
 -1.14272400E-01  2.17437716E-01  1.61550767E-01  2.18136537E-01  1.35500263E-01
  1.27939712E-07 -8.44578964E-07 -1.13107639E-05 -2.45464256E-07  3.73530623E-01
 -1.14232296E-05 -8.58408039E-06  4.68766225E-06  2.44290502E-01  5.94755846E-05
 -1.86244526E-05 -2.68574979E-06  4.73921513E-02  8.87299709E-07 -1.88516357E-06
 -8.10884532E-06 -2.36456775E-06  3.60747703E-01 -5.29635411E-06  6.38922663E-06
  1.12470045E-05  2.46720116E-01 -7.80547121E-05 -5.15811268E-06 -7.08732368E-06
  2.40230257E-02 -1.33957599E-06  1.85348764E-06 -5.07987060E-07  1.17133768E-05
 -5.88209872E-02  1.49025539E-05 -1.45670337E-05 -2.00508466E-05 -4.31175290E-02
  2.37192485E-05 -4.97268003E-06 -1.31691830E-05 -1.17613784E-02  4.48885583E-07
 -5.68627919E-07 -2.40413006E-05 -4.67282159E-05 -2.90224635E-01 -1.22782911E-05
 -2.10915886E-05 -3.20364617E-05 -1.97066634E-01 -1.65228361E-05 -2.72363987E-06
 -3.59062785E-06 -3.01389002E-02  1.38262715E-05  3.59334239E-05  1.50671929E-08
  3.77314000E-06 -8.84713547E-07 -2.00241851E-06  2.58539746E-06  1.28084918E-05
  6.97504436E-03 -8.54592724E-03  6.63683124E-02  1.08610450E-02  3.52631282E-05
 -1.15174504E-01  1.07904800E-01 -1.50243480E-02  2.87224648E-05 -4.61639646E-01
  9.97402517E-02  3.02803957E-02  8.30459363E-06 -3.82502718E-02  6.90408992E-02
 -1.89541319E-01  1.11651113E-01  1.96636882E-05  3.49070750E-01 -9.98724906E-02
  1.96570878E-01  7.64931854E-06  5.46448870E-01  1.35161643E-01  1.17687799E-01
  6.26190035E-07  8.33656684E-04  1.68115104E-02  6.00754040E-02 -1.35403007E-01
 -6.17989695E-06 -8.18165559E-02 -1.17523343E-01  1.94437918E-02 -3.25879834E-07
 -8.93374579E-02 -6.91582411E-02 -4.92028127E-03  3.01402567E-06 -1.18220186E-03
  6.36961789E-03 -2.29663175E-01  5.42621830E-01  9.04423064E-06 -2.45895171E-02
 -1.65836975E-01  3.62222287E-01  9.12397255E-06 -3.81856283E-02 -2.32791417E-02