 Entering Gaussian System, Link 0=/opt/cluster/programs/g09_d.01/g09//g09
 Input=/home/unibas/boittier/RDKit_G2/L.pdb/OPT_wB97XD_6-31+G/OPT_L.pdb.com
 Output=/scratch/boittier/OPT_L.pdb/OPT_L.pdb.out
 Initial command:
 /opt/cluster/programs/g09_d.01/g09/l1.exe "/scratch/boittier/OPT_L.pdb/Gau-189308.inp" -scrdir="/scratch/boittier/OPT_L.pdb/"
 Entering Link 1 = /opt/cluster/programs/g09_d.01/g09/l1.exe PID=    189309.
  
 Copyright (c) 1988,1990,1992,1993,1995,1998,2003,2009,2013,
            Gaussian, Inc.  All Rights Reserved.
  
 This is part of the Gaussian(R) 09 program.  It is based on
 the Gaussian(R) 03 system (copyright 2003, Gaussian, Inc.),
 the Gaussian(R) 98 system (copyright 1998, Gaussian, Inc.),
 the Gaussian(R) 94 system (copyright 1995, Gaussian, Inc.),
 the Gaussian 92(TM) system (copyright 1992, Gaussian, Inc.),
 the Gaussian 90(TM) system (copyright 1990, Gaussian, Inc.),
 the Gaussian 88(TM) system (copyright 1988, Gaussian, Inc.),
 the Gaussian 86(TM) system (copyright 1986, Carnegie Mellon
 University), and the Gaussian 82(TM) system (copyright 1983,
 Carnegie Mellon University). Gaussian is a federally registered
 trademark of Gaussian, Inc.
  
 This software contains proprietary and confidential information,
 including trade secrets, belonging to Gaussian, Inc.
  
 This software is provided under written license and may be
 used, copied, transmitted, or stored only in accord with that
 written license.
  
 The following legend is applicable only to US Government
 contracts under FAR:
  
                    RESTRICTED RIGHTS LEGEND
  
 Use, reproduction and disclosure by the US Government is
 subject to restrictions as set forth in subparagraphs (a)
 and (c) of the Commercial Computer Software - Restricted
 Rights clause in FAR 52.227-19.
  
 Gaussian, Inc.
 340 Quinnipiac St., Bldg. 40, Wallingford CT 06492
  
  
 ---------------------------------------------------------------
 Warning -- This program may not be used in any manner that
 competes with the business of Gaussian, Inc. or will provide
 assistance to any competitor of Gaussian, Inc.  The licensee
 of this program is prohibited from giving any competitor of
 Gaussian, Inc. access to this program.  By using this program,
 the user acknowledges that Gaussian, Inc. is engaged in the
 business of creating and licensing software in the field of
 computational chemistry and represents and warrants to the
 licensee that it is not a competitor of Gaussian, Inc. and that
 it will not use this program in any manner prohibited above.
 ---------------------------------------------------------------
  

 Cite this work as:
 Gaussian 09, Revision D.01,
 M. J. Frisch, G. W. Trucks, H. B. Schlegel, G. E. Scuseria, 
 M. A. Robb, J. R. Cheeseman, G. Scalmani, V. Barone, B. Mennucci, 
 G. A. Petersson, H. Nakatsuji, M. Caricato, X. Li, H. P. Hratchian, 
 A. F. Izmaylov, J. Bloino, G. Zheng, J. L. Sonnenberg, M. Hada, 
 M. Ehara, K. Toyota, R. Fukuda, J. Hasegawa, M. Ishida, T. Nakajima, 
 Y. Honda, O. Kitao, H. Nakai, T. Vreven, J. A. Montgomery, Jr., 
 J. E. Peralta, F. Ogliaro, M. Bearpark, J. J. Heyd, E. Brothers, 
 K. N. Kudin, V. N. Staroverov, T. Keith, R. Kobayashi, J. Normand, 
 K. Raghavachari, A. Rendell, J. C. Burant, S. S. Iyengar, J. Tomasi, 
 M. Cossi, N. Rega, J. M. Millam, M. Klene, J. E. Knox, J. B. Cross, 
 V. Bakken, C. Adamo, J. Jaramillo, R. Gomperts, R. E. Stratmann, 
 O. Yazyev, A. J. Austin, R. Cammi, C. Pomelli, J. W. Ochterski, 
 R. L. Martin, K. Morokuma, V. G. Zakrzewski, G. A. Voth, 
 P. Salvador, J. J. Dannenberg, S. Dapprich, A. D. Daniels, 
 O. Farkas, J. B. Foresman, J. V. Ortiz, J. Cioslowski, 
 and D. J. Fox, Gaussian, Inc., Wallingford CT, 2013.
 
 ******************************************
 Gaussian 09:  ES64L-G09RevD.01 24-Apr-2013
                12-May-2021 
 ******************************************
 %chk=/home/unibas/boittier/RDKit_G2/L.pdb/OPT_wB97XD_6-31+G/L.pdb.chk
 %nproc=8
 Will use up to    8 processors via shared memory.
 %mem=16GB
 ---------------------------------
 #p wB97XD/6-31+G Opt Freq=NoRaman
 ---------------------------------
 1/14=-1,18=20,19=15,26=3,38=1/1,3;
 2/9=110,12=2,17=6,18=5,40=1/2;
 3/5=1,6=6,7=10,11=2,16=1,25=1,30=1,71=1,74=-58/1,2,3;
 4//1;
 5/5=2,38=5/2;
 6/7=2,8=2,9=2,10=2,28=1/1;
 7//1,2,3,16;
 1/14=-1,18=20,19=15,26=3/3(2);
 2/9=110/2;
 99//99;
 2/9=110/2;
 3/5=1,6=6,7=10,11=2,16=1,25=1,30=1,71=1,74=-58/1,2,3;
 4/5=5,16=3,69=1/1;
 5/5=2,38=5/2;
 7//1,2,3,16;
 1/14=-1,18=20,19=15,26=3/3(-5);
 2/9=110/2;
 6/7=2,8=2,9=2,10=2,19=2,28=1/1;
 99/9=1/99;
 Leave Link    1 at Wed May 12 13:36:33 2021, MaxMem=  2147483648 cpu:         0.2
 (Enter /opt/cluster/programs/g09_d.01/g09/l101.exe)
 -----
 L.pdb
 -----
 Symbolic Z-matrix:
 Charge =  0 Multiplicity = 1
 C                     3.42258  -0.05031  -0.89924 
 C                     2.089    -0.04055  -1.07739 
 C                     1.16548  -0.03875   0.06365 
 O                    -0.07366  -0.02992  -0.04568 
 H                     1.63367  -0.0459    1.06498 
 H                     4.11723  -0.05176  -1.7328 
 H                     3.86046  -0.0572    0.09725 
 H                     1.63824  -0.03361  -2.06677 
 
 NAtoms=      8 NQM=        8 NQMF=       0 NMMI=      0 NMMIF=      0
                NMic=       0 NMicF=      0.
                    Isotopes and Nuclear Properties:
 (Nuclear quadrupole moments (NQMom) in fm**2, nuclear magnetic moments (NMagM)
  in nuclear magnetons)

  Atom         1           2           3           4           5           6           7           8
 IAtWgt=          12          12          12          16           1           1           1           1
 AtmWgt=  12.0000000  12.0000000  12.0000000  15.9949146   1.0078250   1.0078250   1.0078250   1.0078250
 NucSpn=           0           0           0           0           1           1           1           1
 AtZEff=   0.0000000   0.0000000   0.0000000   0.0000000   0.0000000   0.0000000   0.0000000   0.0000000
 NQMom=    0.0000000   0.0000000   0.0000000   0.0000000   0.0000000   0.0000000   0.0000000   0.0000000
 NMagM=    0.0000000   0.0000000   0.0000000   0.0000000   2.7928460   2.7928460   2.7928460   2.7928460
 AtZNuc=   6.0000000   6.0000000   6.0000000   8.0000000   1.0000000   1.0000000   1.0000000   1.0000000
 Leave Link  101 at Wed May 12 13:36:33 2021, MaxMem=  2147483648 cpu:         4.0
 (Enter /opt/cluster/programs/g09_d.01/g09/l103.exe)

 GradGradGradGradGradGradGradGradGradGradGradGradGradGradGradGradGradGrad
 Berny optimization.
 Initialization pass.
                           ----------------------------
                           !    Initial Parameters    !
                           ! (Angstroms and Degrees)  !
 --------------------------                            --------------------------
 ! Name  Definition              Value          Derivative Info.                !
 --------------------------------------------------------------------------------
 ! R1    R(1,2)                  1.3455         estimate D2E/DX2                !
 ! R2    R(1,6)                  1.0851         estimate D2E/DX2                !
 ! R3    R(1,7)                  1.0885         estimate D2E/DX2                !
 ! R4    R(2,3)                  1.4679         estimate D2E/DX2                !
 ! R5    R(2,8)                  1.0873         estimate D2E/DX2                !
 ! R6    R(3,4)                  1.244          estimate D2E/DX2                !
 ! R7    R(3,5)                  1.1054         estimate D2E/DX2                !
 ! A1    A(2,1,6)              122.1968         estimate D2E/DX2                !
 ! A2    A(2,1,7)              121.3323         estimate D2E/DX2                !
 ! A3    A(6,1,7)              116.471          estimate D2E/DX2                !
 ! A4    A(1,2,3)              121.3762         estimate D2E/DX2                !
 ! A5    A(1,2,8)              122.1042         estimate D2E/DX2                !
 ! A6    A(3,2,8)              116.5196         estimate D2E/DX2                !
 ! A7    A(2,3,4)              123.9426         estimate D2E/DX2                !
 ! A8    A(2,3,5)              115.9539         estimate D2E/DX2                !
 ! A9    A(4,3,5)              120.1035         estimate D2E/DX2                !
 ! D1    D(6,1,2,3)           -179.9997         estimate D2E/DX2                !
 ! D2    D(6,1,2,8)              0.0002         estimate D2E/DX2                !
 ! D3    D(7,1,2,3)              0.0002         estimate D2E/DX2                !
 ! D4    D(7,1,2,8)           -179.9999         estimate D2E/DX2                !
 ! D5    D(1,2,3,4)           -179.999          estimate D2E/DX2                !
 ! D6    D(1,2,3,5)             -0.0021         estimate D2E/DX2                !
 ! D7    D(8,2,3,4)              0.0011         estimate D2E/DX2                !
 ! D8    D(8,2,3,5)            179.9981         estimate D2E/DX2                !
 --------------------------------------------------------------------------------
 Trust Radius=3.00D-01 FncErr=1.00D-07 GrdErr=1.00D-06
 Number of steps in this run=     34 maximum allowed number of steps=    100.
 GradGradGradGradGradGradGradGradGradGradGradGradGradGradGradGradGradGrad

 Leave Link  103 at Wed May 12 13:36:33 2021, MaxMem=  2147483648 cpu:         0.1
 (Enter /opt/cluster/programs/g09_d.01/g09/l202.exe)
                          Input orientation:                          
 ---------------------------------------------------------------------
 Center     Atomic      Atomic             Coordinates (Angstroms)
 Number     Number       Type             X           Y           Z
 ---------------------------------------------------------------------
      1          6           0        3.422580   -0.050312   -0.899236
      2          6           0        2.089000   -0.040552   -1.077385
      3          6           0        1.165482   -0.038753    0.063655
      4          8           0       -0.073658   -0.029922   -0.045682
      5          1           0        1.633672   -0.045898    1.064975
      6          1           0        4.117227   -0.051757   -1.732799
      7          1           0        3.860458   -0.057201    0.097245
      8          1           0        1.638240   -0.033605   -2.066773
 ---------------------------------------------------------------------
                    Distance matrix (angstroms):
                    1          2          3          4          5
     1  C    0.000000
     2  C    1.345462   0.000000
     3  C    2.453931   1.467944   0.000000
     4  O    3.598979   2.396167   1.243986   0.000000
     5  H    2.656753   2.190219   1.105393   2.036858   0.000000
     6  H    1.085065   2.131525   3.455462   4.517783   3.741073
     7  H    1.088466   2.125581   2.695248   3.936806   2.428004
     8  H    2.132438   1.087254   2.182257   2.648663   3.131775
                    6          7          8
     6  H    0.000000
     7  H    1.847978   0.000000
     8  H    2.501449   3.101900   0.000000
 Stoichiometry    C3H4O
 Framework group  C1[X(C3H4O)]
 Deg. of freedom    18
 Full point group                 C1      NOp   1
 Largest Abelian subgroup         C1      NOp   1
 Largest concise Abelian subgroup C1      NOp   1
                         Standard orientation:                         
 ---------------------------------------------------------------------
 Center     Atomic      Atomic             Coordinates (Angstroms)
 Number     Number       Type             X           Y           Z
 ---------------------------------------------------------------------
      1          6           0        1.776099    0.135275    0.000002
      2          6           0        0.561588   -0.443715   -0.000001
      3          6           0       -0.667641    0.358692   -0.000011
      4          8           0       -1.813397   -0.125813    0.000004
      5          1           0       -0.529453    1.455413    0.000020
      6          1           0        2.693113   -0.444769    0.000004
      7          1           0        1.886924    1.218085    0.000000
      8          1           0        0.436324   -1.523729    0.000002
 ---------------------------------------------------------------------
 Rotational constants (GHZ):     47.9521072      4.5691626      4.1716618
 Leave Link  202 at Wed May 12 13:36:33 2021, MaxMem=  2147483648 cpu:         0.0
 (Enter /opt/cluster/programs/g09_d.01/g09/l301.exe)
 Standard basis: 6-31+G (6D, 7F)
 Ernie: Thresh=  0.10000D-02 Tol=  0.10000D-05 Strict=F.
 There are    60 symmetry adapted cartesian basis functions of A   symmetry.
 There are    60 symmetry adapted basis functions of A   symmetry.
    60 basis functions,   120 primitive gaussians,    60 cartesian basis functions
    15 alpha electrons       15 beta electrons
       nuclear repulsion energy       102.1671658778 Hartrees.
 IExCor= 4639 DFT=T Ex+Corr=wB97XD ExCW=0 ScaHFX=  1.000000
 ScaDFX=  1.000000  1.000000  1.000000  1.000000 ScalE2=  1.000000  1.000000
 IRadAn=      0 IRanWt=     -1 IRanGd=            0 ICorTp=0 IEmpDi=121
  HFx wShort=  0.000000 wLong=  0.200000 cFull=  0.222036 cShort=  0.000000 cLong=  0.777964
  DFx wShort=  0.000000 wLong=  0.200000 cFull=  0.000000 cShort=  0.000000 cLong=  1.000000
 NAtoms=    8 NActive=    8 NUniq=    8 SFac= 1.00D+00 NAtFMM=   60 NAOKFM=F Big=F
 Integral buffers will be    131072 words long.
 Raffenetti 2 integral format.
 Two-electron integral symmetry is turned on.
 R6Disp:  Grimme-D2 Dispersion energy=       -0.0018048013 Hartrees.
 Nuclear repulsion after empirical dispersion term =      102.1653610765 Hartrees.
 Leave Link  301 at Wed May 12 13:36:34 2021, MaxMem=  2147483648 cpu:         0.3
 (Enter /opt/cluster/programs/g09_d.01/g09/l302.exe)
 NPDir=0 NMtPBC=     1 NCelOv=     1 NCel=       1 NClECP=     1 NCelD=      1
         NCelK=      1 NCelE2=     1 NClLst=     1 CellRange=     0.0.
 One-electron integrals computed using PRISM.
 NBasis=    60 RedAO= T EigKep=  1.16D-04  NBF=    60
 NBsUse=    60 1.00D-06 EigRej= -1.00D+00 NBFU=    60
 Precomputing XC quadrature grid using
 IXCGrd= 4 IRadAn=           0 IRanWt=          -1 IRanGd=           0 AccXCQ= 0.00D+00.
 Generated NRdTot=       0 NPtTot=           0 NUsed=           0 NTot=          32
 NSgBfM=    60    60    60    60    60 MxSgAt=     8 MxSgA2=     8.
 Leave Link  302 at Wed May 12 13:36:34 2021, MaxMem=  2147483648 cpu:         0.8
 (Enter /opt/cluster/programs/g09_d.01/g09/l303.exe)
 DipDrv:  MaxL=1.
 Leave Link  303 at Wed May 12 13:36:34 2021, MaxMem=  2147483648 cpu:         0.2
 (Enter /opt/cluster/programs/g09_d.01/g09/l401.exe)
 ExpMin= 4.38D-02 ExpMax= 5.48D+03 ExpMxC= 8.25D+02 IAcc=2 IRadAn=         4 AccDes= 0.00D+00
 Harris functional with IExCor= 4639 and IRadAn=       4 diagonalized for initial guess.
 HarFok:  IExCor= 4639 AccDes= 0.00D+00 IRadAn=         4 IDoV= 1 UseB2=F ITyADJ=14
 ICtDFT=  3500011 ScaDFX=  1.000000  1.000000  1.000000  1.000000
 FoFCou: FMM=F IPFlag=           0 FMFlag=      100000 FMFlg1=           0
         NFxFlg=           0 DoJE=T BraDBF=F KetDBF=T FulRan=T
         wScrn=  0.000000 ICntrl=     500 IOpCl=  0 I1Cent=   200000004 NGrid=           0
         NMat0=    1 NMatS0=      1 NMatT0=    0 NMatD0=    1 NMtDS0=    0 NMtDT0=    0
 Petite list used in FoFCou.
 Harris En= -183.750175918946    
 JPrj=0 DoOrth=F DoCkMO=F.
 Leave Link  401 at Wed May 12 13:36:34 2021, MaxMem=  2147483648 cpu:         1.0
 (Enter /opt/cluster/programs/g09_d.01/g09/l502.exe)
 Closed shell SCF:
 Using DIIS extrapolation, IDIIS=  1040.
 Integral symmetry usage will be decided dynamically.
 Keep R1 ints in memory in canonical form, NReq=4262490.
 IVT=       30290 IEndB=       30290 NGot=  2147483648 MDV=  2144102629
 LenX=  2144102629 LenY=  2144098588
 Requested convergence on RMS density matrix=1.00D-08 within 128 cycles.
 Requested convergence on MAX density matrix=1.00D-06.
 Requested convergence on             energy=1.00D-06.
 No special actions if energy rises.
 FoFCou: FMM=F IPFlag=           0 FMFlag=           0 FMFlg1=           0
         NFxFlg=           0 DoJE=F BraDBF=F KetDBF=F FulRan=T
         wScrn=  0.000000 ICntrl=     600 IOpCl=  0 I1Cent=           0 NGrid=           0
         NMat0=    1 NMatS0=   1830 NMatT0=    0 NMatD0=    1 NMtDS0=    0 NMtDT0=    0
 Symmetry not used in FoFCou.

 Cycle   1  Pass 1  IDiag  1:
 E= -191.758428082978    
 DIIS: error= 2.43D-02 at cycle   1 NSaved=   1.
 NSaved= 1 IEnMin= 1 EnMin= -191.758428082978     IErMin= 1 ErrMin= 2.43D-02
 ErrMax= 2.43D-02  0.00D+00 EMaxC= 1.00D-01 BMatC= 7.11D-02 BMatP= 7.11D-02
 IDIUse=3 WtCom= 7.57D-01 WtEn= 2.43D-01
 Coeff-Com:  0.100D+01
 Coeff-En:   0.100D+01
 Coeff:      0.100D+01
 Gap=     0.392 Goal=   None    Shift=    0.000
 GapD=    0.392 DampG=1.000 DampE=0.500 DampFc=0.5000 IDamp=-1.
 Damping current iteration by 5.00D-01
 RMSDP=4.15D-02 MaxDP=1.27D+00              OVMax= 8.84D-02

 Cycle   2  Pass 1  IDiag  1:
 E= -191.775132497175     Delta-E=       -0.016704414197 Rises=F Damp=T
 DIIS: error= 1.10D-02 at cycle   2 NSaved=   2.
 NSaved= 2 IEnMin= 2 EnMin= -191.775132497175     IErMin= 2 ErrMin= 1.10D-02
 ErrMax= 1.10D-02  0.00D+00 EMaxC= 1.00D-01 BMatC= 1.12D-02 BMatP= 7.11D-02
 IDIUse=3 WtCom= 8.90D-01 WtEn= 1.10D-01
 Coeff-Com: -0.186D+00 0.119D+01
 Coeff-En:   0.000D+00 0.100D+01
 Coeff:     -0.166D+00 0.117D+01
 Gap=     0.384 Goal=   None    Shift=    0.000
 RMSDP=1.59D-02 MaxDP=5.04D-01 DE=-1.67D-02 OVMax= 9.90D-02

 Cycle   3  Pass 1  IDiag  1:
 E= -191.788863105720     Delta-E=       -0.013730608545 Rises=F Damp=F
 DIIS: error= 1.57D-02 at cycle   3 NSaved=   3.
 NSaved= 3 IEnMin= 3 EnMin= -191.788863105720     IErMin= 2 ErrMin= 1.10D-02
 ErrMax= 1.57D-02  0.00D+00 EMaxC= 1.00D-01 BMatC= 8.43D-03 BMatP= 1.12D-02
 IDIUse=3 WtCom= 8.43D-01 WtEn= 1.57D-01
 Coeff-Com: -0.265D+00 0.646D+00 0.618D+00
 Coeff-En:   0.000D+00 0.000D+00 0.100D+01
 Coeff:     -0.223D+00 0.545D+00 0.678D+00
 Gap=     0.345 Goal=   None    Shift=    0.000
 RMSDP=6.62D-03 MaxDP=1.59D-01 DE=-1.37D-02 OVMax= 3.78D-02

 Cycle   4  Pass 1  IDiag  1:
 E= -191.794455442938     Delta-E=       -0.005592337218 Rises=F Damp=F
 DIIS: error= 4.97D-03 at cycle   4 NSaved=   4.
 NSaved= 4 IEnMin= 4 EnMin= -191.794455442938     IErMin= 4 ErrMin= 4.97D-03
 ErrMax= 4.97D-03  0.00D+00 EMaxC= 1.00D-01 BMatC= 1.39D-03 BMatP= 8.43D-03
 IDIUse=3 WtCom= 9.50D-01 WtEn= 4.97D-02
 Coeff-Com: -0.774D-01 0.145D+00 0.361D+00 0.571D+00
 Coeff-En:   0.000D+00 0.000D+00 0.137D+00 0.863D+00
 Coeff:     -0.735D-01 0.138D+00 0.350D+00 0.586D+00
 Gap=     0.339 Goal=   None    Shift=    0.000
 RMSDP=7.52D-04 MaxDP=1.23D-02 DE=-5.59D-03 OVMax= 1.21D-02

 Cycle   5  Pass 1  IDiag  1:
 E= -191.795554821943     Delta-E=       -0.001099379005 Rises=F Damp=F
 DIIS: error= 6.51D-04 at cycle   5 NSaved=   5.
 NSaved= 5 IEnMin= 5 EnMin= -191.795554821943     IErMin= 5 ErrMin= 6.51D-04
 ErrMax= 6.51D-04  0.00D+00 EMaxC= 1.00D-01 BMatC= 1.28D-05 BMatP= 1.39D-03
 IDIUse=3 WtCom= 9.93D-01 WtEn= 6.51D-03
 Coeff-Com: -0.147D-01 0.221D-01 0.929D-01 0.193D+00 0.706D+00
 Coeff-En:   0.000D+00 0.000D+00 0.000D+00 0.000D+00 0.100D+01
 Coeff:     -0.146D-01 0.219D-01 0.923D-01 0.192D+00 0.708D+00
 Gap=     0.338 Goal=   None    Shift=    0.000
 RMSDP=5.57D-04 MaxDP=1.38D-02 DE=-1.10D-03 OVMax= 2.29D-03

 Cycle   6  Pass 1  IDiag  1:
 E= -191.795571370694     Delta-E=       -0.000016548751 Rises=F Damp=F
 DIIS: error= 3.45D-04 at cycle   6 NSaved=   6.
 NSaved= 6 IEnMin= 6 EnMin= -191.795571370694     IErMin= 6 ErrMin= 3.45D-04
 ErrMax= 3.45D-04  0.00D+00 EMaxC= 1.00D-01 BMatC= 2.29D-06 BMatP= 1.28D-05
 IDIUse=3 WtCom= 9.97D-01 WtEn= 3.45D-03
 Coeff-Com:  0.117D-01-0.235D-01-0.453D-01-0.595D-01 0.256D+00 0.861D+00
 Coeff-En:   0.000D+00 0.000D+00 0.000D+00 0.000D+00 0.000D+00 0.100D+01
 Coeff:      0.117D-01-0.234D-01-0.451D-01-0.593D-01 0.255D+00 0.861D+00
 Gap=     0.339 Goal=   None    Shift=    0.000
 RMSDP=4.00D-04 MaxDP=9.83D-03 DE=-1.65D-05 OVMax= 1.33D-03

 Cycle   7  Pass 1  IDiag  1:
 E= -191.795575191665     Delta-E=       -0.000003820971 Rises=F Damp=F
 DIIS: error= 5.03D-05 at cycle   7 NSaved=   7.
 NSaved= 7 IEnMin= 7 EnMin= -191.795575191665     IErMin= 7 ErrMin= 5.03D-05
 ErrMax= 5.03D-05  0.00D+00 EMaxC= 1.00D-01 BMatC= 1.36D-07 BMatP= 2.29D-06
 IDIUse=1 WtCom= 1.00D+00 WtEn= 0.00D+00
 Coeff-Com:  0.437D-02-0.796D-02-0.218D-01-0.333D-01 0.266D-01 0.233D+00
 Coeff-Com:  0.799D+00
 Coeff:      0.437D-02-0.796D-02-0.218D-01-0.333D-01 0.266D-01 0.233D+00
 Coeff:      0.799D+00
 Gap=     0.339 Goal=   None    Shift=    0.000
 RMSDP=7.55D-05 MaxDP=1.79D-03 DE=-3.82D-06 OVMax= 2.59D-04

 Cycle   8  Pass 1  IDiag  1:
 E= -191.795575439077     Delta-E=       -0.000000247412 Rises=F Damp=F
 DIIS: error= 1.45D-05 at cycle   8 NSaved=   8.
 NSaved= 8 IEnMin= 8 EnMin= -191.795575439077     IErMin= 8 ErrMin= 1.45D-05
 ErrMax= 1.45D-05  0.00D+00 EMaxC= 1.00D-01 BMatC= 1.33D-08 BMatP= 1.36D-07
 IDIUse=1 WtCom= 1.00D+00 WtEn= 0.00D+00
 Coeff-Com: -0.144D-02 0.288D-02 0.411D-02 0.594D-02-0.211D-01-0.940D-01
 Coeff-Com:  0.716D-01 0.103D+01
 Coeff:     -0.144D-02 0.288D-02 0.411D-02 0.594D-02-0.211D-01-0.940D-01
 Coeff:      0.716D-01 0.103D+01
 Gap=     0.339 Goal=   None    Shift=    0.000
 RMSDP=1.52D-05 MaxDP=3.30D-04 DE=-2.47D-07 OVMax= 1.15D-04

 Cycle   9  Pass 1  IDiag  1:
 E= -191.795575465593     Delta-E=       -0.000000026517 Rises=F Damp=F
 DIIS: error= 2.11D-06 at cycle   9 NSaved=   9.
 NSaved= 9 IEnMin= 9 EnMin= -191.795575465593     IErMin= 9 ErrMin= 2.11D-06
 ErrMax= 2.11D-06  0.00D+00 EMaxC= 1.00D-01 BMatC= 2.87D-10 BMatP= 1.33D-08
 IDIUse=1 WtCom= 1.00D+00 WtEn= 0.00D+00
 Coeff-Com: -0.102D-03 0.176D-03 0.582D-03 0.943D-03 0.117D-02-0.587D-02
 Coeff-Com: -0.482D-01-0.888D-01 0.114D+01
 Coeff:     -0.102D-03 0.176D-03 0.582D-03 0.943D-03 0.117D-02-0.587D-02
 Coeff:     -0.482D-01-0.888D-01 0.114D+01
 Gap=     0.339 Goal=   None    Shift=    0.000
 RMSDP=1.59D-06 MaxDP=1.62D-05 DE=-2.65D-08 OVMax= 3.16D-05

 Cycle  10  Pass 1  IDiag  1:
 E= -191.795575466643     Delta-E=       -0.000000001050 Rises=F Damp=F
 DIIS: error= 7.37D-07 at cycle  10 NSaved=  10.
 NSaved=10 IEnMin=10 EnMin= -191.795575466643     IErMin=10 ErrMin= 7.37D-07
 ErrMax= 7.37D-07  0.00D+00 EMaxC= 1.00D-01 BMatC= 2.49D-11 BMatP= 2.87D-10
 IDIUse=1 WtCom= 1.00D+00 WtEn= 0.00D+00
 Coeff-Com:  0.501D-04-0.970D-04-0.221D-03-0.249D-03 0.866D-03 0.276D-02
 Coeff-Com:  0.353D-02-0.235D-01-0.116D+00 0.113D+01
 Coeff:      0.501D-04-0.970D-04-0.221D-03-0.249D-03 0.866D-03 0.276D-02
 Coeff:      0.353D-02-0.235D-01-0.116D+00 0.113D+01
 Gap=     0.339 Goal=   None    Shift=    0.000
 RMSDP=3.89D-07 MaxDP=6.23D-06 DE=-1.05D-09 OVMax= 2.93D-06

 Cycle  11  Pass 1  IDiag  1:
 E= -191.795575466677     Delta-E=       -0.000000000034 Rises=F Damp=F
 DIIS: error= 8.99D-08 at cycle  11 NSaved=  11.
 NSaved=11 IEnMin=11 EnMin= -191.795575466677     IErMin=11 ErrMin= 8.99D-08
 ErrMax= 8.99D-08  0.00D+00 EMaxC= 1.00D-01 BMatC= 5.13D-13 BMatP= 2.49D-11
 IDIUse=1 WtCom= 1.00D+00 WtEn= 0.00D+00
 Coeff-Com: -0.720D-06 0.202D-05-0.412D-05-0.571D-05-0.380D-04-0.127D-03
 Coeff-Com:  0.131D-02 0.428D-02-0.210D-01-0.141D+00 0.116D+01
 Coeff:     -0.720D-06 0.202D-05-0.412D-05-0.571D-05-0.380D-04-0.127D-03
 Coeff:      0.131D-02 0.428D-02-0.210D-01-0.141D+00 0.116D+01
 Gap=     0.339 Goal=   None    Shift=    0.000
 RMSDP=5.48D-08 MaxDP=4.25D-07 DE=-3.44D-11 OVMax= 5.15D-07

 Cycle  12  Pass 1  IDiag  1:
 E= -191.795575466679     Delta-E=       -0.000000000001 Rises=F Damp=F
 DIIS: error= 1.29D-08 at cycle  12 NSaved=  12.
 NSaved=12 IEnMin=12 EnMin= -191.795575466679     IErMin=12 ErrMin= 1.29D-08
 ErrMax= 1.29D-08  0.00D+00 EMaxC= 1.00D-01 BMatC= 7.32D-15 BMatP= 5.13D-13
 IDIUse=1 WtCom= 1.00D+00 WtEn= 0.00D+00
 Coeff-Com: -0.106D-05 0.195D-05 0.632D-05 0.829D-05-0.929D-05-0.795D-04
 Coeff-Com: -0.223D-03-0.888D-04 0.658D-02-0.115D-01-0.162D+00 0.117D+01
 Coeff:     -0.106D-05 0.195D-05 0.632D-05 0.829D-05-0.929D-05-0.795D-04
 Coeff:     -0.223D-03-0.888D-04 0.658D-02-0.115D-01-0.162D+00 0.117D+01
 Gap=     0.339 Goal=   None    Shift=    0.000
 RMSDP=2.00D-08 MaxDP=4.22D-07 DE=-1.25D-12 OVMax= 8.17D-08

 Cycle  13  Pass 1  IDiag  1:
 E= -191.795575466678     Delta-E=        0.000000000001 Rises=F Damp=F
 DIIS: error= 1.18D-09 at cycle  13 NSaved=  13.
 NSaved=13 IEnMin=12 EnMin= -191.795575466679     IErMin=13 ErrMin= 1.18D-09
 ErrMax= 1.18D-09  0.00D+00 EMaxC= 1.00D-01 BMatC= 1.49D-16 BMatP= 7.32D-15
 IDIUse=1 WtCom= 1.00D+00 WtEn= 0.00D+00
 Coeff-Com:  0.129D-06-0.244D-06-0.726D-06-0.678D-06 0.128D-05 0.915D-05
 Coeff-Com:  0.155D-04-0.537D-04-0.700D-03 0.467D-02 0.416D-02-0.206D+00
 Coeff-Com:  0.120D+01
 Coeff:      0.129D-06-0.244D-06-0.726D-06-0.678D-06 0.128D-05 0.915D-05
 Coeff:      0.155D-04-0.537D-04-0.700D-03 0.467D-02 0.416D-02-0.206D+00
 Coeff:      0.120D+01
 Gap=     0.339 Goal=   None    Shift=    0.000
 RMSDP=5.43D-09 MaxDP=1.19D-07 DE= 1.02D-12 OVMax= 1.42D-08

 SCF Done:  E(RwB97XD) =  -191.795575467     A.U. after   13 cycles
            NFock= 13  Conv=0.54D-08     -V/T= 2.0060
 KE= 1.906438337886D+02 PE=-6.517008929242D+02 EE= 1.670961225923D+02
 Leave Link  502 at Wed May 12 13:36:35 2021, MaxMem=  2147483648 cpu:         8.6
 (Enter /opt/cluster/programs/g09_d.01/g09/l601.exe)
 Copying SCF densities to generalized density rwf, IOpCl= 0 IROHF=0.

 **********************************************************************

            Population analysis using the SCF density.

 **********************************************************************

 Orbital symmetries:
       Occupied  (A) (A) (A) (A) (A) (A) (A) (A) (A) (A) (A) (A)
                 (A) (A) (A)
       Virtual   (A) (A) (A) (A) (A) (A) (A) (A) (A) (A) (A) (A)
                 (A) (A) (A) (A) (A) (A) (A) (A) (A) (A) (A) (A)
                 (A) (A) (A) (A) (A) (A) (A) (A) (A) (A) (A) (A)
                 (A) (A) (A) (A) (A) (A) (A) (A) (A)
 The electronic state is 1-A.
 Alpha  occ. eigenvalues --  -19.28873 -10.40673 -10.34166 -10.33437  -1.16716
 Alpha  occ. eigenvalues --   -0.92042  -0.76127  -0.68245  -0.58355  -0.57605
 Alpha  occ. eigenvalues --   -0.51220  -0.49640  -0.48898  -0.38144  -0.35397
 Alpha virt. eigenvalues --   -0.01513   0.06922   0.08347   0.08472   0.09253
 Alpha virt. eigenvalues --    0.12038   0.12450   0.12720   0.14876   0.15487
 Alpha virt. eigenvalues --    0.17745   0.18749   0.20197   0.22077   0.26019
 Alpha virt. eigenvalues --    0.28556   0.29018   0.32975   0.33203   0.34553
 Alpha virt. eigenvalues --    0.36320   0.38566   0.43710   0.47356   0.49155
 Alpha virt. eigenvalues --    0.70975   0.71658   0.76566   0.76953   0.80387
 Alpha virt. eigenvalues --    0.86168   0.87902   0.98061   1.02471   1.08422
 Alpha virt. eigenvalues --    1.09571   1.12758   1.20894   1.23896   1.30226
 Alpha virt. eigenvalues --    1.31047   1.37286   1.40320   1.46430   1.92912
          Condensed to atoms (all electrons):
               1          2          3          4          5          6
     1  C    5.762577  -0.436535   0.259473   0.062126   0.116985   0.355892
     2  C   -0.436535   6.581243  -0.027884  -0.220692  -0.259575  -0.009442
     3  C    0.259473  -0.027884   5.025506   0.318046   0.410041   0.004861
     4  O    0.062126  -0.220692   0.318046   8.337535  -0.055578  -0.000521
     5  H    0.116985  -0.259575   0.410041  -0.055578   0.603272   0.000142
     6  H    0.355892  -0.009442   0.004861  -0.000521   0.000142   0.461986
     7  H    0.379477  -0.049454   0.009933   0.000674   0.000959  -0.022917
     8  H   -0.019553   0.351459  -0.006892  -0.006047   0.001499  -0.002105
               7          8
     1  C    0.379477  -0.019553
     2  C   -0.049454   0.351459
     3  C    0.009933  -0.006892
     4  O    0.000674  -0.006047
     5  H    0.000959   0.001499
     6  H   -0.022917  -0.002105
     7  H    0.473742   0.002256
     8  H    0.002256   0.440882
 Mulliken charges:
               1
     1  C   -0.480442
     2  C    0.070879
     3  C    0.006916
     4  O   -0.435542
     5  H    0.182254
     6  H    0.212105
     7  H    0.205330
     8  H    0.238501
 Sum of Mulliken charges =   0.00000
 Mulliken charges with hydrogens summed into heavy atoms:
               1
     1  C   -0.063008
     2  C    0.309380
     3  C    0.189170
     4  O   -0.435542
 Electronic spatial extent (au):  <R**2>=            303.7694
 Charge=              0.0000 electrons
 Dipole moment (field-independent basis, Debye):
    X=              3.7865    Y=              0.8810    Z=              0.0000  Tot=              3.8876
 Quadrupole moment (field-independent basis, Debye-Ang):
   XX=            -28.1795   YY=            -21.6526   ZZ=            -25.4228
   XY=             -1.1694   XZ=              0.0000   YZ=              0.0000
 Traceless Quadrupole moment (field-independent basis, Debye-Ang):
   XX=             -3.0945   YY=              3.4323   ZZ=             -0.3378
   XY=             -1.1694   XZ=              0.0000   YZ=              0.0000
 Octapole moment (field-independent basis, Debye-Ang**2):
  XXX=             19.0756  YYY=              0.1857  ZZZ=              0.0000  XYY=              0.3083
  XXY=              1.1272  XXZ=              0.0000  XZZ=             -4.3698  YZZ=              0.1671
  YYZ=              0.0001  XYZ=              0.0000
 Hexadecapole moment (field-independent basis, Debye-Ang**3):
 XXXX=           -313.9745 YYYY=            -54.7950 ZZZZ=            -27.4688 XXXY=             -3.9421
 XXXZ=              0.0001 YYYX=             -0.1387 YYYZ=              0.0001 ZZZX=              0.0000
 ZZZY=              0.0000 XXYY=            -59.1512 XXZZ=            -58.7581 YYZZ=            -15.5069
 XXYZ=              0.0000 YYXZ=              0.0000 ZZXY=              0.3002
 N-N= 1.021653610765D+02 E-N=-6.517008929334D+02  KE= 1.906438337886D+02
 No NMR shielding tensors so no spin-rotation constants.
 Leave Link  601 at Wed May 12 13:36:35 2021, MaxMem=  2147483648 cpu:         0.6
 (Enter /opt/cluster/programs/g09_d.01/g09/l701.exe)
 Compute integral first derivatives.
 ... and contract with generalized density number  0.
 R6Disp: Adding Grimme-D2 dispersion energy 1st derivatives to the gradient.
 Leave Link  701 at Wed May 12 13:36:35 2021, MaxMem=  2147483648 cpu:         0.6
 (Enter /opt/cluster/programs/g09_d.01/g09/l702.exe)
 L702 exits ... SP integral derivatives will be done elsewhere.
 Leave Link  702 at Wed May 12 13:36:35 2021, MaxMem=  2147483648 cpu:         0.2
 (Enter /opt/cluster/programs/g09_d.01/g09/l703.exe)
 Compute integral first derivatives, UseDBF=F ICtDFT=           0.
 Integral derivatives from FoFJK, PRISM(SPDF).
 Calling FoFJK, ICntrl=      2127 FMM=F ISym2X=0 I1Cent= 0 IOpClX= 0 NMat=1 NMatS=1 NMatT=0.
 FoFJK:  IHMeth= 1 ICntrl=    2127 DoSepK=T KAlg= 0 I1Cent=   0 FoldK=F
 IRaf=         1 NMat=   1 IRICut=       1 DoRegI=T DoRafI=F ISym2E= 0.
 FoFCou: FMM=F IPFlag=           0 FMFlag=      100000 FMFlg1=         800
         NFxFlg=           0 DoJE=F BraDBF=F KetDBF=F FulRan=T
         wScrn=  0.000000 ICntrl=    2527 IOpCl=  0 I1Cent=           0 NGrid=           0
         NMat0=    1 NMatS0=      1 NMatT0=    0 NMatD0=    1 NMtDS0=    0 NMtDT0=    0
 Symmetry not used in FoFCou.
 Leave Link  703 at Wed May 12 13:36:35 2021, MaxMem=  2147483648 cpu:         2.4
 (Enter /opt/cluster/programs/g09_d.01/g09/l716.exe)
 Dipole        = 1.48972137D+00 3.46624412D-01-2.32079457D-06
 ***** Axes restored to original set *****
 -------------------------------------------------------------------
 Center     Atomic                   Forces (Hartrees/Bohr)
 Number     Number              X              Y              Z
 -------------------------------------------------------------------
      1        6          -0.005641765    0.000038745   -0.000082316
      2        6           0.004953367   -0.000026563   -0.001300603
      3        6          -0.008666008    0.000046847    0.001441263
      4        8           0.010925298   -0.000073825    0.000446971
      5        1          -0.000981146    0.000012819   -0.001008497
      6        1          -0.000744280    0.000004121    0.000145761
      7        1          -0.000296179    0.000002657   -0.000119503
      8        1           0.000450711   -0.000004801    0.000476924
 -------------------------------------------------------------------
 Cartesian Forces:  Max     0.010925298 RMS     0.003278085
 Leave Link  716 at Wed May 12 13:36:35 2021, MaxMem=  2147483648 cpu:         0.2
 (Enter /opt/cluster/programs/g09_d.01/g09/l103.exe)

 GradGradGradGradGradGradGradGradGradGradGradGradGradGradGradGradGradGrad
 Berny optimization.
 FormGI is forming the generalized inverse of G from B-inverse, IUseBI=4.
 Internal  Forces:  Max     0.010920946 RMS     0.002669521
 Search for a local minimum.
 Step number   1 out of a maximum of   34
 All quantities printed in internal units (Hartrees-Bohrs-Radians)
 RMS Force = .26695D-02 SwitMx=.10000D-02 MixMth= 1
 Mixed Optimization -- RFO/linear search
 Second derivative matrix not updated -- first step.
 ITU=  0
     Eigenvalues ---    0.01190   0.01190   0.02044   0.02810   0.02810
     Eigenvalues ---    0.16000   0.16000   0.16000   0.16000   0.22000
     Eigenvalues ---    0.22000   0.33093   0.34990   0.35132   0.35389
     Eigenvalues ---    0.35987   0.55998   0.85499
 RFO step:  Lambda=-2.51156549D-04 EMin= 1.18998512D-02
 Linear search not attempted -- first point.
 Iteration  1 RMS(Cart)=  0.00688906 RMS(Int)=  0.00000705
 Iteration  2 RMS(Cart)=  0.00000691 RMS(Int)=  0.00000001
 Iteration  3 RMS(Cart)=  0.00000000 RMS(Int)=  0.00000001
 ITry= 1 IFail=0 DXMaxC= 2.17D-02 DCOld= 1.00D+10 DXMaxT= 3.00D-01 DXLimC= 3.00D+00 Rises=F
 Variable       Old X    -DE/DX   Delta X   Delta X   Delta X     New X
                                 (Linear)    (Quad)   (Total)
    R1        2.54255  -0.00663   0.00000  -0.01183  -0.01183   2.53072
    R2        2.05048  -0.00059   0.00000  -0.00167  -0.00167   2.04881
    R3        2.05690  -0.00023   0.00000  -0.00065  -0.00065   2.05626
    R4        2.77401  -0.00012   0.00000  -0.00034  -0.00034   2.77367
    R5        2.05461  -0.00062   0.00000  -0.00177  -0.00177   2.05285
    R6        2.35079  -0.01092   0.00000  -0.01277  -0.01277   2.33802
    R7        2.08889  -0.00133   0.00000  -0.00402  -0.00402   2.08487
    A1        2.13274  -0.00049   0.00000  -0.00308  -0.00308   2.12966
    A2        2.11765   0.00001   0.00000   0.00009   0.00009   2.11774
    A3        2.03280   0.00048   0.00000   0.00299   0.00299   2.03579
    A4        2.11841  -0.00123   0.00000  -0.00560  -0.00560   2.11282
    A5        2.13112   0.00039   0.00000   0.00141   0.00141   2.13253
    A6        2.03365   0.00084   0.00000   0.00418   0.00418   2.03783
    A7        2.16321  -0.00114   0.00000  -0.00517  -0.00517   2.15804
    A8        2.02378   0.00105   0.00000   0.00561   0.00561   2.02939
    A9        2.09620   0.00008   0.00000  -0.00044  -0.00044   2.09576
    D1       -3.14159   0.00000   0.00000  -0.00002  -0.00002   3.14158
    D2        0.00000   0.00000   0.00000  -0.00001  -0.00001   0.00000
    D3        0.00000   0.00000   0.00000  -0.00001  -0.00001  -0.00001
    D4       -3.14159   0.00000   0.00000   0.00000   0.00000  -3.14159
    D5       -3.14158   0.00000   0.00000  -0.00016  -0.00016   3.14145
    D6       -0.00004   0.00000   0.00000   0.00017   0.00017   0.00013
    D7        0.00002   0.00000   0.00000  -0.00017  -0.00017  -0.00015
    D8        3.14156   0.00000   0.00000   0.00016   0.00016  -3.14146
         Item               Value     Threshold  Converged?
 Maximum Force            0.010921     0.000450     NO 
 RMS     Force            0.002670     0.000300     NO 
 Maximum Displacement     0.021681     0.001800     NO 
 RMS     Displacement     0.006890     0.001200     NO 
 Predicted change in Energy=-1.256352D-04
 Lowest energy point so far.  Saving SCF results.
 GradGradGradGradGradGradGradGradGradGradGradGradGradGradGradGradGradGrad

 Leave Link  103 at Wed May 12 13:36:35 2021, MaxMem=  2147483648 cpu:         0.0
 (Enter /opt/cluster/programs/g09_d.01/g09/l202.exe)
                          Input orientation:                          
 ---------------------------------------------------------------------
 Center     Atomic      Atomic             Coordinates (Angstroms)
 Number     Number       Type             X           Y           Z
 ---------------------------------------------------------------------
      1          6           0        3.416927   -0.050276   -0.898340
      2          6           0        2.090029   -0.040574   -1.079192
      3          6           0        1.169978   -0.038877    0.064413
      4          8           0       -0.062185   -0.029947   -0.047081
      5          1           0        1.634591   -0.045857    1.065052
      6          1           0        4.110665   -0.051680   -1.731514
      7          1           0        3.852104   -0.057171    0.098951
      8          1           0        1.640890   -0.033617   -2.068289
 ---------------------------------------------------------------------
                    Distance matrix (angstroms):
                    1          2          3          4          5
     1  C    0.000000
     2  C    1.339201   0.000000
     3  C    2.444546   1.467763   0.000000
     4  O    3.581798   2.386921   1.237229   0.000000
     5  H    2.651726   2.192084   1.103265   2.028828   0.000000
     6  H    1.084183   2.123351   3.445745   4.500052   3.735205
     7  H    1.088125   2.119718   2.682411   3.917107   2.418851
     8  H    2.126821   1.086319   2.184080   2.643059   3.133372
                    6          7          8
     6  H    0.000000
     7  H    1.848645   0.000000
     8  H    2.492696   3.096281   0.000000
 Stoichiometry    C3H4O
 Framework group  C1[X(C3H4O)]
 Deg. of freedom    18
 Full point group                 C1      NOp   1
 RotChk:  IX=2 Diff= 2.18D-03
 Largest Abelian subgroup         C1      NOp   1
 Largest concise Abelian subgroup C1      NOp   1
                         Standard orientation:                         
 ---------------------------------------------------------------------
 Center     Atomic      Atomic             Coordinates (Angstroms)
 Number     Number       Type             X           Y           Z
 ---------------------------------------------------------------------
      1          6           0        1.767600    0.136638   -0.000020
      2          6           0        0.561173   -0.444734    0.000019
      3          6           0       -0.666786    0.359285    0.000069
      4          8           0       -1.804491   -0.126886   -0.000038
      5          1           0       -0.533481    1.454467   -0.000060
      6          1           0        2.684521   -0.441902   -0.000048
      7          1           0        1.873936    1.219554   -0.000020
      8          1           0        0.439027   -1.524164    0.000020
 ---------------------------------------------------------------------
 Rotational constants (GHZ):     47.8421395      4.6100723      4.2048889
 Leave Link  202 at Wed May 12 13:36:35 2021, MaxMem=  2147483648 cpu:         0.0
 (Enter /opt/cluster/programs/g09_d.01/g09/l301.exe)
 Standard basis: 6-31+G (6D, 7F)
 Ernie: Thresh=  0.10000D-02 Tol=  0.10000D-05 Strict=F.
 There are    60 symmetry adapted cartesian basis functions of A   symmetry.
 There are    60 symmetry adapted basis functions of A   symmetry.
    60 basis functions,   120 primitive gaussians,    60 cartesian basis functions
    15 alpha electrons       15 beta electrons
       nuclear repulsion energy       102.5070138588 Hartrees.
 IExCor= 4639 DFT=T Ex+Corr=wB97XD ExCW=0 ScaHFX=  1.000000
 ScaDFX=  1.000000  1.000000  1.000000  1.000000 ScalE2=  1.000000  1.000000
 IRadAn=      0 IRanWt=     -1 IRanGd=            0 ICorTp=0 IEmpDi=121
  HFx wShort=  0.000000 wLong=  0.200000 cFull=  0.222036 cShort=  0.000000 cLong=  0.777964
  DFx wShort=  0.000000 wLong=  0.200000 cFull=  0.000000 cShort=  0.000000 cLong=  1.000000
 NAtoms=    8 NActive=    8 NUniq=    8 SFac= 1.00D+00 NAtFMM=   60 NAOKFM=F Big=F
 Integral buffers will be    131072 words long.
 Raffenetti 2 integral format.
 Two-electron integral symmetry is turned on.
 R6Disp:  Grimme-D2 Dispersion energy=       -0.0018038580 Hartrees.
 Nuclear repulsion after empirical dispersion term =      102.5052100007 Hartrees.
 Leave Link  301 at Wed May 12 13:36:36 2021, MaxMem=  2147483648 cpu:         0.3
 (Enter /opt/cluster/programs/g09_d.01/g09/l302.exe)
 NPDir=0 NMtPBC=     1 NCelOv=     1 NCel=       1 NClECP=     1 NCelD=      1
         NCelK=      1 NCelE2=     1 NClLst=     1 CellRange=     0.0.
 One-electron integrals computed using PRISM.
 NBasis=    60 RedAO= T EigKep=  1.14D-04  NBF=    60
 NBsUse=    60 1.00D-06 EigRej= -1.00D+00 NBFU=    60
 Precomputing XC quadrature grid using
 IXCGrd= 4 IRadAn=           0 IRanWt=          -1 IRanGd=           0 AccXCQ= 0.00D+00.
 Generated NRdTot=       0 NPtTot=           0 NUsed=           0 NTot=          32
 NSgBfM=    60    60    60    60    60 MxSgAt=     8 MxSgA2=     8.
 Leave Link  302 at Wed May 12 13:36:36 2021, MaxMem=  2147483648 cpu:         0.8
 (Enter /opt/cluster/programs/g09_d.01/g09/l303.exe)
 DipDrv:  MaxL=1.
 Leave Link  303 at Wed May 12 13:36:36 2021, MaxMem=  2147483648 cpu:         0.2
 (Enter /opt/cluster/programs/g09_d.01/g09/l401.exe)
 Initial guess from the checkpoint file:  "/home/unibas/boittier/RDKit_G2/L.pdb/OPT_wB97XD_6-31+G/L.pdb.chk"
 B after Tr=     0.000000    0.000000    0.000000
         Rot=    1.000000    0.000000    0.000000   -0.000506 Ang=  -0.06 deg.
 Guess basis will be translated and rotated to current coordinates.
 JPrj=2 DoOrth=T DoCkMO=T.
 Generating alternative initial guess.
 ExpMin= 4.38D-02 ExpMax= 5.48D+03 ExpMxC= 8.25D+02 IAcc=2 IRadAn=         4 AccDes= 0.00D+00
 Harris functional with IExCor= 4639 and IRadAn=       4 diagonalized for initial guess.
 HarFok:  IExCor= 4639 AccDes= 0.00D+00 IRadAn=         4 IDoV= 1 UseB2=F ITyADJ=14
 ICtDFT=  3500011 ScaDFX=  1.000000  1.000000  1.000000  1.000000
 FoFCou: FMM=F IPFlag=           0 FMFlag=      100000 FMFlg1=           0
         NFxFlg=           0 DoJE=T BraDBF=F KetDBF=T FulRan=T
         wScrn=  0.000000 ICntrl=     500 IOpCl=  0 I1Cent=   200000004 NGrid=           0
         NMat0=    1 NMatS0=      1 NMatT0=    0 NMatD0=    1 NMtDS0=    0 NMtDT0=    0
 Petite list used in FoFCou.
 Harris En= -183.747706185844    
 Leave Link  401 at Wed May 12 13:36:36 2021, MaxMem=  2147483648 cpu:         1.4
 (Enter /opt/cluster/programs/g09_d.01/g09/l502.exe)
 Closed shell SCF:
 Using DIIS extrapolation, IDIIS=  1040.
 Integral symmetry usage will be decided dynamically.
 Keep R1 ints in memory in canonical form, NReq=4262490.
 IVT=       30290 IEndB=       30290 NGot=  2147483648 MDV=  2144102629
 LenX=  2144102629 LenY=  2144098588
 Requested convergence on RMS density matrix=1.00D-08 within 128 cycles.
 Requested convergence on MAX density matrix=1.00D-06.
 Requested convergence on             energy=1.00D-06.
 No special actions if energy rises.
 FoFCou: FMM=F IPFlag=           0 FMFlag=           0 FMFlg1=           0
         NFxFlg=           0 DoJE=F BraDBF=F KetDBF=F FulRan=T
         wScrn=  0.000000 ICntrl=     600 IOpCl=  0 I1Cent=           0 NGrid=           0
         NMat0=    1 NMatS0=   1830 NMatT0=    0 NMatD0=    1 NMtDS0=    0 NMtDT0=    0
 Symmetry not used in FoFCou.

 Cycle   1  Pass 1  IDiag  1:
 E= -191.795645180647    
 DIIS: error= 6.25D-04 at cycle   1 NSaved=   1.
 NSaved= 1 IEnMin= 1 EnMin= -191.795645180647     IErMin= 1 ErrMin= 6.25D-04
 ErrMax= 6.25D-04  0.00D+00 EMaxC= 1.00D-01 BMatC= 3.69D-05 BMatP= 3.69D-05
 IDIUse=3 WtCom= 9.94D-01 WtEn= 6.25D-03
 Coeff-Com:  0.100D+01
 Coeff-En:   0.100D+01
 Coeff:      0.100D+01
 Gap=     0.615 Goal=   None    Shift=    0.000
 RMSDP=3.24D-04 MaxDP=3.39D-03              OVMax= 1.73D-03

 Cycle   2  Pass 1  IDiag  1:
 E= -191.795690875475     Delta-E=       -0.000045694827 Rises=F Damp=F
 DIIS: error= 1.75D-04 at cycle   2 NSaved=   2.
 NSaved= 2 IEnMin= 2 EnMin= -191.795690875475     IErMin= 2 ErrMin= 1.75D-04
 ErrMax= 1.75D-04  0.00D+00 EMaxC= 1.00D-01 BMatC= 2.64D-06 BMatP= 3.69D-05
 IDIUse=3 WtCom= 9.98D-01 WtEn= 1.75D-03
 Coeff-Com:  0.690D-01 0.931D+00
 Coeff-En:   0.000D+00 0.100D+01
 Coeff:      0.689D-01 0.931D+00
 Gap=     0.341 Goal=   None    Shift=    0.000
 RMSDP=1.27D-04 MaxDP=2.94D-03 DE=-4.57D-05 OVMax= 5.45D-04

 Cycle   3  Pass 1  IDiag  1:
 E= -191.795693925429     Delta-E=       -0.000003049955 Rises=F Damp=F
 DIIS: error= 9.66D-05 at cycle   3 NSaved=   3.
 NSaved= 3 IEnMin= 3 EnMin= -191.795693925429     IErMin= 3 ErrMin= 9.66D-05
 ErrMax= 9.66D-05  0.00D+00 EMaxC= 1.00D-01 BMatC= 4.90D-07 BMatP= 2.64D-06
 IDIUse=1 WtCom= 1.00D+00 WtEn= 0.00D+00
 Coeff-Com: -0.501D-01 0.253D+00 0.797D+00
 Coeff:     -0.501D-01 0.253D+00 0.797D+00
 Gap=     0.341 Goal=   None    Shift=    0.000
 RMSDP=2.29D-05 MaxDP=2.95D-04 DE=-3.05D-06 OVMax= 2.33D-04

 Cycle   4  Pass 1  IDiag  1:
 E= -191.795694521059     Delta-E=       -0.000000595630 Rises=F Damp=F
 DIIS: error= 2.07D-05 at cycle   4 NSaved=   4.
 NSaved= 4 IEnMin= 4 EnMin= -191.795694521059     IErMin= 4 ErrMin= 2.07D-05
 ErrMax= 2.07D-05  0.00D+00 EMaxC= 1.00D-01 BMatC= 1.15D-08 BMatP= 4.90D-07
 IDIUse=1 WtCom= 1.00D+00 WtEn= 0.00D+00
 Coeff-Com: -0.490D-02-0.134D-01 0.573D-01 0.961D+00
 Coeff:     -0.490D-02-0.134D-01 0.573D-01 0.961D+00
 Gap=     0.341 Goal=   None    Shift=    0.000
 RMSDP=9.02D-06 MaxDP=1.43D-04 DE=-5.96D-07 OVMax= 7.45D-05

 Cycle   5  Pass 1  IDiag  1:
 E= -191.795694535846     Delta-E=       -0.000000014787 Rises=F Damp=F
 DIIS: error= 1.37D-05 at cycle   5 NSaved=   5.
 NSaved= 5 IEnMin= 5 EnMin= -191.795694535846     IErMin= 5 ErrMin= 1.37D-05
 ErrMax= 1.37D-05  0.00D+00 EMaxC= 1.00D-01 BMatC= 7.23D-09 BMatP= 1.15D-08
 IDIUse=1 WtCom= 1.00D+00 WtEn= 0.00D+00
 Coeff-Com:  0.320D-02-0.339D-01-0.587D-01 0.505D+00 0.584D+00
 Coeff:      0.320D-02-0.339D-01-0.587D-01 0.505D+00 0.584D+00
 Gap=     0.341 Goal=   None    Shift=    0.000
 RMSDP=1.98D-06 MaxDP=1.87D-05 DE=-1.48D-08 OVMax= 3.40D-05

 Cycle   6  Pass 1  IDiag  1:
 E= -191.795694543225     Delta-E=       -0.000000007379 Rises=F Damp=F
 DIIS: error= 3.44D-06 at cycle   6 NSaved=   6.
 NSaved= 6 IEnMin= 6 EnMin= -191.795694543225     IErMin= 6 ErrMin= 3.44D-06
 ErrMax= 3.44D-06  0.00D+00 EMaxC= 1.00D-01 BMatC= 3.74D-10 BMatP= 7.23D-09
 IDIUse=1 WtCom= 1.00D+00 WtEn= 0.00D+00
 Coeff-Com:  0.181D-02-0.129D-01-0.283D-01 0.114D+00 0.225D+00 0.700D+00
 Coeff:      0.181D-02-0.129D-01-0.283D-01 0.114D+00 0.225D+00 0.700D+00
 Gap=     0.341 Goal=   None    Shift=    0.000
 RMSDP=8.46D-07 MaxDP=9.88D-06 DE=-7.38D-09 OVMax= 1.53D-05

 Cycle   7  Pass 1  IDiag  1:
 E= -191.795694543603     Delta-E=       -0.000000000378 Rises=F Damp=F
 DIIS: error= 1.63D-06 at cycle   7 NSaved=   7.
 NSaved= 7 IEnMin= 7 EnMin= -191.795694543603     IErMin= 7 ErrMin= 1.63D-06
 ErrMax= 1.63D-06  0.00D+00 EMaxC= 1.00D-01 BMatC= 1.27D-10 BMatP= 3.74D-10
 IDIUse=1 WtCom= 1.00D+00 WtEn= 0.00D+00
 Coeff-Com:  0.129D-03 0.139D-02-0.883D-03-0.595D-01-0.145D-01 0.389D+00
 Coeff-Com:  0.684D+00
 Coeff:      0.129D-03 0.139D-02-0.883D-03-0.595D-01-0.145D-01 0.389D+00
 Coeff:      0.684D+00
 Gap=     0.341 Goal=   None    Shift=    0.000
 RMSDP=8.46D-07 MaxDP=1.87D-05 DE=-3.78D-10 OVMax= 3.82D-06

 Cycle   8  Pass 1  IDiag  1:
 E= -191.795694543735     Delta-E=       -0.000000000132 Rises=F Damp=F
 DIIS: error= 3.40D-07 at cycle   8 NSaved=   8.
 NSaved= 8 IEnMin= 8 EnMin= -191.795694543735     IErMin= 8 ErrMin= 3.40D-07
 ErrMax= 3.40D-07  0.00D+00 EMaxC= 1.00D-01 BMatC= 4.84D-12 BMatP= 1.27D-10
 IDIUse=1 WtCom= 1.00D+00 WtEn= 0.00D+00
 Coeff-Com: -0.771D-04 0.141D-02 0.177D-02-0.311D-01-0.208D-01 0.913D-01
 Coeff-Com:  0.239D+00 0.718D+00
 Coeff:     -0.771D-04 0.141D-02 0.177D-02-0.311D-01-0.208D-01 0.913D-01
 Coeff:      0.239D+00 0.718D+00
 Gap=     0.341 Goal=   None    Shift=    0.000
 RMSDP=2.19D-07 MaxDP=5.16D-06 DE=-1.32D-10 OVMax= 1.55D-06

 Cycle   9  Pass 1  IDiag  1:
 E= -191.795694543744     Delta-E=       -0.000000000008 Rises=F Damp=F
 DIIS: error= 9.64D-08 at cycle   9 NSaved=   9.
 NSaved= 9 IEnMin= 9 EnMin= -191.795694543744     IErMin= 9 ErrMin= 9.64D-08
 ErrMax= 9.64D-08  0.00D+00 EMaxC= 1.00D-01 BMatC= 4.08D-13 BMatP= 4.84D-12
 IDIUse=1 WtCom= 1.00D+00 WtEn= 0.00D+00
 Coeff-Com: -0.207D-04-0.947D-04 0.337D-03 0.606D-02 0.203D-02-0.499D-01
 Coeff-Com: -0.908D-01 0.870D-01 0.105D+01
 Coeff:     -0.207D-04-0.947D-04 0.337D-03 0.606D-02 0.203D-02-0.499D-01
 Coeff:     -0.908D-01 0.870D-01 0.105D+01
 Gap=     0.341 Goal=   None    Shift=    0.000
 RMSDP=1.73D-07 MaxDP=4.17D-06 DE=-8.36D-12 OVMax= 8.19D-07

 Cycle  10  Pass 1  IDiag  1:
 E= -191.795694543743     Delta-E=        0.000000000000 Rises=F Damp=F
 DIIS: error= 2.52D-08 at cycle  10 NSaved=  10.
 NSaved=10 IEnMin= 9 EnMin= -191.795694543744     IErMin=10 ErrMin= 2.52D-08
 ErrMax= 2.52D-08  0.00D+00 EMaxC= 1.00D-01 BMatC= 1.82D-14 BMatP= 4.08D-13
 IDIUse=1 WtCom= 1.00D+00 WtEn= 0.00D+00
 Coeff-Com:  0.604D-05-0.464D-04-0.112D-03 0.398D-03 0.835D-03 0.401D-02
 Coeff-Com: -0.583D-02-0.299D-01-0.146D+00 0.118D+01
 Coeff:      0.604D-05-0.464D-04-0.112D-03 0.398D-03 0.835D-03 0.401D-02
 Coeff:     -0.583D-02-0.299D-01-0.146D+00 0.118D+01
 Gap=     0.341 Goal=   None    Shift=    0.000
 RMSDP=3.57D-08 MaxDP=8.03D-07 DE= 2.27D-13 OVMax= 2.59D-07

 Cycle  11  Pass 1  IDiag  1:
 E= -191.795694543744     Delta-E=       -0.000000000001 Rises=F Damp=F
 DIIS: error= 1.20D-08 at cycle  11 NSaved=  11.
 NSaved=11 IEnMin=11 EnMin= -191.795694543744     IErMin=11 ErrMin= 1.20D-08
 ErrMax= 1.20D-08  0.00D+00 EMaxC= 1.00D-01 BMatC= 1.22D-15 BMatP= 1.82D-14
 IDIUse=1 WtCom= 1.00D+00 WtEn= 0.00D+00
 Coeff-Com: -0.115D-05 0.231D-04 0.260D-04-0.530D-03-0.436D-03 0.165D-02
 Coeff-Com:  0.784D-02 0.681D-02-0.980D-02-0.456D+00 0.145D+01
 Coeff:     -0.115D-05 0.231D-04 0.260D-04-0.530D-03-0.436D-03 0.165D-02
 Coeff:      0.784D-02 0.681D-02-0.980D-02-0.456D+00 0.145D+01
 Gap=     0.341 Goal=   None    Shift=    0.000
 RMSDP=6.11D-09 MaxDP=7.53D-08 DE=-7.39D-13 OVMax= 1.47D-07

 SCF Done:  E(RwB97XD) =  -191.795694544     A.U. after   11 cycles
            NFock= 11  Conv=0.61D-08     -V/T= 2.0058
 KE= 1.906952756221D+02 PE=-6.524213560671D+02 EE= 1.674251759005D+02
 Leave Link  502 at Wed May 12 13:36:37 2021, MaxMem=  2147483648 cpu:         7.5
 (Enter /opt/cluster/programs/g09_d.01/g09/l701.exe)
 Compute integral first derivatives.
 ... and contract with generalized density number  0.
 R6Disp: Adding Grimme-D2 dispersion energy 1st derivatives to the gradient.
 Leave Link  701 at Wed May 12 13:36:37 2021, MaxMem=  2147483648 cpu:         0.6
 (Enter /opt/cluster/programs/g09_d.01/g09/l702.exe)
 L702 exits ... SP integral derivatives will be done elsewhere.
 Leave Link  702 at Wed May 12 13:36:37 2021, MaxMem=  2147483648 cpu:         0.2
 (Enter /opt/cluster/programs/g09_d.01/g09/l703.exe)
 Compute integral first derivatives, UseDBF=F ICtDFT=           0.
 Integral derivatives from FoFJK, PRISM(SPDF).
 Calling FoFJK, ICntrl=      2127 FMM=F ISym2X=0 I1Cent= 0 IOpClX= 0 NMat=1 NMatS=1 NMatT=0.
 FoFJK:  IHMeth= 1 ICntrl=    2127 DoSepK=T KAlg= 0 I1Cent=   0 FoldK=F
 IRaf=         1 NMat=   1 IRICut=       1 DoRegI=T DoRafI=F ISym2E= 0.
 FoFCou: FMM=F IPFlag=           0 FMFlag=      100000 FMFlg1=         800
         NFxFlg=           0 DoJE=F BraDBF=F KetDBF=F FulRan=T
         wScrn=  0.000000 ICntrl=    2527 IOpCl=  0 I1Cent=           0 NGrid=           0
         NMat0=    1 NMatS0=      1 NMatT0=    0 NMatD0=    1 NMtDS0=    0 NMtDT0=    0
 Symmetry not used in FoFCou.
 Leave Link  703 at Wed May 12 13:36:37 2021, MaxMem=  2147483648 cpu:         2.4
 (Enter /opt/cluster/programs/g09_d.01/g09/l716.exe)
 Dipole        = 1.46943177D+00 3.46652516D-01 3.32880718D-05
 ***** Axes restored to original set *****
 -------------------------------------------------------------------
 Center     Atomic                   Forces (Hartrees/Bohr)
 Number     Number              X              Y              Z
 -------------------------------------------------------------------
      1        6           0.000906578   -0.000006736    0.000049592
      2        6           0.000213883   -0.000009275   -0.000619825
      3        6          -0.002464410    0.000047790    0.000111791
      4        8           0.000866305   -0.000017715    0.000278901
      5        1           0.000405085   -0.000013658    0.000036634
      6        1           0.000192970   -0.000000048    0.000019507
      7        1           0.000075820   -0.000000904   -0.000057897
      8        1          -0.000196230    0.000000545    0.000181297
 -------------------------------------------------------------------
 Cartesian Forces:  Max     0.002464410 RMS     0.000593535
 Leave Link  716 at Wed May 12 13:36:37 2021, MaxMem=  2147483648 cpu:         0.2
 (Enter /opt/cluster/programs/g09_d.01/g09/l103.exe)

 GradGradGradGradGradGradGradGradGradGradGradGradGradGradGradGradGradGrad
 Berny optimization.
 Using GEDIIS/GDIIS optimizer.
 FormGI is forming the generalized inverse of G from B-inverse, IUseBI=4.
 Internal  Forces:  Max     0.001170220 RMS     0.000428076
 Search for a local minimum.
 Step number   2 out of a maximum of   34
 All quantities printed in internal units (Hartrees-Bohrs-Radians)
 RMS Force = .42808D-03 SwitMx=.10000D-02 MixMth= 2
 Mixed Optimization -- En-DIIS/RFO-DIIS
 Update second derivatives using D2CorX and points    1    2
 DE= -1.19D-04 DEPred=-1.26D-04 R= 9.48D-01
 TightC=F SS=  1.41D+00  RLast= 2.13D-02 DXNew= 5.0454D-01 6.3873D-02
 Trust test= 9.48D-01 RLast= 2.13D-02 DXMaxT set to 3.00D-01
 ITU=  1  0
 Use linear search instead of GDIIS.
     Eigenvalues ---    0.01190   0.01190   0.02043   0.02810   0.02810
     Eigenvalues ---    0.15975   0.16000   0.16000   0.16374   0.21960
     Eigenvalues ---    0.23005   0.33148   0.34932   0.35026   0.35359
     Eigenvalues ---    0.36062   0.62092   0.76596
 RFO step:  Lambda=-1.01857087D-05 EMin= 1.18998511D-02
 Quartic linear search produced a step of -0.05323.
 Iteration  1 RMS(Cart)=  0.00144284 RMS(Int)=  0.00000140
 Iteration  2 RMS(Cart)=  0.00000163 RMS(Int)=  0.00000013
 Iteration  3 RMS(Cart)=  0.00000000 RMS(Int)=  0.00000013
 ITry= 1 IFail=0 DXMaxC= 3.71D-03 DCOld= 1.00D+10 DXMaxT= 3.00D-01 DXLimC= 3.00D+00 Rises=F
 Variable       Old X    -DE/DX   Delta X   Delta X   Delta X     New X
                                 (Linear)    (Quad)   (Total)
    R1        2.53072   0.00117   0.00063   0.00086   0.00149   2.53221
    R2        2.04881   0.00011   0.00009   0.00013   0.00021   2.04902
    R3        2.05626  -0.00002   0.00003  -0.00011  -0.00008   2.05618
    R4        2.77367   0.00108   0.00002   0.00280   0.00282   2.77649
    R5        2.05285  -0.00008   0.00009  -0.00039  -0.00030   2.05254
    R6        2.33802  -0.00089   0.00068  -0.00219  -0.00151   2.33652
    R7        2.08487   0.00020   0.00021   0.00019   0.00040   2.08527
    A1        2.12966   0.00017   0.00016   0.00069   0.00085   2.13051
    A2        2.11774   0.00001   0.00000   0.00006   0.00005   2.11779
    A3        2.03579  -0.00017  -0.00016  -0.00075  -0.00090   2.03488
    A4        2.11282   0.00029   0.00030   0.00072   0.00102   2.11384
    A5        2.13253   0.00011  -0.00008   0.00102   0.00094   2.13348
    A6        2.03783  -0.00040  -0.00022  -0.00174  -0.00196   2.03587
    A7        2.15804   0.00054   0.00028   0.00184   0.00212   2.16016
    A8        2.02939  -0.00064  -0.00030  -0.00278  -0.00308   2.02631
    A9        2.09576   0.00009   0.00002   0.00094   0.00096   2.09672
    D1        3.14158   0.00000   0.00000   0.00006   0.00006  -3.14154
    D2        0.00000   0.00000   0.00000   0.00002   0.00002   0.00002
    D3       -0.00001   0.00000   0.00000   0.00004   0.00004   0.00003
    D4       -3.14159   0.00000   0.00000   0.00000   0.00000  -3.14159
    D5        3.14145   0.00001   0.00001   0.00078   0.00079  -3.14094
    D6        0.00013  -0.00001  -0.00001  -0.00080  -0.00081  -0.00068
    D7       -0.00015   0.00001   0.00001   0.00082   0.00083   0.00068
    D8       -3.14146  -0.00001  -0.00001  -0.00077  -0.00078   3.14095
         Item               Value     Threshold  Converged?
 Maximum Force            0.001170     0.000450     NO 
 RMS     Force            0.000428     0.000300     NO 
 Maximum Displacement     0.003707     0.001800     NO 
 RMS     Displacement     0.001443     0.001200     NO 
 Predicted change in Energy=-5.490407D-06
 Lowest energy point so far.  Saving SCF results.
 GradGradGradGradGradGradGradGradGradGradGradGradGradGradGradGradGradGrad

 Leave Link  103 at Wed May 12 13:36:37 2021, MaxMem=  2147483648 cpu:         0.0
 (Enter /opt/cluster/programs/g09_d.01/g09/l202.exe)
                          Input orientation:                          
 ---------------------------------------------------------------------
 Center     Atomic      Atomic             Coordinates (Angstroms)
 Number     Number       Type             X           Y           Z
 ---------------------------------------------------------------------
      1          6           0        3.417862   -0.050287   -0.898543
      2          6           0        2.090188   -0.040459   -1.079527
      3          6           0        1.168016   -0.038421    0.064284
      4          8           0       -0.063477   -0.030191   -0.045811
      5          1           0        1.634755   -0.046078    1.064165
      6          1           0        4.112399   -0.051886   -1.731199
      7          1           0        3.853054   -0.057077    0.098697
      8          1           0        1.640202   -0.033601   -2.068066
 ---------------------------------------------------------------------
                    Distance matrix (angstroms):
                    1          2          3          4          5
     1  C    0.000000
     2  C    1.339989   0.000000
     3  C    2.447240   1.469255   0.000000
     4  O    3.584310   2.388922   1.236432   0.000000
     5  H    2.651737   2.191545   1.103479   2.028864   0.000000
     6  H    1.084297   2.124651   3.448671   4.503215   3.735346
     7  H    1.088083   2.120421   2.685324   3.919289   2.419319
     8  H    2.127943   1.086160   2.184009   2.644248   3.132260
                    6          7          8
     6  H    0.000000
     7  H    1.848189   0.000000
     8  H    2.495110   3.097116   0.000000
 Stoichiometry    C3H4O
 Framework group  C1[X(C3H4O)]
 Deg. of freedom    18
 Full point group                 C1      NOp   1
 RotChk:  IX=0 Diff= 2.09D-04
 Largest Abelian subgroup         C1      NOp   1
 Largest concise Abelian subgroup C1      NOp   1
                         Standard orientation:                         
 ---------------------------------------------------------------------
 Center     Atomic      Atomic             Coordinates (Angstroms)
 Number     Number       Type             X           Y           Z
 ---------------------------------------------------------------------
      1          6           0        1.769018    0.136894    0.000089
      2          6           0        0.561959   -0.444980   -0.000084
      3          6           0       -0.668173    0.358441   -0.000328
      4          8           0       -1.805614   -0.126316    0.000175
      5          1           0       -0.532733    1.453577    0.000312
      6          1           0        2.686605   -0.440803    0.000224
      7          1           0        1.875263    1.219777    0.000084
      8          1           0        0.438956   -1.524153   -0.000082
 ---------------------------------------------------------------------
 Rotational constants (GHZ):     47.8836478      4.6028240      4.1991775
 Leave Link  202 at Wed May 12 13:36:37 2021, MaxMem=  2147483648 cpu:         0.0
 (Enter /opt/cluster/programs/g09_d.01/g09/l301.exe)
 Standard basis: 6-31+G (6D, 7F)
 Ernie: Thresh=  0.10000D-02 Tol=  0.10000D-05 Strict=F.
 There are    60 symmetry adapted cartesian basis functions of A   symmetry.
 There are    60 symmetry adapted basis functions of A   symmetry.
    60 basis functions,   120 primitive gaussians,    60 cartesian basis functions
    15 alpha electrons       15 beta electrons
       nuclear repulsion energy       102.4698748055 Hartrees.
 IExCor= 4639 DFT=T Ex+Corr=wB97XD ExCW=0 ScaHFX=  1.000000
 ScaDFX=  1.000000  1.000000  1.000000  1.000000 ScalE2=  1.000000  1.000000
 IRadAn=      0 IRanWt=     -1 IRanGd=            0 ICorTp=0 IEmpDi=121
  HFx wShort=  0.000000 wLong=  0.200000 cFull=  0.222036 cShort=  0.000000 cLong=  0.777964
  DFx wShort=  0.000000 wLong=  0.200000 cFull=  0.000000 cShort=  0.000000 cLong=  1.000000
 NAtoms=    8 NActive=    8 NUniq=    8 SFac= 1.00D+00 NAtFMM=   60 NAOKFM=F Big=F
 Integral buffers will be    131072 words long.
 Raffenetti 2 integral format.
 Two-electron integral symmetry is turned on.
 R6Disp:  Grimme-D2 Dispersion energy=       -0.0018039595 Hartrees.
 Nuclear repulsion after empirical dispersion term =      102.4680708459 Hartrees.
 Leave Link  301 at Wed May 12 13:36:37 2021, MaxMem=  2147483648 cpu:         0.3
 (Enter /opt/cluster/programs/g09_d.01/g09/l302.exe)
 NPDir=0 NMtPBC=     1 NCelOv=     1 NCel=       1 NClECP=     1 NCelD=      1
         NCelK=      1 NCelE2=     1 NClLst=     1 CellRange=     0.0.
 One-electron integrals computed using PRISM.
 NBasis=    60 RedAO= T EigKep=  1.15D-04  NBF=    60
 NBsUse=    60 1.00D-06 EigRej= -1.00D+00 NBFU=    60
 Precomputing XC quadrature grid using
 IXCGrd= 4 IRadAn=           0 IRanWt=          -1 IRanGd=           0 AccXCQ= 0.00D+00.
 Generated NRdTot=       0 NPtTot=           0 NUsed=           0 NTot=          32
 NSgBfM=    60    60    60    60    60 MxSgAt=     8 MxSgA2=     8.
 Leave Link  302 at Wed May 12 13:36:37 2021, MaxMem=  2147483648 cpu:         0.8
 (Enter /opt/cluster/programs/g09_d.01/g09/l303.exe)
 DipDrv:  MaxL=1.
 Leave Link  303 at Wed May 12 13:36:38 2021, MaxMem=  2147483648 cpu:         0.2
 (Enter /opt/cluster/programs/g09_d.01/g09/l401.exe)
 Initial guess from the checkpoint file:  "/home/unibas/boittier/RDKit_G2/L.pdb/OPT_wB97XD_6-31+G/L.pdb.chk"
 B after Tr=     0.000000    0.000000    0.000000
         Rot=    1.000000    0.000000    0.000000   -0.000013 Ang=   0.00 deg.
 Guess basis will be translated and rotated to current coordinates.
 JPrj=2 DoOrth=T DoCkMO=T.
 Leave Link  401 at Wed May 12 13:36:38 2021, MaxMem=  2147483648 cpu:         0.6
 (Enter /opt/cluster/programs/g09_d.01/g09/l502.exe)
 Closed shell SCF:
 Using DIIS extrapolation, IDIIS=  1040.
 Integral symmetry usage will be decided dynamically.
 Keep R1 ints in memory in canonical form, NReq=4262490.
 IVT=       30290 IEndB=       30290 NGot=  2147483648 MDV=  2144102629
 LenX=  2144102629 LenY=  2144098588
 Requested convergence on RMS density matrix=1.00D-08 within 128 cycles.
 Requested convergence on MAX density matrix=1.00D-06.
 Requested convergence on             energy=1.00D-06.
 No special actions if energy rises.
 FoFCou: FMM=F IPFlag=           0 FMFlag=           0 FMFlg1=           0
         NFxFlg=           0 DoJE=F BraDBF=F KetDBF=F FulRan=T
         wScrn=  0.000000 ICntrl=     600 IOpCl=  0 I1Cent=           0 NGrid=           0
         NMat0=    1 NMatS0=   1830 NMatT0=    0 NMatD0=    1 NMtDS0=    0 NMtDT0=    0
 Symmetry not used in FoFCou.

 Cycle   1  Pass 1  IDiag  1:
 E= -191.795697984441    
 DIIS: error= 1.14D-04 at cycle   1 NSaved=   1.
 NSaved= 1 IEnMin= 1 EnMin= -191.795697984441     IErMin= 1 ErrMin= 1.14D-04
 ErrMax= 1.14D-04  0.00D+00 EMaxC= 1.00D-01 BMatC= 1.87D-06 BMatP= 1.87D-06
 IDIUse=3 WtCom= 9.99D-01 WtEn= 1.14D-03
 Coeff-Com:  0.100D+01
 Coeff-En:   0.100D+01
 Coeff:      0.100D+01
 Gap=     0.616 Goal=   None    Shift=    0.000
 RMSDP=8.51D-05 MaxDP=1.14D-03              OVMax= 5.33D-04

 Cycle   2  Pass 1  IDiag  1:
 E= -191.795700065542     Delta-E=       -0.000002081101 Rises=F Damp=F
 DIIS: error= 1.19D-04 at cycle   2 NSaved=   2.
 NSaved= 2 IEnMin= 2 EnMin= -191.795700065542     IErMin= 1 ErrMin= 1.14D-04
 ErrMax= 1.19D-04  0.00D+00 EMaxC= 1.00D-01 BMatC= 6.82D-07 BMatP= 1.87D-06
 IDIUse=3 WtCom= 9.99D-01 WtEn= 1.19D-03
 Coeff-Com:  0.305D+00 0.695D+00
 Coeff-En:   0.000D+00 0.100D+01
 Coeff:      0.305D+00 0.695D+00
 Gap=     0.341 Goal=   None    Shift=    0.000
 RMSDP=3.91D-05 MaxDP=7.24D-04 DE=-2.08D-06 OVMax= 3.60D-04

 Cycle   3  Pass 1  IDiag  1:
 E= -191.795700338020     Delta-E=       -0.000000272478 Rises=F Damp=F
 DIIS: error= 9.25D-05 at cycle   3 NSaved=   3.
 NSaved= 3 IEnMin= 3 EnMin= -191.795700338020     IErMin= 3 ErrMin= 9.25D-05
 ErrMax= 9.25D-05  0.00D+00 EMaxC= 1.00D-01 BMatC= 4.03D-07 BMatP= 6.82D-07
 IDIUse=1 WtCom= 1.00D+00 WtEn= 0.00D+00
 Coeff-Com: -0.765D-01 0.440D+00 0.637D+00
 Coeff:     -0.765D-01 0.440D+00 0.637D+00
 Gap=     0.341 Goal=   None    Shift=    0.000
 RMSDP=1.90D-05 MaxDP=2.90D-04 DE=-2.72D-07 OVMax= 2.25D-04

 Cycle   4  Pass 1  IDiag  1:
 E= -191.795700660753     Delta-E=       -0.000000322733 Rises=F Damp=F
 DIIS: error= 8.91D-06 at cycle   4 NSaved=   4.
 NSaved= 4 IEnMin= 4 EnMin= -191.795700660753     IErMin= 4 ErrMin= 8.91D-06
 ErrMax= 8.91D-06  0.00D+00 EMaxC= 1.00D-01 BMatC= 6.75D-09 BMatP= 4.03D-07
 IDIUse=1 WtCom= 1.00D+00 WtEn= 0.00D+00
 Coeff-Com: -0.370D-01 0.119D+00 0.227D+00 0.692D+00
 Coeff:     -0.370D-01 0.119D+00 0.227D+00 0.692D+00
 Gap=     0.341 Goal=   None    Shift=    0.000
 RMSDP=3.44D-06 MaxDP=6.73D-05 DE=-3.23D-07 OVMax= 2.88D-05

 Cycle   5  Pass 1  IDiag  1:
 E= -191.795700667893     Delta-E=       -0.000000007140 Rises=F Damp=F
 DIIS: error= 3.88D-06 at cycle   5 NSaved=   5.
 NSaved= 5 IEnMin= 5 EnMin= -191.795700667893     IErMin= 5 ErrMin= 3.88D-06
 ErrMax= 3.88D-06  0.00D+00 EMaxC= 1.00D-01 BMatC= 5.02D-10 BMatP= 6.75D-09
 IDIUse=1 WtCom= 1.00D+00 WtEn= 0.00D+00
 Coeff-Com:  0.292D-02-0.376D-01-0.296D-01 0.131D+00 0.933D+00
 Coeff:      0.292D-02-0.376D-01-0.296D-01 0.131D+00 0.933D+00
 Gap=     0.341 Goal=   None    Shift=    0.000
 RMSDP=1.43D-06 MaxDP=2.12D-05 DE=-7.14D-09 OVMax= 1.70D-05

 Cycle   6  Pass 1  IDiag  1:
 E= -191.795700668838     Delta-E=       -0.000000000945 Rises=F Damp=F
 DIIS: error= 1.25D-06 at cycle   6 NSaved=   6.
 NSaved= 6 IEnMin= 6 EnMin= -191.795700668838     IErMin= 6 ErrMin= 1.25D-06
 ErrMax= 1.25D-06  0.00D+00 EMaxC= 1.00D-01 BMatC= 8.05D-11 BMatP= 5.02D-10
 IDIUse=1 WtCom= 1.00D+00 WtEn= 0.00D+00
 Coeff-Com:  0.370D-02-0.228D-01-0.265D-01 0.565D-02 0.374D+00 0.666D+00
 Coeff:      0.370D-02-0.228D-01-0.265D-01 0.565D-02 0.374D+00 0.666D+00
 Gap=     0.341 Goal=   None    Shift=    0.000
 RMSDP=3.77D-07 MaxDP=5.16D-06 DE=-9.45D-10 OVMax= 6.20D-06

 Cycle   7  Pass 1  IDiag  1:
 E= -191.795700668989     Delta-E=       -0.000000000152 Rises=F Damp=F
 DIIS: error= 7.44D-07 at cycle   7 NSaved=   7.
 NSaved= 7 IEnMin= 7 EnMin= -191.795700668989     IErMin= 7 ErrMin= 7.44D-07
 ErrMax= 7.44D-07  0.00D+00 EMaxC= 1.00D-01 BMatC= 9.54D-12 BMatP= 8.05D-11
 IDIUse=1 WtCom= 1.00D+00 WtEn= 0.00D+00
 Coeff-Com: -0.314D-03 0.578D-02 0.288D-02-0.267D-01-0.165D+00 0.811D-01
 Coeff-Com:  0.110D+01
 Coeff:     -0.314D-03 0.578D-02 0.288D-02-0.267D-01-0.165D+00 0.811D-01
 Coeff:      0.110D+01
 Gap=     0.341 Goal=   None    Shift=    0.000
 RMSDP=2.36D-07 MaxDP=2.25D-06 DE=-1.52D-10 OVMax= 6.88D-06

 Cycle   8  Pass 1  IDiag  1:
 E= -191.795700669034     Delta-E=       -0.000000000045 Rises=F Damp=F
 DIIS: error= 3.07D-07 at cycle   8 NSaved=   8.
 NSaved= 8 IEnMin= 8 EnMin= -191.795700669034     IErMin= 8 ErrMin= 3.07D-07
 ErrMax= 3.07D-07  0.00D+00 EMaxC= 1.00D-01 BMatC= 9.92D-13 BMatP= 9.54D-12
 IDIUse=1 WtCom= 1.00D+00 WtEn= 0.00D+00
 Coeff-Com: -0.379D-03 0.284D-02 0.297D-02-0.269D-02-0.502D-01-0.598D-01
 Coeff-Com:  0.100D+00 0.101D+01
 Coeff:     -0.379D-03 0.284D-02 0.297D-02-0.269D-02-0.502D-01-0.598D-01
 Coeff:      0.100D+00 0.101D+01
 Gap=     0.341 Goal=   None    Shift=    0.000
 RMSDP=9.67D-08 MaxDP=1.06D-06 DE=-4.52D-11 OVMax= 2.90D-06

 Cycle   9  Pass 1  IDiag  1:
 E= -191.795700669041     Delta-E=       -0.000000000007 Rises=F Damp=F
 DIIS: error= 1.40D-07 at cycle   9 NSaved=   9.
 NSaved= 9 IEnMin= 9 EnMin= -191.795700669041     IErMin= 9 ErrMin= 1.40D-07
 ErrMax= 1.40D-07  0.00D+00 EMaxC= 1.00D-01 BMatC= 2.17D-13 BMatP= 9.92D-13
 IDIUse=1 WtCom= 1.00D+00 WtEn= 0.00D+00
 Coeff-Com:  0.297D-04-0.125D-02-0.398D-03 0.678D-02 0.379D-01-0.303D-01
 Coeff-Com: -0.273D+00 0.295D-01 0.123D+01
 Coeff:      0.297D-04-0.125D-02-0.398D-03 0.678D-02 0.379D-01-0.303D-01
 Coeff:     -0.273D+00 0.295D-01 0.123D+01
 Gap=     0.341 Goal=   None    Shift=    0.000
 RMSDP=7.54D-08 MaxDP=1.04D-06 DE=-6.65D-12 OVMax= 2.13D-06

 Cycle  10  Pass 1  IDiag  1:
 E= -191.795700669043     Delta-E=       -0.000000000002 Rises=F Damp=F
 DIIS: error= 2.49D-08 at cycle  10 NSaved=  10.
 NSaved=10 IEnMin=10 EnMin= -191.795700669043     IErMin=10 ErrMin= 2.49D-08
 ErrMax= 2.49D-08  0.00D+00 EMaxC= 1.00D-01 BMatC= 1.39D-14 BMatP= 2.17D-13
 IDIUse=1 WtCom= 1.00D+00 WtEn= 0.00D+00
 Coeff-Com:  0.283D-04-0.465D-04-0.255D-03-0.661D-03-0.130D-02 0.882D-02
 Coeff-Com:  0.384D-01-0.118D+00-0.178D+00 0.125D+01
 Coeff:      0.283D-04-0.465D-04-0.255D-03-0.661D-03-0.130D-02 0.882D-02
 Coeff:      0.384D-01-0.118D+00-0.178D+00 0.125D+01
 Gap=     0.341 Goal=   None    Shift=    0.000
 RMSDP=1.68D-08 MaxDP=2.06D-07 DE=-2.33D-12 OVMax= 4.92D-07

 Cycle  11  Pass 1  IDiag  1:
 E= -191.795700669046     Delta-E=       -0.000000000002 Rises=F Damp=F
 DIIS: error= 4.62D-09 at cycle  11 NSaved=  11.
 NSaved=11 IEnMin=11 EnMin= -191.795700669046     IErMin=11 ErrMin= 4.62D-09
 ErrMax= 4.62D-09  0.00D+00 EMaxC= 1.00D-01 BMatC= 5.45D-16 BMatP= 1.39D-14
 IDIUse=1 WtCom= 1.00D+00 WtEn= 0.00D+00
 Coeff-Com: -0.493D-05 0.672D-04 0.612D-04-0.333D-03-0.186D-02 0.300D-03
 Coeff-Com:  0.119D-01 0.945D-02-0.458D-01-0.143D+00 0.117D+01
 Coeff:     -0.493D-05 0.672D-04 0.612D-04-0.333D-03-0.186D-02 0.300D-03
 Coeff:      0.119D-01 0.945D-02-0.458D-01-0.143D+00 0.117D+01
 Gap=     0.341 Goal=   None    Shift=    0.000
 RMSDP=6.51D-09 MaxDP=1.54D-07 DE=-2.16D-12 OVMax= 5.58D-08

 SCF Done:  E(RwB97XD) =  -191.795700669     A.U. after   11 cycles
            NFock= 11  Conv=0.65D-08     -V/T= 2.0058
 KE= 1.906920255375D+02 PE=-6.523423578058D+02 EE= 1.673865607534D+02
 Leave Link  502 at Wed May 12 13:36:39 2021, MaxMem=  2147483648 cpu:         7.4
 (Enter /opt/cluster/programs/g09_d.01/g09/l701.exe)
 Compute integral first derivatives.
 ... and contract with generalized density number  0.
 R6Disp: Adding Grimme-D2 dispersion energy 1st derivatives to the gradient.
 Leave Link  701 at Wed May 12 13:36:39 2021, MaxMem=  2147483648 cpu:         0.6
 (Enter /opt/cluster/programs/g09_d.01/g09/l702.exe)
 L702 exits ... SP integral derivatives will be done elsewhere.
 Leave Link  702 at Wed May 12 13:36:39 2021, MaxMem=  2147483648 cpu:         0.2
 (Enter /opt/cluster/programs/g09_d.01/g09/l703.exe)
 Compute integral first derivatives, UseDBF=F ICtDFT=           0.
 Integral derivatives from FoFJK, PRISM(SPDF).
 Calling FoFJK, ICntrl=      2127 FMM=F ISym2X=0 I1Cent= 0 IOpClX= 0 NMat=1 NMatS=1 NMatT=0.
 FoFJK:  IHMeth= 1 ICntrl=    2127 DoSepK=T KAlg= 0 I1Cent=   0 FoldK=F
 IRaf=         1 NMat=   1 IRICut=       1 DoRegI=T DoRafI=F ISym2E= 0.
 FoFCou: FMM=F IPFlag=           0 FMFlag=      100000 FMFlg1=         800
         NFxFlg=           0 DoJE=F BraDBF=F KetDBF=F FulRan=T
         wScrn=  0.000000 ICntrl=    2527 IOpCl=  0 I1Cent=           0 NGrid=           0
         NMat0=    1 NMatS0=      1 NMatT0=    0 NMatD0=    1 NMtDS0=    0 NMtDT0=    0
 Symmetry not used in FoFCou.
 Leave Link  703 at Wed May 12 13:36:39 2021, MaxMem=  2147483648 cpu:         2.4
 (Enter /opt/cluster/programs/g09_d.01/g09/l716.exe)
 Dipole        = 1.46791655D+00 3.45516648D-01-1.49183093D-04
 ***** Axes restored to original set *****
 -------------------------------------------------------------------
 Center     Atomic                   Forces (Hartrees/Bohr)
 Number     Number              X              Y              Z
 -------------------------------------------------------------------
      1        6          -0.000068923    0.000002023    0.000017584
      2        6           0.000247544    0.000048491   -0.000130265
      3        6          -0.000461353   -0.000149107    0.000091550
      4        8           0.000096863    0.000050822   -0.000035958
      5        1           0.000208621    0.000050387    0.000090872
      6        1           0.000025507   -0.000006583   -0.000004493
      7        1           0.000019900    0.000002861    0.000017560
      8        1          -0.000068159    0.000001106   -0.000046850
 -------------------------------------------------------------------
 Cartesian Forces:  Max     0.000461353 RMS     0.000129899
 Leave Link  716 at Wed May 12 13:36:39 2021, MaxMem=  2147483648 cpu:         0.2
 (Enter /opt/cluster/programs/g09_d.01/g09/l103.exe)

 GradGradGradGradGradGradGradGradGradGradGradGradGradGradGradGradGradGrad
 Berny optimization.
 Using GEDIIS/GDIIS optimizer.
 FormGI is forming the generalized inverse of G from B-inverse, IUseBI=4.
 Internal  Forces:  Max     0.000208060 RMS     0.000080449
 Search for a local minimum.
 Step number   3 out of a maximum of   34
 All quantities printed in internal units (Hartrees-Bohrs-Radians)
 RMS Force = .80449D-04 SwitMx=.10000D-02 MixMth= 2
 Mixed Optimization -- En-DIIS/RFO-DIIS
 Swapping is turned off.
 Update second derivatives using D2CorX and points    1    2    3
 DE= -6.13D-06 DEPred=-5.49D-06 R= 1.12D+00
 TightC=F SS=  1.41D+00  RLast= 6.12D-03 DXNew= 5.0454D-01 1.8373D-02
 Trust test= 1.12D+00 RLast= 6.12D-03 DXMaxT set to 3.00D-01
 ITU=  1  1  0
     Eigenvalues ---    0.01190   0.01228   0.02045   0.02810   0.02810
     Eigenvalues ---    0.14000   0.16000   0.16005   0.16139   0.21699
     Eigenvalues ---    0.23943   0.31989   0.34125   0.35003   0.35368
     Eigenvalues ---    0.35467   0.63655   0.76801
 En-DIIS/RFO-DIIS IScMMF=        0 using points:     3    2
 RFO step:  Lambda=-4.37637858D-07.
 NNeg= 0 NP= 2 Switch=  2.50D-03 Rises=F DC=  6.13D-06 SmlDif=  1.00D-05
 RMS Error=  0.2756887661D-03 NUsed= 2 EDIIS=F
 DidBck=F Rises=F RFO-DIIS coefs:    1.13728   -0.13728
 Iteration  1 RMS(Cart)=  0.00151478 RMS(Int)=  0.00000661
 Iteration  2 RMS(Cart)=  0.00000524 RMS(Int)=  0.00000439
 Iteration  3 RMS(Cart)=  0.00000000 RMS(Int)=  0.00000439
 ITry= 1 IFail=0 DXMaxC= 4.83D-03 DCOld= 1.00D+10 DXMaxT= 3.00D-01 DXLimC= 3.00D+00 Rises=F
 Variable       Old X    -DE/DX   Delta X   Delta X   Delta X     New X
                                 (Linear)    (Quad)   (Total)
    R1        2.53221  -0.00002   0.00020  -0.00014   0.00006   2.53227
    R2        2.04902   0.00002   0.00003   0.00004   0.00007   2.04910
    R3        2.05618   0.00003  -0.00001   0.00008   0.00007   2.05625
    R4        2.77649   0.00021   0.00039   0.00071   0.00110   2.77759
    R5        2.05254   0.00007  -0.00004   0.00020   0.00016   2.05271
    R6        2.33652  -0.00009  -0.00021  -0.00030  -0.00051   2.33601
    R7        2.08527   0.00017   0.00006   0.00054   0.00059   2.08586
    A1        2.13051   0.00003   0.00012   0.00016   0.00028   2.13079
    A2        2.11779  -0.00001   0.00001  -0.00003  -0.00003   2.11776
    A3        2.03488  -0.00002  -0.00012  -0.00013  -0.00025   2.03463
    A4        2.11384  -0.00007   0.00014  -0.00043  -0.00029   2.11355
    A5        2.13348   0.00008   0.00013   0.00050   0.00063   2.13411
    A6        2.03587   0.00000  -0.00027  -0.00008  -0.00035   2.03553
    A7        2.16016   0.00002   0.00029   0.00010   0.00038   2.16053
    A8        2.02631  -0.00016  -0.00042  -0.00114  -0.00157   2.02474
    A9        2.09672   0.00014   0.00013   0.00105   0.00117   2.09789
    D1       -3.14154  -0.00001   0.00001  -0.00034  -0.00034   3.14131
    D2        0.00002   0.00000   0.00000  -0.00012  -0.00012  -0.00010
    D3        0.00003   0.00000   0.00001  -0.00023  -0.00022  -0.00019
    D4       -3.14159   0.00000   0.00000   0.00000   0.00000   3.14159
    D5       -3.14094  -0.00005   0.00011  -0.00467  -0.00456   3.13768
    D6       -0.00068   0.00005  -0.00011   0.00482   0.00471   0.00403
    D7        0.00068  -0.00005   0.00011  -0.00488  -0.00477  -0.00409
    D8        3.14095   0.00005  -0.00011   0.00461   0.00450  -3.13774
         Item               Value     Threshold  Converged?
 Maximum Force            0.000208     0.000450     YES
 RMS     Force            0.000080     0.000300     YES
 Maximum Displacement     0.004832     0.001800     NO 
 RMS     Displacement     0.001515     0.001200     NO 
 Predicted change in Energy=-9.118272D-07
 Lowest energy point so far.  Saving SCF results.
 GradGradGradGradGradGradGradGradGradGradGradGradGradGradGradGradGradGrad

 Leave Link  103 at Wed May 12 13:36:39 2021, MaxMem=  2147483648 cpu:         0.0
 (Enter /opt/cluster/programs/g09_d.01/g09/l202.exe)
                          Input orientation:                          
 ---------------------------------------------------------------------
 Center     Atomic      Atomic             Coordinates (Angstroms)
 Number     Number       Type             X           Y           Z
 ---------------------------------------------------------------------
      1          6           0        3.417791   -0.050259   -0.898467
      2          6           0        2.090146   -0.041121   -1.079936
      3          6           0        1.167515   -0.040978    0.064253
      4          8           0       -0.063713   -0.028771   -0.045420
      5          1           0        1.635905   -0.044775    1.063729
      6          1           0        4.112890   -0.050775   -1.730704
      7          1           0        3.852609   -0.057660    0.098972
      8          1           0        1.639857   -0.033662   -2.068426
 ---------------------------------------------------------------------
                    Distance matrix (angstroms):
                    1          2          3          4          5
     1  C    0.000000
     2  C    1.340021   0.000000
     3  C    2.447582   1.469835   0.000000
     4  O    3.584553   2.389453   1.236163   0.000000
     5  H    2.650539   2.191266   1.103792   2.029574   0.000000
     6  H    1.084335   2.124873   3.449232   4.503852   3.734212
     7  H    1.088120   2.120465   2.685370   3.919089   2.417581
     8  H    2.128410   1.086245   2.184372   2.644756   3.132177
                    6          7          8
     6  H    0.000000
     7  H    1.848109   0.000000
     8  H    2.496045   3.097492   0.000000
 Stoichiometry    C3H4O
 Framework group  C1[X(C3H4O)]
 Deg. of freedom    18
 Full point group                 C1      NOp   1
 RotChk:  IX=0 Diff= 7.84D-04
 Largest Abelian subgroup         C1      NOp   1
 Largest concise Abelian subgroup C1      NOp   1
                         Standard orientation:                         
 ---------------------------------------------------------------------
 Center     Atomic      Atomic             Coordinates (Angstroms)
 Number     Number       Type             X           Y           Z
 ---------------------------------------------------------------------
      1          6           0        1.769079    0.137036   -0.000534
      2          6           0        0.562225   -0.445336    0.000509
      3          6           0       -0.668483    0.358263    0.001966
      4          8           0       -1.805804   -0.126083   -0.001053
      5          1           0       -0.531413    1.453505   -0.001861
[...]
     11 -0.791370D-04  0.434425D-02 -0.593282D-01  0.637090D-03 -0.523005D-02
     12  0.188265D-01 -0.615951D-01  0.612389D-03 -0.109177D+00  0.589540D-01
     13  0.201916D-01 -0.839083D-01  0.474926D-03 -0.753248D-01 -0.364450D-01
     14  0.151900D-04  0.456814D-03 -0.588271D-01  0.134030D-02  0.425999D-03
     15 -0.219264D-01 -0.699092D-01  0.129406D-02 -0.262398D+00 -0.144973D-01
     16  0.290845D-01 -0.269530D-02  0.131341D-03 -0.431242D-02 -0.184779D-02
     17 -0.190114D-03  0.117100D-03  0.140892D-01  0.872833D-04 -0.472713D-05
     18  0.851763D-02 -0.929489D-03  0.638171D-04 -0.554482D-03 -0.467341D-03
     19 -0.339612D-01  0.163212D-03 -0.535834D-04 -0.337478D-02  0.120037D-02
     20  0.265667D-03 -0.811801D-04 -0.964299D-02 -0.194460D-04  0.603779D-05
     21 -0.109210D-02  0.386558D-02 -0.681518D-04  0.109803D-02 -0.110487D-02
     22 -0.106078D+00  0.937375D-02 -0.124499D-03  0.232534D-01  0.174172D-02
     23  0.172760D-02  0.299375D-04  0.444620D-02 -0.564450D-04 -0.285459D-04
     24 -0.300921D+00 -0.164123D-01  0.214071D-03 -0.217491D-01  0.142515D-02
               11            12            13            14            15 
     11  0.214259D-01
     12 -0.643416D-03  0.840174D-01
     13  0.532357D-03 -0.403976D-01  0.113741D+00
     14  0.186083D-01  0.317449D-03 -0.993864D-03  0.226339D-01
     15  0.145556D-03  0.683675D-02  0.933969D-01 -0.166360D-02  0.278570D+00
     16 -0.136831D-04  0.153879D-02  0.191896D-03 -0.978474D-05  0.348749D-03
     17 -0.293313D-02 -0.241510D-04 -0.709986D-05 -0.102278D-02 -0.869879D-05
     18 -0.103569D-04  0.495711D-03 -0.298868D-03 -0.426374D-05  0.554212D-03
     19 -0.186140D-05  0.105234D-02 -0.279008D-03  0.000000D+00  0.163032D-02
     20  0.150944D-02  0.000000D+00  0.983751D-05  0.602908D-03 -0.100251D-04
     21  0.140489D-04 -0.213468D-03 -0.990387D-03  0.764093D-05  0.367337D-03
     22 -0.101621D-04 -0.338597D-02 -0.221745D-02  0.202509D-04  0.267704D-02
     23 -0.171637D-02  0.000000D+00  0.207790D-04  0.231156D-02  0.000000D+00
     24 -0.331807D-04  0.435798D-02  0.256261D-02  0.115278D-05 -0.246135D-02
               16            17            18            19            20 
     16  0.185979D+00
     17 -0.482506D-03  0.259107D-01
     18 -0.155633D+00  0.215344D-03  0.242256D+00
     19  0.938311D-02 -0.100193D-03  0.185828D-01  0.107853D+00
     20  0.181921D-04  0.530100D-02 -0.467942D-04 -0.100439D-02  0.252751D-01
     21 -0.117957D-01  0.160097D-03 -0.151578D-01  0.113202D+00 -0.190114D-02
     22  0.910345D-03 -0.602576D-04  0.362208D-03 -0.434251D-02  0.107153D-03
     23 -0.571500D-04 -0.771176D-02 -0.362306D-04  0.104268D-03  0.113684D-01
     24 -0.393906D-03 -0.308938D-04  0.932848D-03  0.729057D-03  0.356523D-04
               21            22            23            24 
     21  0.314685D+00
     22 -0.342698D-05  0.111078D+00
     23  0.408908D-04 -0.101948D-02  0.275723D-01
     24  0.910904D-03  0.115303D+00 -0.191418D-02  0.316641D+00
 FormGI is forming the generalized inverse of G from B-inverse, IUseBI=4.
 Force constants in internal coordinates: 
                1             2             3             4             5 
      1  0.640716D+00
      2  0.244768D-02  0.372280D+00
      3  0.536693D-02  0.429137D-03  0.364613D+00
      4  0.223763D-01 -0.545957D-03 -0.652118D-03  0.332033D+00
      5  0.268075D-02  0.759908D-03 -0.312817D-03  0.201925D-02  0.368326D+00
      6 -0.886767D-02  0.764331D-03  0.515748D-03  0.514709D-01  0.223331D-02
      7  0.271040D-02 -0.305425D-04  0.463181D-03  0.552413D-02  0.432159D-03
      8  0.124517D-01  0.631059D-02 -0.139536D-01  0.277237D-02 -0.186286D-02
      9  0.110755D-01 -0.126035D-01  0.833192D-02 -0.245905D-02  0.235120D-02
     10 -0.235271D-01  0.629286D-02  0.562173D-02 -0.313323D-03 -0.488347D-03
     11  0.190840D-01  0.319163D-02 -0.391509D-02  0.202760D-01 -0.138111D-01
     12  0.891797D-02 -0.229653D-02  0.407367D-02 -0.245450D-01  0.501239D-02
     13 -0.280019D-01 -0.895100D-03 -0.158579D-03  0.426895D-02  0.879873D-02
     14  0.987217D-02  0.135506D-02 -0.525085D-03  0.152537D-01 -0.488820D-02
     15 -0.629855D-02 -0.108940D-02  0.163915D-02  0.102915D-01  0.427137D-02
     16 -0.357362D-02 -0.265664D-03 -0.111406D-02 -0.255451D-01  0.616830D-03
     17  0.000000D+00  0.000000D+00  0.000000D+00  0.000000D+00  0.000000D+00
     18  0.000000D+00  0.000000D+00  0.000000D+00  0.000000D+00  0.000000D+00
     19  0.000000D+00  0.000000D+00  0.000000D+00  0.000000D+00  0.000000D+00
     20  0.000000D+00  0.000000D+00  0.000000D+00  0.000000D+00  0.000000D+00
     21  0.000000D+00  0.000000D+00  0.000000D+00 -0.383048D-05  0.000000D+00
     22  0.000000D+00  0.000000D+00  0.000000D+00  0.350235D-05  0.000000D+00
     23  0.000000D+00  0.000000D+00  0.000000D+00 -0.347447D-05  0.000000D+00
     24  0.000000D+00  0.000000D+00  0.000000D+00  0.385836D-05  0.000000D+00
                6             7             8             9            10 
      6  0.770849D+00
      7  0.294576D-01  0.320666D+00
      8  0.327993D-02 -0.119002D-03  0.848117D-01
      9 -0.330751D-02  0.135371D-02 -0.480524D-01  0.880695D-01
     10  0.275795D-04 -0.123471D-02 -0.367594D-01 -0.400172D-01  0.767765D-01
     11  0.562694D-02 -0.153881D-02  0.105494D-01 -0.757449D-02 -0.297496D-02
     12 -0.223397D-02 -0.112683D-02 -0.887502D-02  0.950143D-02 -0.626413D-03
     13 -0.339297D-02  0.266565D-02 -0.167443D-02 -0.192695D-02  0.360137D-02
     14  0.245022D-01 -0.155463D-01  0.244527D-02 -0.142316D-03 -0.230295D-02
     15 -0.438129D-01  0.115335D-01 -0.118950D-02  0.578446D-03  0.611053D-03
     16  0.193108D-01  0.401274D-02 -0.125577D-02 -0.436130D-03  0.169190D-02
     17  0.000000D+00  0.000000D+00  0.000000D+00  0.000000D+00  0.000000D+00
     18  0.000000D+00  0.000000D+00  0.000000D+00  0.000000D+00  0.000000D+00
     19  0.000000D+00  0.000000D+00  0.000000D+00  0.000000D+00  0.000000D+00
     20  0.000000D+00  0.000000D+00  0.000000D+00  0.000000D+00  0.000000D+00
     21 -0.648629D-05 -0.170908D-05  0.000000D+00  0.000000D+00  0.000000D+00
     22  0.680690D-05  0.148564D-05  0.000000D+00  0.000000D+00  0.000000D+00
     23 -0.705235D-05 -0.177798D-05  0.000000D+00  0.000000D+00  0.000000D+00
     24  0.624084D-05  0.141673D-05  0.000000D+00  0.000000D+00  0.000000D+00
               11            12            13            14            15 
     11  0.120259D+00
     12 -0.616893D-01  0.941552D-01
     13 -0.585700D-01 -0.324659D-01  0.910359D-01
     14  0.234346D-01 -0.823232D-03 -0.226114D-01  0.146244D+00
     15 -0.162315D-01 -0.183021D-02  0.180617D-01 -0.649692D-01  0.106279D+00
     16 -0.720311D-02  0.265344D-02  0.454967D-02 -0.812747D-01 -0.413095D-01
     17  0.000000D+00  0.000000D+00  0.000000D+00 -0.152216D-05  0.000000D+00
     18  0.000000D+00  0.000000D+00  0.000000D+00  0.000000D+00  0.000000D+00
     19  0.000000D+00  0.000000D+00  0.000000D+00  0.000000D+00  0.000000D+00
     20  0.000000D+00  0.000000D+00  0.000000D+00  0.000000D+00  0.000000D+00
     21  0.000000D+00  0.000000D+00  0.000000D+00 -0.800387D-05 -0.560873D-05
     22  0.143440D-05  0.000000D+00  0.000000D+00  0.861707D-05  0.585862D-05
     23  0.000000D+00  0.000000D+00  0.000000D+00 -0.899162D-05 -0.538411D-05
     24  0.000000D+00  0.000000D+00  0.000000D+00  0.762932D-05  0.608323D-05
               16            17            18            19            20 
     16  0.122584D+00
     17  0.000000D+00  0.240258D-01
     18  0.000000D+00  0.161743D-01  0.215872D-01
     19  0.000000D+00 -0.600260D-03 -0.622060D-02  0.219303D-01
     20  0.000000D+00 -0.845178D-02 -0.807725D-03  0.163100D-01  0.239540D-01
     21  0.492255D-05 -0.291641D-03  0.417749D-02 -0.524452D-03  0.394468D-02
     22 -0.529358D-05 -0.487248D-02  0.201594D-02 -0.363722D-02  0.325121D-02
     23  0.513559D-05  0.713466D-02 -0.942237D-03  0.479151D-02 -0.328539D-02
     24 -0.508054D-05  0.255382D-02 -0.310379D-02  0.167874D-02 -0.397886D-02
               21            22            23            24 
     21  0.215976D-01
     22 -0.145506D-01  0.236444D-01
     23  0.173705D-01 -0.210660D-01  0.250099D-01
     24 -0.187777D-01  0.171291D-01 -0.134265D-01  0.224803D-01
 Leave Link  716 at Wed May 12 13:36:49 2021, MaxMem=  2147483648 cpu:         0.2
 (Enter /opt/cluster/programs/g09_d.01/g09/l103.exe)

 GradGradGradGradGradGradGradGradGradGradGradGradGradGradGradGradGradGrad
 Berny optimization.
 Red2BG is reusing G-inverse.
 Internal  Forces:  Max     0.000095285 RMS     0.000026324
 Search for a local minimum.
 Step number   1 out of a maximum of    2
 All quantities printed in internal units (Hartrees-Bohrs-Radians)
 Second derivative matrix not updated -- analytic derivatives used.
 ITU=  0
     Eigenvalues ---    0.00616   0.02463   0.03064   0.04749   0.07530
     Eigenvalues ---    0.11040   0.11261   0.12662   0.14547   0.17279
     Eigenvalues ---    0.22912   0.32364   0.33810   0.36615   0.37076
     Eigenvalues ---    0.37345   0.64711   0.78347
 Angle between quadratic step and forces=  39.46 degrees.
 Linear search not attempted -- first point.
 Iteration  1 RMS(Cart)=  0.00011897 RMS(Int)=  0.00000001
 Iteration  2 RMS(Cart)=  0.00000001 RMS(Int)=  0.00000000
 ITry= 1 IFail=0 DXMaxC= 2.93D-04 DCOld= 1.00D+10 DXMaxT= 3.00D-01 DXLimC= 3.00D+00 Rises=F
 Variable       Old X    -DE/DX   Delta X   Delta X   Delta X     New X
                                 (Linear)    (Quad)   (Total)
    R1        2.53216  -0.00003   0.00000  -0.00002  -0.00002   2.53214
    R2        2.04909   0.00000   0.00000  -0.00001  -0.00001   2.04907
    R3        2.05627   0.00000   0.00000   0.00000   0.00000   2.05627
    R4        2.77753  -0.00005   0.00000  -0.00018  -0.00018   2.77734
    R5        2.05275  -0.00001   0.00000  -0.00003  -0.00003   2.05272
    R6        2.33605   0.00010   0.00000   0.00016   0.00016   2.33621
    R7        2.08592  -0.00001   0.00000  -0.00006  -0.00006   2.08585
    A1        2.13078   0.00000   0.00000   0.00004   0.00004   2.13081
    A2        2.11775  -0.00001   0.00000  -0.00004  -0.00004   2.11770
    A3        2.03466   0.00000   0.00000   0.00001   0.00001   2.03467
    A4        2.11340  -0.00003   0.00000  -0.00016  -0.00016   2.11324
    A5        2.13414   0.00000   0.00000  -0.00005  -0.00005   2.13408
    A6        2.03565   0.00003   0.00000   0.00021   0.00021   2.03586
    A7        2.16044  -0.00001   0.00000  -0.00001  -0.00001   2.16043
    A8        2.02476   0.00003   0.00000   0.00022   0.00022   2.02498
    A9        2.09798  -0.00002   0.00000  -0.00021  -0.00021   2.09777
    D1       -3.14158   0.00000   0.00000  -0.00001  -0.00001  -3.14159
    D2        0.00000   0.00000   0.00000   0.00000   0.00000   0.00000
    D3        0.00001   0.00000   0.00000  -0.00001  -0.00001   0.00000
    D4       -3.14159   0.00000   0.00000   0.00000   0.00000   3.14159
    D5       -3.14146  -0.00001   0.00000  -0.00014  -0.00014   3.14159
    D6       -0.00014   0.00001   0.00000   0.00014   0.00014   0.00000
    D7        0.00014  -0.00001   0.00000  -0.00014  -0.00014   0.00000
    D8        3.14146   0.00001   0.00000   0.00013   0.00013   3.14159
         Item               Value     Threshold  Converged?
 Maximum Force            0.000095     0.000450     YES
 RMS     Force            0.000026     0.000300     YES
 Maximum Displacement     0.000293     0.001800     YES
 RMS     Displacement     0.000119     0.001200     YES
 Predicted change in Energy=-2.760190D-08
 Optimization completed.
    -- Stationary point found.
                           ----------------------------
                           !   Optimized Parameters   !
                           ! (Angstroms and Degrees)  !
 --------------------------                            --------------------------
 ! Name  Definition              Value          Derivative Info.                !
 --------------------------------------------------------------------------------
 ! R1    R(1,2)                  1.34           -DE/DX =    0.0                 !
 ! R2    R(1,6)                  1.0843         -DE/DX =    0.0                 !
 ! R3    R(1,7)                  1.0881         -DE/DX =    0.0                 !
 ! R4    R(2,3)                  1.4698         -DE/DX =    0.0                 !
 ! R5    R(2,8)                  1.0863         -DE/DX =    0.0                 !
 ! R6    R(3,4)                  1.2362         -DE/DX =    0.0001              !
 ! R7    R(3,5)                  1.1038         -DE/DX =    0.0                 !
 ! A1    A(2,1,6)              122.0845         -DE/DX =    0.0                 !
 ! A2    A(2,1,7)              121.338          -DE/DX =    0.0                 !
 ! A3    A(6,1,7)              116.5776         -DE/DX =    0.0                 !
 ! A4    A(1,2,3)              121.089          -DE/DX =    0.0                 !
 ! A5    A(1,2,8)              122.2769         -DE/DX =    0.0                 !
 ! A6    A(3,2,8)              116.6341         -DE/DX =    0.0                 !
 ! A7    A(2,3,4)              123.7843         -DE/DX =    0.0                 !
 ! A8    A(2,3,5)              116.0105         -DE/DX =    0.0                 !
 ! A9    A(4,3,5)              120.2052         -DE/DX =    0.0                 !
 ! D1    D(6,1,2,3)           -179.9995         -DE/DX =    0.0                 !
 ! D2    D(6,1,2,8)              0.0002         -DE/DX =    0.0                 !
 ! D3    D(7,1,2,3)              0.0004         -DE/DX =    0.0                 !
 ! D4    D(7,1,2,8)            180.0            -DE/DX =    0.0                 !
 ! D5    D(1,2,3,4)            180.0078         -DE/DX =    0.0                 !
 ! D6    D(1,2,3,5)             -0.0081         -DE/DX =    0.0                 !
 ! D7    D(8,2,3,4)              0.0082         -DE/DX =    0.0                 !
 ! D8    D(8,2,3,5)            179.9922         -DE/DX =    0.0                 !
 --------------------------------------------------------------------------------
 GradGradGradGradGradGradGradGradGradGradGradGradGradGradGradGradGradGrad

 Leave Link  103 at Wed May 12 13:36:49 2021, MaxMem=  2147483648 cpu:         0.0
 (Enter /opt/cluster/programs/g09_d.01/g09/l9999.exe)
 1\1\GINC-NODE08\Freq\RwB97XD\6-31+G\C3H4O1\BOITTIER\12-May-2021\0\\#P 
 Geom=AllCheck Guess=TCheck SCRF=Check GenChk RwB97XD/6-31+G Freq\\L.pd
 b\\0,1\C,3.4176984388,-0.0502831065,-0.8984419773\C,2.090128865,-0.040
 5311927,-1.0799854882\C,1.1676230564,-0.0387078309,0.0642633748\O,-0.0
 636558582,-0.0300321707,-0.0454407716\H,1.6360660177,-0.0459364357,1.0
 637262266\H,4.1128286835,-0.0517652594,-1.7306464351\H,3.8524449428,-0
 .0571401921,0.0990413288\H,1.6398658541,-0.0336038121,-2.068516258\\Ve
 rsion=ES64L-G09RevD.01\State=1-A\HF=-191.7957011\RMSD=1.646e-09\RMSF=4
 .468e-05\ZeroPoint=0.0625219\Thermal=0.0668376\Dipole=1.5019468,-0.009
 6674,-0.1246629\DipoleDeriv=0.1533134,-0.0028974,-0.0384164,-0.0032733
 ,-0.293075,-0.0012797,0.064734,-0.0019715,0.1004253,-0.4495409,0.00109
 32,0.1984633,0.000514,-0.1759359,-0.0016097,0.3478619,-0.0026169,-0.11
 03989,1.3745812,-0.0075322,-0.100839,-0.0062549,0.2124105,-0.0017756,-
 0.4193891,0.0004077,0.8329361,-1.1791605,0.0050522,0.084207,0.005124,-
 0.3907942,-0.0000661,0.0455967,0.0001984,-0.5189189,-0.0254213,0.00139
 99,-0.1331127,0.0010517,0.1034457,0.0020671,-0.0406262,0.0013961,-0.18
 28996,0.024877,0.000749,0.056408,0.0006577,0.1673692,0.0002894,0.07775
 31,0.0001387,-0.0045076,0.0702426,0.0008834,-0.0205459,0.0010811,0.188
 1025,0.0011422,-0.0704901,0.0014817,-0.0683679,0.0311085,0.0012519,-0.
 0461642,0.0010996,0.1884772,0.0012323,-0.0054404,0.0009658,-0.0482686\
 Polar=62.320649,-0.263697,21.9359338,-2.5764339,-0.0278304,33.4251016\
 PG=C01 [X(C3H4O1)]\NImag=0\\0.88099622,-0.00515765,0.13255346,0.014943
 16,-0.00217471,0.66341320,-0.55645868,0.00363641,-0.06339986,0.8667360
 2,0.00365874,-0.05920648,0.00072817,-0.00540029,0.12885501,-0.06894406
 ,0.00076667,-0.13532012,0.09621012,-0.00271722,0.65616946,-0.04445354,
 0.00023039,0.02753769,-0.11770467,0.00004813,0.05115930,0.91050057,0.0
 0033342,0.00517021,-0.00021500,0.00001678,-0.08197534,0.00021134,-0.00
 514544,0.18606793,0.00064692,-0.00003027,0.01194584,0.05836015,0.00015
 401,-0.22425388,0.06628342,-0.00211253,0.60508864,0.00804678,-0.000074
 69,0.00888490,-0.06717696,0.00053892,0.01233747,-0.67127572,0.00436705
 ,-0.06553196,0.76575663,-0.00005729,0.00217961,-0.00003060,0.00043644,
 0.02025433,-0.00007914,0.00434425,-0.05932816,0.00063709,-0.00523005,0
 .02142593,0.00466603,-0.00000314,-0.00514431,0.03916752,-0.00025807,0.
 01882647,-0.06159505,0.00061239,-0.10917654,0.05895398,-0.00064342,0.0
 8401739,0.00246741,-0.00003115,0.00086057,0.00644941,-0.00000579,0.020
 19163,-0.08390829,0.00047493,-0.07532477,-0.03644503,0.00053236,-0.040
 39764,0.11374107,-0.00002666,-0.00160547,-0.00001387,0.00012788,0.0172
 9864,0.00001519,0.00045681,-0.05882709,0.00134030,0.00042600,0.0186083
 5,0.00031745,-0.00099386,0.02263388,-0.00024317,-0.00000668,0.00045783
 ,-0.01340331,0.00024876,-0.02192635,-0.06990916,0.00129406,-0.26239849
 ,-0.01449733,0.00014556,0.00683675,0.09339685,-0.00166360,0.27857006,-
 0.17659004,0.00034904,0.14116266,-0.01533144,0.00006456,0.02908449,-0.
 00269530,0.00013134,-0.00431242,-0.00184779,-0.00001368,0.00153879,0.0
 0019190,-0.00000978,0.00034875,0.18597922,0.00032258,-0.04435937,-0.00
 020887,0.00021511,0.01072614,-0.00019011,0.00011710,0.01408924,0.00008
 728,-0.00000473,-0.00293313,-0.00002415,-0.00000710,-0.00102278,-0.000
 00870,-0.00048251,0.02591066,0.14786371,-0.00025496,-0.23704382,-0.009
 48035,0.00007344,0.00851763,-0.00092949,0.00006382,-0.00055448,-0.0004
 6734,-0.00001036,0.00049571,-0.00029887,-0.00000426,0.00055421,-0.1556
 3265,0.00021534,0.24225566,-0.10416202,0.00080507,-0.09786044,-0.00981
 570,0.00025132,-0.03396121,0.00016321,-0.00005358,-0.00337478,0.001200
 37,-0.00000186,0.00105234,-0.00027901,-0.00000063,0.00163032,0.0093831
 1,-0.00010019,0.01858278,0.10785255,0.00082620,-0.04205055,0.00167645,
 0.00011815,0.00763665,0.00026567,-0.00008118,-0.00964299,-0.00001945,0
 .00000604,0.00150944,-0.00000037,0.00000984,0.00060291,-0.00001003,0.0
 0001819,0.00530100,-0.00004679,-0.00100439,0.02527510,-0.10307643,0.00
 171171,-0.30059791,-0.00009668,0.00003490,-0.00109210,0.00386558,-0.00
 006815,0.00109803,-0.00110487,0.00001405,-0.00021347,-0.00099039,0.000
 00764,0.00036734,-0.01179572,0.00016010,-0.01515776,0.11320193,-0.0019
 0114,0.31468497,-0.00984613,0.00024259,-0.03212869,-0.10669797,0.00084
 440,-0.10607774,0.00937375,-0.00012450,0.02325342,0.00174172,-0.000010
 16,-0.00338597,-0.00221745,0.00002025,0.00267704,0.00091035,-0.0000602
 6,0.00036221,-0.00434251,0.00010715,-0.00000343,0.11107825,0.00010065,
 0.00731860,0.00023842,0.00084953,-0.04358895,0.00172760,0.00002994,0.0
 0444620,-0.00005644,-0.00002855,-0.00171637,-0.00000069,0.00002078,0.0
 0231156,0.00000063,-0.00005715,-0.00771176,-0.00003623,0.00010427,0.01
 136844,0.00004089,-0.00101948,0.02757228,0.00414384,-0.00000863,0.0022
 8931,-0.10735759,0.00173601,-0.30092110,-0.01641230,0.00021407,-0.0217
 4911,0.00142515,-0.00003318,0.00435798,0.00256261,0.00000115,-0.002461
 35,-0.00039391,-0.00003089,0.00093285,0.00072906,0.00003565,0.00091090
 ,0.11530315,-0.00191418,0.31664052\\0.00002678,-0.00000048,0.00000476,
 0.00004386,-0.00001068,-0.00001074,-0.00018422,0.00003306,0.00000884,0
 .00009403,-0.00001136,-0.00000570,0.00002434,-0.00001112,0.00000021,0.
 00000618,0.00000127,0.00000161,0.00000123,-0.00000068,0.00000133,-0.00
 001220,-0.00000002,-0.00000030\\\@


 NEVER TEACH A PIG TO SING.
 IT WASTES YOUR TIME AND ANNOYS THE PIG.
     -- SEEN ON A GREETING CARD
 Job cpu time:       0 days  0 hours  0 minutes 44.7 seconds.
 File lengths (MBytes):  RWF=      7 Int=      0 D2E=      0 Chk=      2 Scr=      1
 Normal termination of Gaussian 09 at Wed May 12 13:36:49 2021.
