 Entering Gaussian System, Link 0=/opt/cluster/programs/g09_d.01/g09//g09
 Input=/home/unibas/boittier/RDKit_G2/O.pdb/SCAN_1_2_6_8_S_17_20.0/3_SCAN_1_2_6_8_F/3_SCAN_O.pdb.com
 Output=/scratch/boittier/3_SCAN_O.pdb/3_SCAN_O.pdb.out
 Initial command:
 /opt/cluster/programs/g09_d.01/g09/l1.exe "/scratch/boittier/3_SCAN_O.pdb/Gau-181791.inp" -scrdir="/scratch/boittier/3_SCAN_O.pdb/"
 Entering Link 1 = /opt/cluster/programs/g09_d.01/g09/l1.exe PID=    181792.
  
 Copyright (c) 1988,1990,1992,1993,1995,1998,2003,2009,2013,
            Gaussian, Inc.  All Rights Reserved.
  
 This is part of the Gaussian(R) 09 program.  It is based on
 the Gaussian(R) 03 system (copyright 2003, Gaussian, Inc.),
 the Gaussian(R) 98 system (copyright 1998, Gaussian, Inc.),
 the Gaussian(R) 94 system (copyright 1995, Gaussian, Inc.),
 the Gaussian 92(TM) system (copyright 1992, Gaussian, Inc.),
 the Gaussian 90(TM) system (copyright 1990, Gaussian, Inc.),
 the Gaussian 88(TM) system (copyright 1988, Gaussian, Inc.),
 the Gaussian 86(TM) system (copyright 1986, Carnegie Mellon
 University), and the Gaussian 82(TM) system (copyright 1983,
 Carnegie Mellon University). Gaussian is a federally registered
 trademark of Gaussian, Inc.
  
 This software contains proprietary and confidential information,
 including trade secrets, belonging to Gaussian, Inc.
  
 This software is provided under written license and may be
 used, copied, transmitted, or stored only in accord with that
 written license.
  
 The following legend is applicable only to US Government
 contracts under FAR:
  
                    RESTRICTED RIGHTS LEGEND
  
 Use, reproduction and disclosure by the US Government is
 subject to restrictions as set forth in subparagraphs (a)
 and (c) of the Commercial Computer Software - Restricted
 Rights clause in FAR 52.227-19.
  
 Gaussian, Inc.
 340 Quinnipiac St., Bldg. 40, Wallingford CT 06492
  
  
 ---------------------------------------------------------------
 Warning -- This program may not be used in any manner that
 competes with the business of Gaussian, Inc. or will provide
 assistance to any competitor of Gaussian, Inc.  The licensee
 of this program is prohibited from giving any competitor of
 Gaussian, Inc. access to this program.  By using this program,
 the user acknowledges that Gaussian, Inc. is engaged in the
 business of creating and licensing software in the field of
 computational chemistry and represents and warrants to the
 licensee that it is not a competitor of Gaussian, Inc. and that
 it will not use this program in any manner prohibited above.
 ---------------------------------------------------------------
  

 Cite this work as:
 Gaussian 09, Revision D.01,
 M. J. Frisch, G. W. Trucks, H. B. Schlegel, G. E. Scuseria, 
 M. A. Robb, J. R. Cheeseman, G. Scalmani, V. Barone, B. Mennucci, 
 G. A. Petersson, H. Nakatsuji, M. Caricato, X. Li, H. P. Hratchian, 
 A. F. Izmaylov, J. Bloino, G. Zheng, J. L. Sonnenberg, M. Hada, 
 M. Ehara, K. Toyota, R. Fukuda, J. Hasegawa, M. Ishida, T. Nakajima, 
 Y. Honda, O. Kitao, H. Nakai, T. Vreven, J. A. Montgomery, Jr., 
 J. E. Peralta, F. Ogliaro, M. Bearpark, J. J. Heyd, E. Brothers, 
 K. N. Kudin, V. N. Staroverov, T. Keith, R. Kobayashi, J. Normand, 
 K. Raghavachari, A. Rendell, J. C. Burant, S. S. Iyengar, J. Tomasi, 
 M. Cossi, N. Rega, J. M. Millam, M. Klene, J. E. Knox, J. B. Cross, 
 V. Bakken, C. Adamo, J. Jaramillo, R. Gomperts, R. E. Stratmann, 
 O. Yazyev, A. J. Austin, R. Cammi, C. Pomelli, J. W. Ochterski, 
 R. L. Martin, K. Morokuma, V. G. Zakrzewski, G. A. Voth, 
 P. Salvador, J. J. Dannenberg, S. Dapprich, A. D. Daniels, 
 O. Farkas, J. B. Foresman, J. V. Ortiz, J. Cioslowski, 
 and D. J. Fox, Gaussian, Inc., Wallingford CT, 2013.
 
 ******************************************
 Gaussian 09:  ES64L-G09RevD.01 24-Apr-2013
                26-May-2021 
 ******************************************
 %chk=/home/unibas/boittier/RDKit_G2/O.pdb/SCAN_1_2_6_8_S_17_20.0/3_SCAN_1_2_6_8_
 F/O.pdb.chk
 %nproc=8
 Will use up to    8 processors via shared memory.
 %mem=16GB
 -----------------------------
 #p wB97XD/6-31+G Opt=ModRedun
 -----------------------------
 1/14=-1,18=120,19=15,26=3,38=1/1,3;
 2/9=110,12=2,17=6,18=5,40=1/2;
 3/5=1,6=6,7=10,11=2,16=1,25=1,30=1,71=1,74=-58/1,2,3;
 4//1;
 5/5=2,38=5/2;
 6/7=2,8=2,9=2,10=2,28=1/1;
 7//1,2,3,16;
 1/14=-1,18=20,19=15,26=3/3(2);
 2/9=110/2;
 99//99;
 2/9=110/2;
 3/5=1,6=6,7=10,11=2,16=1,25=1,30=1,71=1,74=-58/1,2,3;
 4/5=5,16=3,69=1/1;
 5/5=2,38=5/2;
 7//1,2,3,16;
 1/14=-1,18=20,19=15,26=3/3(-5);
 2/9=110/2;
 6/7=2,8=2,9=2,10=2,19=2,28=1/1;
 99/9=1/99;
 Leave Link    1 at Wed May 26 09:01:13 2021, MaxMem=  2147483648 cpu:         0.2
 (Enter /opt/cluster/programs/g09_d.01/g09/l101.exe)
 -----
 O.pdb
 -----
 Symbolic Z-matrix:
 Charge =  0 Multiplicity = 1
 C                     1.60215  -0.77874  -0.16691 
 C                     0.5126    0.20328   0.13318 
 H                     1.6774   -1.52833   0.62443 
 H                     2.55382  -0.2632   -0.2947 
 H                     1.34465  -1.30421  -1.09351 
 O                    -0.66273  -0.41522   0.52555 
 O                     0.58494   1.417    -0.02926 
 C                    -1.86318  -0.1772   -0.27421 
 H                    -2.02177   0.89391  -0.41765 
 H                    -2.68137  -0.61075   0.29568 
 H                    -1.75986  -0.68568  -1.2369 
 
 The following ModRedundant input section has been read:
 D       1       2       6       8 F                                           
 
 NAtoms=     11 NQM=       11 NQMF=       0 NMMI=      0 NMMIF=      0
                NMic=       0 NMicF=      0.
                    Isotopes and Nuclear Properties:
 (Nuclear quadrupole moments (NQMom) in fm**2, nuclear magnetic moments (NMagM)
  in nuclear magnetons)

  Atom         1           2           3           4           5           6           7           8           9          10
 IAtWgt=          12          12           1           1           1          16          16          12           1           1
 AtmWgt=  12.0000000  12.0000000   1.0078250   1.0078250   1.0078250  15.9949146  15.9949146  12.0000000   1.0078250   1.0078250
 NucSpn=           0           0           1           1           1           0           0           0           1           1
 AtZEff=   0.0000000   0.0000000   0.0000000   0.0000000   0.0000000   0.0000000   0.0000000   0.0000000   0.0000000   0.0000000
 NQMom=    0.0000000   0.0000000   0.0000000   0.0000000   0.0000000   0.0000000   0.0000000   0.0000000   0.0000000   0.0000000
 NMagM=    0.0000000   0.0000000   2.7928460   2.7928460   2.7928460   0.0000000   0.0000000   0.0000000   2.7928460   2.7928460
 AtZNuc=   6.0000000   6.0000000   1.0000000   1.0000000   1.0000000   8.0000000   8.0000000   6.0000000   1.0000000   1.0000000

  Atom        11
 IAtWgt=           1
 AtmWgt=   1.0078250
 NucSpn=           1
 AtZEff=   0.0000000
 NQMom=    0.0000000
 NMagM=    2.7928460
 AtZNuc=   1.0000000
 Leave Link  101 at Wed May 26 09:01:14 2021, MaxMem=  2147483648 cpu:         4.2
 (Enter /opt/cluster/programs/g09_d.01/g09/l103.exe)

 GradGradGradGradGradGradGradGradGradGradGradGradGradGradGradGradGradGrad
 Berny optimization.
 Initialization pass.
                           ----------------------------
                           !    Initial Parameters    !
                           ! (Angstroms and Degrees)  !
 --------------------------                            --------------------------
 ! Name  Definition              Value          Derivative Info.                !
 --------------------------------------------------------------------------------
 ! R1    R(1,2)                  1.4972         estimate D2E/DX2                !
 ! R2    R(1,3)                  1.0926         estimate D2E/DX2                !
 ! R3    R(1,4)                  1.0899         estimate D2E/DX2                !
 ! R4    R(1,5)                  1.0959         estimate D2E/DX2                !
 ! R5    R(2,6)                  1.3849         estimate D2E/DX2                !
 ! R6    R(2,7)                  1.2267         estimate D2E/DX2                !
 ! R7    R(6,8)                  1.462          estimate D2E/DX2                !
 ! R8    R(8,9)                  1.0922         estimate D2E/DX2                !
 ! R9    R(8,10)                 1.0873         estimate D2E/DX2                !
 ! R10   R(8,11)                 1.0936         estimate D2E/DX2                !
 ! A1    A(2,1,3)              110.7905         estimate D2E/DX2                !
 ! A2    A(2,1,4)              110.4075         estimate D2E/DX2                !
 ! A3    A(2,1,5)              108.2388         estimate D2E/DX2                !
 ! A4    A(3,1,4)              110.4453         estimate D2E/DX2                !
 ! A5    A(3,1,5)              107.4346         estimate D2E/DX2                !
 ! A6    A(4,1,5)              109.4412         estimate D2E/DX2                !
 ! A7    A(1,2,6)              112.4247         estimate D2E/DX2                !
 ! A8    A(1,2,7)              125.4179         estimate D2E/DX2                !
 ! A9    A(6,2,7)              121.9686         estimate D2E/DX2                !
 ! A10   A(2,6,8)              117.9806         estimate D2E/DX2                !
 ! A11   A(6,8,9)              110.5311         estimate D2E/DX2                !
 ! A12   A(6,8,10)             105.4416         estimate D2E/DX2                !
 ! A13   A(6,8,11)             109.1641         estimate D2E/DX2                !
 ! A14   A(9,8,10)             110.5245         estimate D2E/DX2                !
 ! A15   A(9,8,11)             110.7364         estimate D2E/DX2                !
 ! A16   A(10,8,11)            110.3094         estimate D2E/DX2                !
 ! D1    D(3,1,2,6)            -47.0744         estimate D2E/DX2                !
 ! D2    D(3,1,2,7)            137.8616         estimate D2E/DX2                !
 ! D3    D(4,1,2,6)           -169.7526         estimate D2E/DX2                !
 ! D4    D(4,1,2,7)             15.1834         estimate D2E/DX2                !
 ! D5    D(5,1,2,6)             70.4777         estimate D2E/DX2                !
 ! D6    D(5,1,2,7)           -104.5864         estimate D2E/DX2                !
 ! D7    D(1,2,6,8)           -120.6146         Frozen                          !
 ! D8    D(7,2,6,8)             54.6442         estimate D2E/DX2                !
 ! D9    D(2,6,8,9)            -51.3521         estimate D2E/DX2                !
 ! D10   D(2,6,8,10)          -170.8148         estimate D2E/DX2                !
 ! D11   D(2,6,8,11)            70.6817         estimate D2E/DX2                !
 --------------------------------------------------------------------------------
 Trust Radius=3.00D-01 FncErr=1.00D-07 GrdErr=1.00D-06
 Number of steps in this run=     47 maximum allowed number of steps=    100.
 GradGradGradGradGradGradGradGradGradGradGradGradGradGradGradGradGradGrad

 Leave Link  103 at Wed May 26 09:01:14 2021, MaxMem=  2147483648 cpu:         0.1
 (Enter /opt/cluster/programs/g09_d.01/g09/l202.exe)
                          Input orientation:                          
 ---------------------------------------------------------------------
 Center     Atomic      Atomic             Coordinates (Angstroms)
 Number     Number       Type             X           Y           Z
 ---------------------------------------------------------------------
      1          6           0        1.602150   -0.778744   -0.166910
      2          6           0        0.512602    0.203280    0.133177
      3          1           0        1.677404   -1.528328    0.624430
      4          1           0        2.553824   -0.263203   -0.294704
      5          1           0        1.344653   -1.304206   -1.093508
      6          8           0       -0.662725   -0.415219    0.525550
      7          8           0        0.584935    1.417002   -0.029261
      8          6           0       -1.863181   -0.177203   -0.274210
      9          1           0       -2.021768    0.893908   -0.417649
     10          1           0       -2.681367   -0.610754    0.295677
     11          1           0       -1.759857   -0.685682   -1.236899
 ---------------------------------------------------------------------
                    Distance matrix (angstroms):
                    1          2          3          4          5
     1  C    0.000000
     2  C    1.497177   0.000000
     3  H    1.092592   2.143959   0.000000
     4  H    1.089861   2.137119   1.792613   0.000000
     5  H    1.095901   2.114138   1.764161   1.784340   0.000000
     6  O    2.396103   1.384879   2.593259   3.322967   2.727859
     7  O    2.423835   1.226678   3.208702   2.601936   3.019067
     8  C    3.518790   2.440303   3.894719   4.417890   3.497368
     9  H    3.999177   2.683916   4.542800   4.721235   4.076921
    10  H    4.311696   3.300075   4.466420   5.279826   4.315037
    11  H    3.529395   2.798470   3.998670   4.435545   3.168772
                    6          7          8          9         10
     6  O    0.000000
     7  O    2.285061   0.000000
     8  C    1.461972   2.931682   0.000000
     9  H    2.109606   2.686889   1.092247   0.000000
    10  H    2.041076   3.858252   1.087275   1.791065   0.000000
    11  H    2.093580   3.373087   1.093616   1.798575   1.789856
                   11
    11  H    0.000000
 Stoichiometry    C3H6O2
 Framework group  C1[X(C3H6O2)]
 Deg. of freedom    27
 Full point group                 C1      NOp   1
 Largest Abelian subgroup         C1      NOp   1
 Largest concise Abelian subgroup C1      NOp   1
                         Standard orientation:                         
 ---------------------------------------------------------------------
 Center     Atomic      Atomic             Coordinates (Angstroms)
 Number     Number       Type             X           Y           Z
 ---------------------------------------------------------------------
      1          6           0       -1.602150   -0.778744    0.166910
      2          6           0       -0.512602    0.203280   -0.133177
      3          1           0       -1.677404   -1.528328   -0.624430
      4          1           0       -2.553824   -0.263204    0.294704
      5          1           0       -1.344653   -1.304206    1.093508
      6          8           0        0.662725   -0.415219   -0.525550
      7          8           0       -0.584936    1.417002    0.029261
      8          6           0        1.863181   -0.177202    0.274210
      9          1           0        2.021768    0.893909    0.417649
     10          1           0        2.681367   -0.610753   -0.295677
     11          1           0        1.759857   -0.685681    1.236899
 ---------------------------------------------------------------------
 Rotational constants (GHZ):      8.7548261      4.0974126      3.1099451
 Leave Link  202 at Wed May 26 09:01:14 2021, MaxMem=  2147483648 cpu:         0.0
 (Enter /opt/cluster/programs/g09_d.01/g09/l301.exe)
 Standard basis: 6-31+G (6D, 7F)
 Ernie: Thresh=  0.10000D-02 Tol=  0.10000D-05 Strict=F.
 There are    77 symmetry adapted cartesian basis functions of A   symmetry.
 There are    77 symmetry adapted basis functions of A   symmetry.
    77 basis functions,   154 primitive gaussians,    77 cartesian basis functions
    20 alpha electrons       20 beta electrons
       nuclear repulsion energy       178.7322831774 Hartrees.
 IExCor= 4639 DFT=T Ex+Corr=wB97XD ExCW=0 ScaHFX=  1.000000
 ScaDFX=  1.000000  1.000000  1.000000  1.000000 ScalE2=  1.000000  1.000000
 IRadAn=      0 IRanWt=     -1 IRanGd=            0 ICorTp=0 IEmpDi=121
  HFx wShort=  0.000000 wLong=  0.200000 cFull=  0.222036 cShort=  0.000000 cLong=  0.777964
  DFx wShort=  0.000000 wLong=  0.200000 cFull=  0.000000 cShort=  0.000000 cLong=  1.000000
 NAtoms=   11 NActive=   11 NUniq=   11 SFac= 1.00D+00 NAtFMM=   60 NAOKFM=F Big=F
 Integral buffers will be    131072 words long.
 Raffenetti 2 integral format.
 Two-electron integral symmetry is turned on.
 R6Disp:  Grimme-D2 Dispersion energy=       -0.0032708805 Hartrees.
 Nuclear repulsion after empirical dispersion term =      178.7290122970 Hartrees.
 Leave Link  301 at Wed May 26 09:01:14 2021, MaxMem=  2147483648 cpu:         0.3
 (Enter /opt/cluster/programs/g09_d.01/g09/l302.exe)
 NPDir=0 NMtPBC=     1 NCelOv=     1 NCel=       1 NClECP=     1 NCelD=      1
         NCelK=      1 NCelE2=     1 NClLst=     1 CellRange=     0.0.
 One-electron integrals computed using PRISM.
 NBasis=    77 RedAO= T EigKep=  1.54D-04  NBF=    77
 NBsUse=    77 1.00D-06 EigRej= -1.00D+00 NBFU=    77
 Precomputing XC quadrature grid using
 IXCGrd= 4 IRadAn=           0 IRanWt=          -1 IRanGd=           0 AccXCQ= 0.00D+00.
 Generated NRdTot=       0 NPtTot=           0 NUsed=           0 NTot=          32
 NSgBfM=    77    77    77    77    77 MxSgAt=    11 MxSgA2=    11.
 Leave Link  302 at Wed May 26 09:01:14 2021, MaxMem=  2147483648 cpu:         0.9
 (Enter /opt/cluster/programs/g09_d.01/g09/l303.exe)
 DipDrv:  MaxL=1.
 Leave Link  303 at Wed May 26 09:01:14 2021, MaxMem=  2147483648 cpu:         0.2
 (Enter /opt/cluster/programs/g09_d.01/g09/l401.exe)
 ExpMin= 4.38D-02 ExpMax= 5.48D+03 ExpMxC= 8.25D+02 IAcc=2 IRadAn=         4 AccDes= 0.00D+00
 Harris functional with IExCor= 4639 and IRadAn=       4 diagonalized for initial guess.
 HarFok:  IExCor= 4639 AccDes= 0.00D+00 IRadAn=         4 IDoV= 1 UseB2=F ITyADJ=14
 ICtDFT=  3500011 ScaDFX=  1.000000  1.000000  1.000000  1.000000
 FoFCou: FMM=F IPFlag=           0 FMFlag=      100000 FMFlg1=           0
         NFxFlg=           0 DoJE=T BraDBF=F KetDBF=T FulRan=T
         wScrn=  0.000000 ICntrl=     500 IOpCl=  0 I1Cent=   200000004 NGrid=           0
         NMat0=    1 NMatS0=      1 NMatT0=    0 NMatD0=    1 NMtDS0=    0 NMtDT0=    0
 Petite list used in FoFCou.
 Harris En= -257.356859520410    
 JPrj=0 DoOrth=F DoCkMO=F.
 Leave Link  401 at Wed May 26 09:01:14 2021, MaxMem=  2147483648 cpu:         1.4
 (Enter /opt/cluster/programs/g09_d.01/g09/l502.exe)
 Closed shell SCF:
 Using DIIS extrapolation, IDIIS=  1040.
 Integral symmetry usage will be decided dynamically.
 Keep R1 ints in memory in canonical form, NReq=9956864.
 IVT=       37546 IEndB=       37546 NGot=  2147483648 MDV=  2138425091
 LenX=  2138425091 LenY=  2138418721
 Requested convergence on RMS density matrix=1.00D-08 within 128 cycles.
 Requested convergence on MAX density matrix=1.00D-06.
 Requested convergence on             energy=1.00D-06.
 No special actions if energy rises.
 FoFCou: FMM=F IPFlag=           0 FMFlag=           0 FMFlg1=           0
         NFxFlg=           0 DoJE=F BraDBF=F KetDBF=F FulRan=T
         wScrn=  0.000000 ICntrl=     600 IOpCl=  0 I1Cent=           0 NGrid=           0
         NMat0=    1 NMatS0=   3003 NMatT0=    0 NMatD0=    1 NMtDS0=    0 NMtDT0=    0
 Symmetry not used in FoFCou.

 Cycle   1  Pass 1  IDiag  1:
 E= -268.117995986780    
 DIIS: error= 2.39D-02 at cycle   1 NSaved=   1.
 NSaved= 1 IEnMin= 1 EnMin= -268.117995986780     IErMin= 1 ErrMin= 2.39D-02
 ErrMax= 2.39D-02  0.00D+00 EMaxC= 1.00D-01 BMatC= 1.38D-01 BMatP= 1.38D-01
 IDIUse=3 WtCom= 7.61D-01 WtEn= 2.39D-01
 Coeff-Com:  0.100D+01
 Coeff-En:   0.100D+01
 Coeff:      0.100D+01
 Gap=     0.544 Goal=   None    Shift=    0.000
 GapD=    0.544 DampG=2.000 DampE=0.500 DampFc=1.0000 IDamp=-1.
 RMSDP=1.01D-02 MaxDP=2.03D-01              OVMax= 9.28D-02

 Cycle   2  Pass 1  IDiag  1:
 E= -268.141549964019     Delta-E=       -0.023553977239 Rises=F Damp=F
 DIIS: error= 3.00D-02 at cycle   2 NSaved=   2.
 NSaved= 2 IEnMin= 2 EnMin= -268.141549964019     IErMin= 1 ErrMin= 2.39D-02
 ErrMax= 3.00D-02  0.00D+00 EMaxC= 1.00D-01 BMatC= 8.29D-02 BMatP= 1.38D-01
 IDIUse=3 WtCom= 7.00D-01 WtEn= 3.00D-01
 Coeff-Com:  0.426D+00 0.574D+00
 Coeff-En:   0.408D+00 0.592D+00
 Coeff:      0.421D+00 0.579D+00
 Gap=     0.426 Goal=   None    Shift=    0.000
 RMSDP=5.13D-03 MaxDP=7.32D-02 DE=-2.36D-02 OVMax= 6.33D-02

 Cycle   3  Pass 1  IDiag  1:
 E= -268.199758134459     Delta-E=       -0.058208170440 Rises=F Damp=F
 DIIS: error= 9.31D-03 at cycle   3 NSaved=   3.
 NSaved= 3 IEnMin= 3 EnMin= -268.199758134459     IErMin= 3 ErrMin= 9.31D-03
 ErrMax= 9.31D-03  0.00D+00 EMaxC= 1.00D-01 BMatC= 9.05D-03 BMatP= 8.29D-02
 IDIUse=3 WtCom= 9.07D-01 WtEn= 9.31D-02
 Coeff-Com:  0.921D-01 0.266D+00 0.642D+00
 Coeff-En:   0.000D+00 0.000D+00 0.100D+01
 Coeff:      0.835D-01 0.242D+00 0.675D+00
 Gap=     0.435 Goal=   None    Shift=    0.000
 RMSDP=1.49D-03 MaxDP=2.13D-02 DE=-5.82D-02 OVMax= 3.12D-02

 Cycle   4  Pass 1  IDiag  1:
 E= -268.205105271206     Delta-E=       -0.005347136747 Rises=F Damp=F
 DIIS: error= 4.63D-03 at cycle   4 NSaved=   4.
 NSaved= 4 IEnMin= 4 EnMin= -268.205105271206     IErMin= 4 ErrMin= 4.63D-03
 ErrMax= 4.63D-03  0.00D+00 EMaxC= 1.00D-01 BMatC= 1.86D-03 BMatP= 9.05D-03
 IDIUse=3 WtCom= 9.54D-01 WtEn= 4.63D-02
 Coeff-Com: -0.270D-02 0.595D-01 0.369D+00 0.574D+00
 Coeff-En:   0.000D+00 0.000D+00 0.155D+00 0.845D+00
 Coeff:     -0.257D-02 0.567D-01 0.359D+00 0.587D+00
 Gap=     0.414 Goal=   None    Shift=    0.000
 RMSDP=9.88D-04 MaxDP=1.86D-02 DE=-5.35D-03 OVMax= 1.04D-02

 Cycle   5  Pass 1  IDiag  1:
 E= -268.206428157873     Delta-E=       -0.001322886667 Rises=F Damp=F
 DIIS: error= 7.44D-04 at cycle   5 NSaved=   5.
 NSaved= 5 IEnMin= 5 EnMin= -268.206428157873     IErMin= 5 ErrMin= 7.44D-04
 ErrMax= 7.44D-04  0.00D+00 EMaxC= 1.00D-01 BMatC= 1.05D-04 BMatP= 1.86D-03
 IDIUse=3 WtCom= 9.93D-01 WtEn= 7.44D-03
 Coeff-Com: -0.561D-02 0.139D-01 0.154D+00 0.315D+00 0.523D+00
 Coeff-En:   0.000D+00 0.000D+00 0.000D+00 0.000D+00 0.100D+01
 Coeff:     -0.557D-02 0.138D-01 0.153D+00 0.313D+00 0.526D+00
 Gap=     0.411 Goal=   None    Shift=    0.000
 RMSDP=1.41D-04 MaxDP=2.28D-03 DE=-1.32D-03 OVMax= 2.53D-03

 Cycle   6  Pass 1  IDiag  1:
 E= -268.206511978632     Delta-E=       -0.000083820760 Rises=F Damp=F
 DIIS: error= 1.11D-04 at cycle   6 NSaved=   6.
 NSaved= 6 IEnMin= 6 EnMin= -268.206511978632     IErMin= 6 ErrMin= 1.11D-04
 ErrMax= 1.11D-04  0.00D+00 EMaxC= 1.00D-01 BMatC= 2.38D-06 BMatP= 1.05D-04
 IDIUse=3 WtCom= 9.99D-01 WtEn= 1.11D-03
 Coeff-Com: -0.273D-03-0.767D-02-0.279D-01-0.369D-01 0.641D-01 0.101D+01
 Coeff-En:   0.000D+00 0.000D+00 0.000D+00 0.000D+00 0.000D+00 0.100D+01
 Coeff:     -0.272D-03-0.766D-02-0.278D-01-0.368D-01 0.641D-01 0.101D+01
 Gap=     0.412 Goal=   None    Shift=    0.000
 RMSDP=1.73D-04 MaxDP=4.01D-03 DE=-8.38D-05 OVMax= 8.46D-04

 Cycle   7  Pass 1  IDiag  1:
 E= -268.206516106948     Delta-E=       -0.000004128315 Rises=F Damp=F
 DIIS: error= 3.85D-05 at cycle   7 NSaved=   7.
 NSaved= 7 IEnMin= 7 EnMin= -268.206516106948     IErMin= 7 ErrMin= 3.85D-05
 ErrMax= 3.85D-05  0.00D+00 EMaxC= 1.00D-01 BMatC= 2.35D-07 BMatP= 2.38D-06
 IDIUse=1 WtCom= 1.00D+00 WtEn= 0.00D+00
 Coeff-Com:  0.422D-03-0.351D-02-0.198D-01-0.359D-01-0.119D-01 0.308D+00
 Coeff-Com:  0.763D+00
 Coeff:      0.422D-03-0.351D-02-0.198D-01-0.359D-01-0.119D-01 0.308D+00
 Coeff:      0.763D+00
 Gap=     0.412 Goal=   None    Shift=    0.000
 RMSDP=3.00D-05 MaxDP=5.88D-04 DE=-4.13D-06 OVMax= 2.47D-04

 Cycle   8  Pass 1  IDiag  1:
 E= -268.206516510683     Delta-E=       -0.000000403735 Rises=F Damp=F
 DIIS: error= 1.52D-05 at cycle   8 NSaved=   8.
 NSaved= 8 IEnMin= 8 EnMin= -268.206516510683     IErMin= 8 ErrMin= 1.52D-05
 ErrMax= 1.52D-05  0.00D+00 EMaxC= 1.00D-01 BMatC= 1.52D-08 BMatP= 2.35D-07
 IDIUse=1 WtCom= 1.00D+00 WtEn= 0.00D+00
 Coeff-Com: -0.211D-04 0.941D-03 0.399D-02 0.464D-02-0.294D-02-0.128D+00
 Coeff-Com: -0.447D-01 0.117D+01
 Coeff:     -0.211D-04 0.941D-03 0.399D-02 0.464D-02-0.294D-02-0.128D+00
 Coeff:     -0.447D-01 0.117D+01
 Gap=     0.412 Goal=   None    Shift=    0.000
 RMSDP=9.91D-06 MaxDP=1.17D-04 DE=-4.04D-07 OVMax= 1.68D-04

 Cycle   9  Pass 1  IDiag  1:
 E= -268.206516562194     Delta-E=       -0.000000051511 Rises=F Damp=F
 DIIS: error= 4.07D-06 at cycle   9 NSaved=   9.
 NSaved= 9 IEnMin= 9 EnMin= -268.206516562194     IErMin= 9 ErrMin= 4.07D-06
 ErrMax= 4.07D-06  0.00D+00 EMaxC= 1.00D-01 BMatC= 6.36D-10 BMatP= 1.52D-08
 IDIUse=1 WtCom= 1.00D+00 WtEn= 0.00D+00
 Coeff-Com: -0.168D-04 0.770D-04 0.634D-03 0.127D-02 0.197D-02 0.639D-03
 Coeff-Com: -0.362D-01-0.158D+00 0.119D+01
 Coeff:     -0.168D-04 0.770D-04 0.634D-03 0.127D-02 0.197D-02 0.639D-03
 Coeff:     -0.362D-01-0.158D+00 0.119D+01
 Gap=     0.412 Goal=   None    Shift=    0.000
 RMSDP=2.27D-06 MaxDP=3.42D-05 DE=-5.15D-08 OVMax= 4.17D-05

 Cycle  10  Pass 1  IDiag  1:
 E= -268.206516565285     Delta-E=       -0.000000003091 Rises=F Damp=F
 DIIS: error= 1.05D-06 at cycle  10 NSaved=  10.
 NSaved=10 IEnMin=10 EnMin= -268.206516565285     IErMin=10 ErrMin= 1.05D-06
 ErrMax= 1.05D-06  0.00D+00 EMaxC= 1.00D-01 BMatC= 4.46D-11 BMatP= 6.36D-10
 IDIUse=1 WtCom= 1.00D+00 WtEn= 0.00D+00
 Coeff-Com:  0.181D-05-0.626D-04-0.269D-03-0.348D-03 0.209D-03 0.849D-02
 Coeff-Com:  0.241D-02-0.730D-01-0.929D-03 0.106D+01
 Coeff:      0.181D-05-0.626D-04-0.269D-03-0.348D-03 0.209D-03 0.849D-02
 Coeff:      0.241D-02-0.730D-01-0.929D-03 0.106D+01
 Gap=     0.412 Goal=   None    Shift=    0.000
 RMSDP=5.88D-07 MaxDP=9.50D-06 DE=-3.09D-09 OVMax= 1.28D-05

 Cycle  11  Pass 1  IDiag  1:
 E= -268.206516565513     Delta-E=       -0.000000000228 Rises=F Damp=F
 DIIS: error= 2.95D-07 at cycle  11 NSaved=  11.
 NSaved=11 IEnMin=11 EnMin= -268.206516565513     IErMin=11 ErrMin= 2.95D-07
 ErrMax= 2.95D-07  0.00D+00 EMaxC= 1.00D-01 BMatC= 1.05D-11 BMatP= 4.46D-11
 IDIUse=1 WtCom= 1.00D+00 WtEn= 0.00D+00
 Coeff-Com:  0.206D-05-0.267D-04-0.147D-03-0.238D-03-0.201D-03 0.239D-02
 Coeff-Com:  0.447D-02-0.355D-02-0.135D+00 0.321D+00 0.812D+00
 Coeff:      0.206D-05-0.267D-04-0.147D-03-0.238D-03-0.201D-03 0.239D-02
 Coeff:      0.447D-02-0.355D-02-0.135D+00 0.321D+00 0.812D+00
 Gap=     0.412 Goal=   None    Shift=    0.000
 RMSDP=1.49D-07 MaxDP=2.50D-06 DE=-2.28D-10 OVMax= 4.49D-06

 Cycle  12  Pass 1  IDiag  1:
 E= -268.206516565543     Delta-E=       -0.000000000031 Rises=F Damp=F
 DIIS: error= 1.59D-07 at cycle  12 NSaved=  12.
 NSaved=12 IEnMin=12 EnMin= -268.206516565543     IErMin=12 ErrMin= 1.59D-07
 ErrMax= 1.59D-07  0.00D+00 EMaxC= 1.00D-01 BMatC= 9.67D-13 BMatP= 1.05D-11
 IDIUse=1 WtCom= 1.00D+00 WtEn= 0.00D+00
 Coeff-Com: -0.435D-06 0.113D-04 0.503D-04 0.709D-04-0.638D-04-0.150D-02
 Coeff-Com: -0.606D-03 0.123D-01 0.489D-02-0.185D+00-0.418D-01 0.121D+01
 Coeff:     -0.435D-06 0.113D-04 0.503D-04 0.709D-04-0.638D-04-0.150D-02
 Coeff:     -0.606D-03 0.123D-01 0.489D-02-0.185D+00-0.418D-01 0.121D+01
 Gap=     0.412 Goal=   None    Shift=    0.000
 RMSDP=9.58D-08 MaxDP=1.80D-06 DE=-3.05D-11 OVMax= 2.69D-06

 Cycle  13  Pass 1  IDiag  1:
 E= -268.206516565550     Delta-E=       -0.000000000007 Rises=F Damp=F
 DIIS: error= 4.07D-08 at cycle  13 NSaved=  13.
 NSaved=13 IEnMin=13 EnMin= -268.206516565550     IErMin=13 ErrMin= 4.07D-08
 ErrMax= 4.07D-08  0.00D+00 EMaxC= 1.00D-01 BMatC= 3.99D-14 BMatP= 9.67D-13
 IDIUse=1 WtCom= 1.00D+00 WtEn= 0.00D+00
 Coeff-Com: -0.244D-07-0.973D-06-0.226D-05 0.755D-06 0.284D-04 0.228D-03
 Coeff-Com: -0.105D-03-0.286D-02 0.670D-02 0.310D-01-0.374D-01-0.319D+00
 Coeff-Com:  0.132D+01
 Coeff:     -0.244D-07-0.973D-06-0.226D-05 0.755D-06 0.284D-04 0.228D-03
 Coeff:     -0.105D-03-0.286D-02 0.670D-02 0.310D-01-0.374D-01-0.319D+00
 Coeff:      0.132D+01
 Gap=     0.412 Goal=   None    Shift=    0.000
 RMSDP=2.16D-08 MaxDP=2.89D-07 DE=-7.22D-12 OVMax= 5.83D-07

 Cycle  14  Pass 1  IDiag  1:
 E= -268.206516565548     Delta-E=        0.000000000002 Rises=F Damp=F
 DIIS: error= 9.09D-09 at cycle  14 NSaved=  14.
 NSaved=14 IEnMin=13 EnMin= -268.206516565550     IErMin=14 ErrMin= 9.09D-09
 ErrMax= 9.09D-09  0.00D+00 EMaxC= 1.00D-01 BMatC= 2.21D-15 BMatP= 3.99D-14
 IDIUse=1 WtCom= 1.00D+00 WtEn= 0.00D+00
 Coeff-Com:  0.219D-07-0.421D-07-0.111D-05-0.259D-05-0.540D-05-0.271D-04
 Coeff-Com:  0.603D-04 0.472D-03-0.252D-02-0.176D-02 0.138D-01 0.510D-01
 Coeff-Com: -0.466D+00 0.141D+01
 Coeff:      0.219D-07-0.421D-07-0.111D-05-0.259D-05-0.540D-05-0.271D-04
 Coeff:      0.603D-04 0.472D-03-0.252D-02-0.176D-02 0.138D-01 0.510D-01
 Coeff:     -0.466D+00 0.141D+01
 Gap=     0.412 Goal=   None    Shift=    0.000
 RMSDP=4.75D-09 MaxDP=5.63D-08 DE= 2.39D-12 OVMax= 1.19D-07

 SCF Done:  E(RwB97XD) =  -268.206516566     A.U. after   14 cycles
            NFock= 14  Conv=0.48D-08     -V/T= 2.0057
 KE= 2.666739992599D+02 PE=-9.850658195363D+02 EE= 2.714562914139D+02
 Leave Link  502 at Wed May 26 09:01:16 2021, MaxMem=  2147483648 cpu:        15.4
 (Enter /opt/cluster/programs/g09_d.01/g09/l601.exe)
 Copying SCF densities to generalized density rwf, IOpCl= 0 IROHF=0.

 **********************************************************************

            Population analysis using the SCF density.

 **********************************************************************

 Orbital symmetries:
       Occupied  (A) (A) (A) (A) (A) (A) (A) (A) (A) (A) (A) (A)
                 (A) (A) (A) (A) (A) (A) (A) (A)
       Virtual   (A) (A) (A) (A) (A) (A) (A) (A) (A) (A) (A) (A)
                 (A) (A) (A) (A) (A) (A) (A) (A) (A) (A) (A) (A)
                 (A) (A) (A) (A) (A) (A) (A) (A) (A) (A) (A) (A)
                 (A) (A) (A) (A) (A) (A) (A) (A) (A) (A) (A) (A)
                 (A) (A) (A) (A) (A) (A) (A) (A) (A)
 The electronic state is 1-A.
 Alpha  occ. eigenvalues --  -19.31017 -19.28357 -10.45401 -10.36103 -10.31360
 Alpha  occ. eigenvalues --   -1.21720  -1.13548  -0.87772  -0.81797  -0.66427
 Alpha  occ. eigenvalues --   -0.59618  -0.58338  -0.56983  -0.53119  -0.52247
 Alpha  occ. eigenvalues --   -0.50276  -0.46754  -0.43306  -0.38119  -0.36810
 Alpha virt. eigenvalues --    0.04378   0.06949   0.08162   0.10081   0.10475
 Alpha virt. eigenvalues --    0.10860   0.12584   0.13135   0.14992   0.15488
 Alpha virt. eigenvalues --    0.16448   0.18159   0.20165   0.22768   0.24455
 Alpha virt. eigenvalues --    0.25909   0.27326   0.28412   0.29901   0.32123
 Alpha virt. eigenvalues --    0.33361   0.34500   0.35914   0.37334   0.38099
 Alpha virt. eigenvalues --    0.40137   0.40794   0.42579   0.43850   0.45225
 Alpha virt. eigenvalues --    0.56115   0.72068   0.72148   0.75417   0.75831
 Alpha virt. eigenvalues --    0.77022   0.82698   0.87083   0.91672   0.92848
 Alpha virt. eigenvalues --    1.08549   1.09622   1.11814   1.16168   1.16510
 Alpha virt. eigenvalues --    1.19912   1.24725   1.28205   1.34424   1.36798
 Alpha virt. eigenvalues --    1.40957   1.45210   1.46675   1.48192   1.59879
 Alpha virt. eigenvalues --    1.94032   2.00827
          Condensed to atoms (all electrons):
               1          2          3          4          5          6
     1  C    6.946145  -0.701022   0.368941   0.344969   0.338863  -0.539466
     2  C   -0.701022   5.906678  -0.037129  -0.011528   0.001349   0.284824
     3  H    0.368941  -0.037129   0.456213  -0.022021  -0.022093   0.001657
     4  H    0.344969  -0.011528  -0.022021   0.463968  -0.022238   0.010826
     5  H    0.338863   0.001349  -0.022093  -0.022238   0.471186   0.000400
     6  O   -0.539466   0.284824   0.001657   0.010826   0.000400   8.825365
     7  O   -0.100122   0.311995   0.005839  -0.003433  -0.004084  -0.216140
     8  C   -0.028717  -0.114304   0.000857  -0.000021  -0.000362   0.094147
     9  H   -0.005151   0.000802  -0.000006   0.000015  -0.000046  -0.041347
    10  H   -0.002293   0.002154  -0.000001   0.000003  -0.000015  -0.051229
    11  H    0.013079  -0.004093   0.000021  -0.000047   0.000361  -0.064712
               7          8          9         10         11
     1  C   -0.100122  -0.028717  -0.005151  -0.002293   0.013079
     2  C    0.311995  -0.114304   0.000802   0.002154  -0.004093
     3  H    0.005839   0.000857  -0.000006  -0.000001   0.000021
     4  H   -0.003433  -0.000021   0.000015   0.000003  -0.000047
     5  H   -0.004084  -0.000362  -0.000046  -0.000015   0.000361
     6  O   -0.216140   0.094147  -0.041347  -0.051229  -0.064712
     7  O    8.438426  -0.024351   0.011151  -0.000538  -0.001018
     8  C   -0.024351   5.301013   0.377562   0.398147   0.383391
     9  H    0.011151   0.377562   0.488492  -0.025490  -0.037239
    10  H   -0.000538   0.398147  -0.025490   0.483802  -0.029305
    11  H   -0.001018   0.383391  -0.037239  -0.029305   0.535131
 Mulliken charges:
               1
     1  C   -0.635227
     2  C    0.360274
     3  H    0.247723
     4  H    0.239508
     5  H    0.236680
     6  O   -0.304325
     7  O   -0.417726
     8  C   -0.387361
     9  H    0.231257
    10  H    0.224765
    11  H    0.204432
 Sum of Mulliken charges =   0.00000
 Mulliken charges with hydrogens summed into heavy atoms:
               1
     1  C    0.088683
     2  C    0.360274
     6  O   -0.304325
     7  O   -0.417726
     8  C    0.273093
 Electronic spatial extent (au):  <R**2>=            435.8527
 Charge=              0.0000 electrons
 Dipole moment (field-independent basis, Debye):
    X=              0.7224    Y=             -2.5177    Z=              1.3974  Tot=              2.9688
 Quadrupole moment (field-independent basis, Debye-Ang):
   XX=            -24.3502   YY=            -35.3685   ZZ=            -30.6032
   XY=              2.8596   XZ=              1.5741   YZ=             -1.2081
 Traceless Quadrupole moment (field-independent basis, Debye-Ang):
   XX=              5.7571   YY=             -5.2612   ZZ=             -0.4959
   XY=              2.8596   XZ=              1.5741   YZ=             -1.2081
 Octapole moment (field-independent basis, Debye-Ang**2):
  XXX=              8.3632  YYY=             -6.1154  ZZZ=              0.4550  XYY=              2.8159
  XXY=             -2.6186  XXZ=              0.1810  XZZ=             -0.4681  YZZ=             -0.2424
  YYZ=             -0.0335  XYZ=             -0.1512
 Hexadecapole moment (field-independent basis, Debye-Ang**3):
 XXXX=           -321.1490 YYYY=           -162.0042 ZZZZ=            -57.1234 XXXY=             -5.8643
 XXXZ=             -3.3738 YYYX=              5.3232 YYYZ=              0.6033 ZZZX=              1.0012
 ZZZY=             -1.5235 XXYY=            -84.0030 XXZZ=            -68.0081 YYZZ=            -32.9995
 XXYZ=              1.6800 YYXZ=              1.5686 ZZXY=             -0.0648
 N-N= 1.787290122970D+02 E-N=-9.850658196410D+02  KE= 2.666739992599D+02
 No NMR shielding tensors so no spin-rotation constants.
 Leave Link  601 at Wed May 26 09:01:16 2021, MaxMem=  2147483648 cpu:         0.6
 (Enter /opt/cluster/programs/g09_d.01/g09/l701.exe)
 Compute integral first derivatives.
 ... and contract with generalized density number  0.
 R6Disp: Adding Grimme-D2 dispersion energy 1st derivatives to the gradient.
 Leave Link  701 at Wed May 26 09:01:16 2021, MaxMem=  2147483648 cpu:         0.6
 (Enter /opt/cluster/programs/g09_d.01/g09/l702.exe)
 L702 exits ... SP integral derivatives will be done elsewhere.
 Leave Link  702 at Wed May 26 09:01:17 2021, MaxMem=  2147483648 cpu:         0.2
 (Enter /opt/cluster/programs/g09_d.01/g09/l703.exe)
 Compute integral first derivatives, UseDBF=F ICtDFT=           0.
 Integral derivatives from FoFJK, PRISM(SPDF).
 Calling FoFJK, ICntrl=      2127 FMM=F ISym2X=0 I1Cent= 0 IOpClX= 0 NMat=1 NMatS=1 NMatT=0.
 FoFJK:  IHMeth= 1 ICntrl=    2127 DoSepK=T KAlg= 0 I1Cent=   0 FoldK=F
 IRaf=         1 NMat=   1 IRICut=       1 DoRegI=T DoRafI=F ISym2E= 0.
 FoFCou: FMM=F IPFlag=           0 FMFlag=      100000 FMFlg1=         800
         NFxFlg=           0 DoJE=F BraDBF=F KetDBF=F FulRan=T
         wScrn=  0.000000 ICntrl=    2527 IOpCl=  0 I1Cent=           0 NGrid=           0
         NMat0=    1 NMatS0=      1 NMatT0=    0 NMatD0=    1 NMtDS0=    0 NMtDT0=    0
 Symmetry not used in FoFCou.
 Leave Link  703 at Wed May 26 09:01:17 2021, MaxMem=  2147483648 cpu:         3.6
 (Enter /opt/cluster/programs/g09_d.01/g09/l716.exe)
 Dipole        = 2.84195936D-01-9.90556028D-01 5.49784022D-01
 ***** Axes restored to original set *****
 -------------------------------------------------------------------
 Center     Atomic                   Forces (Hartrees/Bohr)
 Number     Number              X              Y              Z
 -------------------------------------------------------------------
      1        6           0.002244387    0.000295352    0.007186934
      2        6          -0.004053646    0.002740236   -0.007846033
      3        1          -0.000008810   -0.000009078   -0.000000507
      4        1          -0.000001632   -0.000005639    0.000010700
      5        1          -0.000000564    0.000000022   -0.000004031
      6        8           0.003617982   -0.009369690   -0.003941873
      7        8          -0.000000089   -0.000018767    0.000016559
      8        6          -0.001793574    0.006360823    0.004613013
      9        1           0.000005779    0.000000976   -0.000008169
     10        1          -0.000010637   -0.000003409   -0.000014630
     11        1           0.000000805    0.000009174   -0.000011962
 -------------------------------------------------------------------
 Cartesian Forces:  Max     0.009369690 RMS     0.003131731
 Leave Link  716 at Wed May 26 09:01:17 2021, MaxMem=  2147483648 cpu:         0.2
 (Enter /opt/cluster/programs/g09_d.01/g09/l103.exe)

 GradGradGradGradGradGradGradGradGradGradGradGradGradGradGradGradGradGrad
 Berny optimization.
 FormGI is forming the generalized inverse of G from B-inverse, IUseBI=4.
 Internal  Forces:  Max     0.012149466 RMS     0.002539968
 Search for a local minimum.
 Step number   1 out of a maximum of   47
 All quantities printed in internal units (Hartrees-Bohrs-Radians)
 RMS Force = .53609D-05 SwitMx=.10000D-02 MixMth= 2
 Mixed Optimization -- En-DIIS/RFO-DIIS
 Second derivative matrix not updated -- first step.
 ITU=  0
     Eigenvalues ---    0.00803   0.00872   0.01237   0.07288   0.07677
     Eigenvalues ---    0.10111   0.10614   0.16000   0.16000   0.16000
     Eigenvalues ---    0.16000   0.16000   0.16000   0.24911   0.25000
     Eigenvalues ---    0.25000   0.32675   0.34140   0.34398   0.34515
     Eigenvalues ---    0.34554   0.34829   0.35130   0.36719   0.48221
     Eigenvalues ---    0.924851000.000001000.000001000.000001000.00000
     Eigenvalues --- 1000.000001000.000001000.000001000.000001000.00000
     Eigenvalues --- 1000.000001000.00000
 RFO step:  Lambda= 0.00000000D+00 EMin= 8.03293766D-03
 Linear search not attempted -- first point.
 Iteration  1 RMS(Cart)=  0.00014531 RMS(Int)=  0.00000001
 Iteration  2 RMS(Cart)=  0.00000002 RMS(Int)=  0.00000000
 Iteration  1 RMS(Cart)=  0.00000000 RMS(Int)=  0.00000000
 ITry= 1 IFail=0 DXMaxC= 3.51D-04 DCOld= 1.00D+10 DXMaxT= 3.00D-01 DXLimC= 3.00D+00 Rises=F
 Variable       Old X    -DE/DX   Delta X   Delta X   Delta X     New X
                                 (Linear)    (Quad)   (Total)
    R1        2.82925   0.00000   0.00000  -0.00001  -0.00001   2.82925
    R2        2.06470   0.00000   0.00000   0.00000   0.00000   2.06470
    R3        2.05954   0.00000   0.00000  -0.00001  -0.00001   2.05953
    R4        2.07095   0.00001   0.00000   0.00002   0.00002   2.07097
    R5        2.61704   0.00000   0.00000  -0.00001  -0.00001   2.61704
    R6        2.31809  -0.00002   0.00000  -0.00002  -0.00002   2.31807
    R7        2.76273  -0.00001   0.00000  -0.00003  -0.00003   2.76270
    R8        2.06405   0.00000   0.00000  -0.00001  -0.00001   2.06404
    R9        2.05465   0.00001   0.00000   0.00002   0.00002   2.05467
   R10        2.06664   0.00000   0.00000   0.00000   0.00000   2.06664
    A1        1.93366   0.00000   0.00000   0.00002   0.00002   1.93368
    A2        1.92697   0.00000   0.00000   0.00001   0.00001   1.92699
    A3        1.88912   0.00000   0.00000  -0.00004  -0.00004   1.88908
    A4        1.92763   0.00000   0.00000   0.00003   0.00003   1.92767
    A5        1.87509   0.00000   0.00000  -0.00001  -0.00001   1.87507
    A6        1.91011   0.00000   0.00000  -0.00001  -0.00001   1.91010
    A7        1.96218   0.00010   0.00000   0.00001   0.00001   1.96219
    A8        2.18895   0.00055   0.00000   0.00002   0.00002   2.18898
    A9        2.12875  -0.00029   0.00000   0.00000   0.00000   2.12875
   A10        2.05915   0.00002   0.00000   0.00006   0.00006   2.05921
   A11        1.92913   0.00000   0.00000   0.00000   0.00000   1.92914
   A12        1.84030   0.00001   0.00000   0.00005   0.00005   1.84035
   A13        1.90527   0.00000   0.00000   0.00001   0.00001   1.90528
   A14        1.92902   0.00000   0.00000   0.00003   0.00003   1.92905
   A15        1.93272  -0.00001   0.00000  -0.00005  -0.00005   1.93267
   A16        1.92526  -0.00001   0.00000  -0.00004  -0.00004   1.92522
    D1       -0.82160   0.00240   0.00000   0.00033   0.00033  -0.82128
    D2        2.40614  -0.00240   0.00000   0.00002   0.00002   2.40616
    D3       -2.96274   0.00240   0.00000   0.00027   0.00027  -2.96248
    D4        0.26500  -0.00240   0.00000  -0.00004  -0.00004   0.26496
    D5        1.23007   0.00240   0.00000   0.00030   0.00030   1.23036
    D6       -1.82538  -0.00240   0.00000  -0.00001  -0.00001  -1.82538
    D7       -2.10512  -0.01215   0.00000   0.00000   0.00000  -2.10512
    D8        0.95372  -0.00749   0.00000   0.00029   0.00029   0.95401
    D9       -0.89626   0.00000   0.00000  -0.00001  -0.00001  -0.89628
   D10       -2.98128   0.00000   0.00000  -0.00008  -0.00008  -2.98136
   D11        1.23363   0.00000   0.00000  -0.00006  -0.00006   1.23357
         Item               Value     Threshold  Converged?
 Maximum Force            0.000018     0.000450     YES
 RMS     Force            0.000005     0.000300     YES
 Maximum Displacement     0.000351     0.001800     YES
 RMS     Displacement     0.000145     0.001200     YES
 Predicted change in Energy=-3.785550D-09
 Optimization completed.
    -- Stationary point found.
                           ----------------------------
                           !   Optimized Parameters   !
                           ! (Angstroms and Degrees)  !
 --------------------------                            --------------------------
 ! Name  Definition              Value          Derivative Info.                !
 --------------------------------------------------------------------------------
 ! R1    R(1,2)                  1.4972         -DE/DX =    0.0                 !
 ! R2    R(1,3)                  1.0926         -DE/DX =    0.0                 !
 ! R3    R(1,4)                  1.0899         -DE/DX =    0.0                 !
 ! R4    R(1,5)                  1.0959         -DE/DX =    0.0                 !
 ! R5    R(2,6)                  1.3849         -DE/DX =    0.0                 !
 ! R6    R(2,7)                  1.2267         -DE/DX =    0.0                 !
 ! R7    R(6,8)                  1.462          -DE/DX =    0.0                 !
 ! R8    R(8,9)                  1.0922         -DE/DX =    0.0                 !
 ! R9    R(8,10)                 1.0873         -DE/DX =    0.0                 !
 ! R10   R(8,11)                 1.0936         -DE/DX =    0.0                 !
 ! A1    A(2,1,3)              110.7905         -DE/DX =    0.0                 !
 ! A2    A(2,1,4)              110.4075         -DE/DX =    0.0                 !
 ! A3    A(2,1,5)              108.2388         -DE/DX =    0.0                 !
 ! A4    A(3,1,4)              110.4453         -DE/DX =    0.0                 !
 ! A5    A(3,1,5)              107.4346         -DE/DX =    0.0                 !
 ! A6    A(4,1,5)              109.4412         -DE/DX =    0.0                 !
 ! A7    A(1,2,6)              112.4247         -DE/DX =    0.0001              !
 ! A8    A(1,2,7)              125.4179         -DE/DX =    0.0006              !
 ! A9    A(6,2,7)              121.9686         -DE/DX =   -0.0003              !
 ! A10   A(2,6,8)              117.9806         -DE/DX =    0.0                 !
 ! A11   A(6,8,9)              110.5311         -DE/DX =    0.0                 !
 ! A12   A(6,8,10)             105.4416         -DE/DX =    0.0                 !
 ! A13   A(6,8,11)             109.1641         -DE/DX =    0.0                 !
 ! A14   A(9,8,10)             110.5245         -DE/DX =    0.0                 !
 ! A15   A(9,8,11)             110.7364         -DE/DX =    0.0                 !
 ! A16   A(10,8,11)            110.3094         -DE/DX =    0.0                 !
 ! D1    D(3,1,2,6)            -47.0744         -DE/DX =    0.0024              !
 ! D2    D(3,1,2,7)            137.8616         -DE/DX =   -0.0024              !
 ! D3    D(4,1,2,6)           -169.7526         -DE/DX =    0.0024              !
 ! D4    D(4,1,2,7)             15.1834         -DE/DX =   -0.0024              !
 ! D5    D(5,1,2,6)             70.4777         -DE/DX =    0.0024              !
 ! D6    D(5,1,2,7)           -104.5864         -DE/DX =   -0.0024              !
 ! D7    D(1,2,6,8)           -120.6146         -DE/DX =   -0.0121              !
 ! D8    D(7,2,6,8)             54.6442         -DE/DX =   -0.0075              !
 ! D9    D(2,6,8,9)            -51.3521         -DE/DX =    0.0                 !
 ! D10   D(2,6,8,10)          -170.8148         -DE/DX =    0.0                 !
 ! D11   D(2,6,8,11)            70.6817         -DE/DX =    0.0                 !
 --------------------------------------------------------------------------------
 Lowest energy point so far.  Saving SCF results.
 GradGradGradGradGradGradGradGradGradGradGradGradGradGradGradGradGradGrad

 Largest change from initial coordinates is atom    4       0.000 Angstoms.
 Leave Link  103 at Wed May 26 09:01:17 2021, MaxMem=  2147483648 cpu:         0.0
 (Enter /opt/cluster/programs/g09_d.01/g09/l202.exe)
                          Input orientation:                          
 ---------------------------------------------------------------------
 Center     Atomic      Atomic             Coordinates (Angstroms)
 Number     Number       Type             X           Y           Z
 ---------------------------------------------------------------------
      1          6           0        1.602150   -0.778744   -0.166910
      2          6           0        0.512602    0.203280    0.133177
      3          1           0        1.677404   -1.528328    0.624430
      4          1           0        2.553824   -0.263203   -0.294704
      5          1           0        1.344653   -1.304206   -1.093508
      6          8           0       -0.662725   -0.415219    0.525550
      7          8           0        0.584935    1.417002   -0.029261
      8          6           0       -1.863181   -0.177203   -0.274210
      9          1           0       -2.021768    0.893908   -0.417649
     10          1           0       -2.681367   -0.610754    0.295677
     11          1           0       -1.759857   -0.685682   -1.236899
 ---------------------------------------------------------------------
                    Distance matrix (angstroms):
                    1          2          3          4          5
     1  C    0.000000
     2  C    1.497177   0.000000
     3  H    1.092592   2.143959   0.000000
     4  H    1.089861   2.137119   1.792613   0.000000
     5  H    1.095901   2.114138   1.764161   1.784340   0.000000
     6  O    2.396103   1.384879   2.593259   3.322967   2.727859
     7  O    2.423835   1.226678   3.208702   2.601936   3.019067
     8  C    3.518790   2.440303   3.894719   4.417890   3.497368
     9  H    3.999177   2.683916   4.542800   4.721235   4.076921
    10  H    4.311696   3.300075   4.466420   5.279826   4.315037
    11  H    3.529395   2.798470   3.998670   4.435545   3.168772
                    6          7          8          9         10
     6  O    0.000000
     7  O    2.285061   0.000000
     8  C    1.461972   2.931682   0.000000
     9  H    2.109606   2.686889   1.092247   0.000000
    10  H    2.041076   3.858252   1.087275   1.791065   0.000000
    11  H    2.093580   3.373087   1.093616   1.798575   1.789856
                   11
    11  H    0.000000
 Stoichiometry    C3H6O2
 Framework group  C1[X(C3H6O2)]
 Deg. of freedom    27
 Full point group                 C1      NOp   1
 RotChk:  IX=0 Diff= 4.74D-16
 Largest Abelian subgroup         C1      NOp   1
 Largest concise Abelian subgroup C1      NOp   1
                         Standard orientation:                         
 ---------------------------------------------------------------------
 Center     Atomic      Atomic             Coordinates (Angstroms)
 Number     Number       Type             X           Y           Z
 ---------------------------------------------------------------------
      1          6           0       -1.602150   -0.778744    0.166910
      2          6           0       -0.512602    0.203280   -0.133177
      3          1           0       -1.677404   -1.528328   -0.624430
      4          1           0       -2.553824   -0.263204    0.294704
      5          1           0       -1.344653   -1.304206    1.093508
      6          8           0        0.662725   -0.415219   -0.525550
      7          8           0       -0.584936    1.417002    0.029261
      8          6           0        1.863181   -0.177202    0.274210
      9          1           0        2.021768    0.893909    0.417649
     10          1           0        2.681367   -0.610753   -0.295677
     11          1           0        1.759857   -0.685681    1.236899
 ---------------------------------------------------------------------
 Rotational constants (GHZ):      8.7548261      4.0974126      3.1099451
 Leave Link  202 at Wed May 26 09:01:17 2021, MaxMem=  2147483648 cpu:         0.0
 (Enter /opt/cluster/programs/g09_d.01/g09/l9999.exe)
 1\1\GINC-NODE06\FOpt\RwB97XD\6-31+G\C3H6O2\BOITTIER\26-May-2021\0\\#p 
 wB97XD/6-31+G Opt=ModRedun\\O.pdb\\0,1\C,1.60215,-0.778744,-0.16691\C,
 0.512602,0.20328,0.133177\H,1.677404,-1.528328,0.62443\H,2.553824,-0.2
 63203,-0.294704\H,1.344653,-1.304206,-1.093508\O,-0.662725,-0.415219,0
 .52555\O,0.584935,1.417002,-0.029261\C,-1.863181,-0.177203,-0.27421\H,
 -2.021768,0.893908,-0.417649\H,-2.681367,-0.610754,0.295677\H,-1.75985
 7,-0.685682,-1.236899\\Version=ES64L-G09RevD.01\State=1-A\HF=-268.2065
 166\RMSD=4.752e-09\RMSF=3.132e-03\Dipole=-0.2841957,-0.9905561,-0.5497
 84\Quadrupole=4.2802452,-3.9115601,-0.3686851,-2.1260331,1.1703405,0.8
 98163\PG=C01 [X(C3H6O2)]\\@


 TELEVISION IS CALLED A MEDIUM BECAUSE IT ISN'T
 RARE, AND IT ISN'T WELL DONE.
 Job cpu time:       0 days  0 hours  0 minutes 28.5 seconds.
 File lengths (MBytes):  RWF=      5 Int=      0 D2E=      0 Chk=      2 Scr=      1
 Normal termination of Gaussian 09 at Wed May 26 09:01:17 2021.
