O.pdb                                                                   
FOpt      RwB97XD                                                     6-31+G              
Number of atoms                            I               11
Info1-9                                    I   N=           9
          22          22           0           0           0         100
           2          18        -802
Charge                                     I                0
Multiplicity                               I                1
Number of electrons                        I               40
Number of alpha electrons                  I               20
Number of beta electrons                   I               20
Number of basis functions                  I               77
Number of independent functions            I               77
Number of point charges in /Mol/           I                0
Number of translation vectors              I                0
Atomic numbers                             I   N=          11
           6           6           1           1           1           8
           8           6           1           1           1
Nuclear charges                            R   N=          11
  6.00000000E+00  6.00000000E+00  1.00000000E+00  1.00000000E+00  1.00000000E+00
  8.00000000E+00  8.00000000E+00  6.00000000E+00  1.00000000E+00  1.00000000E+00
  1.00000000E+00
Current cartesian coordinates              R   N=          33
 -3.02762456E+00 -1.47161357E+00  3.15414236E-01 -9.68677736E-01  3.84143406E-01
 -2.51668010E-01 -3.16983362E+00 -2.88812208E+00 -1.18000164E+00 -4.82602805E+00
 -4.97382763E-01  5.56909898E-01 -2.54102548E+00 -2.46459271E+00  2.06643069E+00
  1.25236873E+00 -7.84649712E-01 -9.93145522E-01 -1.10536792E+00  2.67774555E+00
  5.52953236E-02  3.52090168E+00 -3.34864037E-01  5.18181850E-01  3.82058713E+00
  1.68924249E+00  7.89242277E-01  5.06704937E+00 -1.15415627E+00 -5.58748507E-01
  3.32564788E+00 -1.29575014E+00  2.33740041E+00
Force Field                                I                0
Int Atom Types                             I   N=          11
           0           0           0           0           0           0
           0           0           0           0           0
MM charges                                 R   N=          11
  0.00000000E+00  0.00000000E+00  0.00000000E+00  0.00000000E+00  0.00000000E+00
  0.00000000E+00  0.00000000E+00  0.00000000E+00  0.00000000E+00  0.00000000E+00
  0.00000000E+00
Integer atomic weights                     I   N=          11
          12          12           1           1           1          16
          16          12           1           1           1
Real atomic weights                        R   N=          11
  1.20000000E+01  1.20000000E+01  1.00782504E+00  1.00782504E+00  1.00782504E+00
  1.59949146E+01  1.59949146E+01  1.20000000E+01  1.00782504E+00  1.00782504E+00
  1.00782504E+00
Atom fragment info                         I   N=          11
           0           0           0           0           0           0
           0           0           0           0           0
Atom residue num                           I   N=          11
           0           0           0           0           0           0
           0           0           0           0           0
Nuclear spins                              I   N=          11
           0           0           1           1           1           0
           0           0           1           1           1
Nuclear ZEff                               R   N=          11
 -3.60000000E+00 -3.60000000E+00 -1.00000000E+00 -1.00000000E+00 -1.00000000E+00
 -5.60000000E+00 -5.60000000E+00 -3.60000000E+00 -1.00000000E+00 -1.00000000E+00
 -1.00000000E+00
Nuclear ZNuc                               R   N=          11
  6.00000000E+00  6.00000000E+00  1.00000000E+00  1.00000000E+00  1.00000000E+00
  8.00000000E+00  8.00000000E+00  6.00000000E+00  1.00000000E+00  1.00000000E+00
  1.00000000E+00
Nuclear QMom                               R   N=          11
  0.00000000E+00  0.00000000E+00  0.00000000E+00  0.00000000E+00  0.00000000E+00
  0.00000000E+00  0.00000000E+00  0.00000000E+00  0.00000000E+00  0.00000000E+00
  0.00000000E+00
Nuclear GFac                               R   N=          11
  0.00000000E+00  0.00000000E+00  2.79284600E+00  2.79284600E+00  2.79284600E+00
  0.00000000E+00  0.00000000E+00  0.00000000E+00  2.79284600E+00  2.79284600E+00
  2.79284600E+00
MicOpt                                     I   N=          11
          -1          -1          -1          -1          -1          -1
          -1          -1          -1          -1          -1
Number of contracted shells                I               32
Number of primitive shells                 I               79
Pure/Cartesian d shells                    I                1
Pure/Cartesian f shells                    I                0
Highest angular momentum                   I                1
Largest degree of contraction              I                6
Shell types                                I   N=          32
           0          -1          -1          -1           0          -1
          -1          -1           0           0           0           0
           0           0           0          -1          -1          -1
           0          -1          -1          -1           0          -1
          -1          -1           0           0           0           0
           0           0
Number of primitives per shell             I   N=          32
           6           3           1           1           6           3
           1           1           3           1           3           1
           3           1           6           3           1           1
           6           3           1           1           6           3
           1           1           3           1           3           1
           3           1
Shell to atom map                          I   N=          32
           1           1           1           1           2           2
           2           2           3           3           4           4
           5           5           6           6           6           6
           7           7           7           7           8           8
           8           8           9           9          10          10
          11          11
Primitive exponents                        R   N=          79
  3.04752488E+03  4.57369518E+02  1.03948685E+02  2.92101553E+01  9.28666296E+00
  3.16392696E+00  7.86827235E+00  1.88128854E+00  5.44249258E-01  1.68714478E-01
  4.38000000E-02  3.04752488E+03  4.57369518E+02  1.03948685E+02  2.92101553E+01
  9.28666296E+00  3.16392696E+00  7.86827235E+00  1.88128854E+00  5.44249258E-01
  1.68714478E-01  4.38000000E-02  1.87311370E+01  2.82539436E+00  6.40121692E-01
  1.61277759E-01  1.87311370E+01  2.82539436E+00  6.40121692E-01  1.61277759E-01
  1.87311370E+01  2.82539436E+00  6.40121692E-01  1.61277759E-01  5.48467166E+03
  8.25234946E+02  1.88046958E+02  5.29645000E+01  1.68975704E+01  5.79963534E+00
  1.55396162E+01  3.59993359E+00  1.01376175E+00  2.70005823E-01  8.45000000E-02
  5.48467166E+03  8.25234946E+02  1.88046958E+02  5.29645000E+01  1.68975704E+01
  5.79963534E+00  1.55396162E+01  3.59993359E+00  1.01376175E+00  2.70005823E-01
  8.45000000E-02  3.04752488E+03  4.57369518E+02  1.03948685E+02  2.92101553E+01
  9.28666296E+00  3.16392696E+00  7.86827235E+00  1.88128854E+00  5.44249258E-01
  1.68714478E-01  4.38000000E-02  1.87311370E+01  2.82539436E+00  6.40121692E-01
  1.61277759E-01  1.87311370E+01  2.82539436E+00  6.40121692E-01  1.61277759E-01
  1.87311370E+01  2.82539436E+00  6.40121692E-01  1.61277759E-01
Contraction coefficients                   R   N=          79
  1.83473713E-03  1.40373228E-02  6.88426223E-02  2.32184443E-01  4.67941348E-01
  3.62311985E-01 -1.19332420E-01 -1.60854152E-01  1.14345644E+00  1.00000000E+00
  1.00000000E+00  1.83473713E-03  1.40373228E-02  6.88426223E-02  2.32184443E-01
  4.67941348E-01  3.62311985E-01 -1.19332420E-01 -1.60854152E-01  1.14345644E+00
  1.00000000E+00  1.00000000E+00  3.34946043E-02  2.34726953E-01  8.13757326E-01
  1.00000000E+00  3.34946043E-02  2.34726953E-01  8.13757326E-01  1.00000000E+00
  3.34946043E-02  2.34726953E-01  8.13757326E-01  1.00000000E+00  1.83107443E-03
  1.39501722E-02  6.84450781E-02  2.32714336E-01  4.70192898E-01  3.58520853E-01
 -1.10777550E-01 -1.48026263E-01  1.13076702E+00  1.00000000E+00  1.00000000E+00
  1.83107443E-03  1.39501722E-02  6.84450781E-02  2.32714336E-01  4.70192898E-01
  3.58520853E-01 -1.10777550E-01 -1.48026263E-01  1.13076702E+00  1.00000000E+00
  1.00000000E+00  1.83473713E-03  1.40373228E-02  6.88426223E-02  2.32184443E-01
  4.67941348E-01  3.62311985E-01 -1.19332420E-01 -1.60854152E-01  1.14345644E+00
  1.00000000E+00  1.00000000E+00  3.34946043E-02  2.34726953E-01  8.13757326E-01
  1.00000000E+00  3.34946043E-02  2.34726953E-01  8.13757326E-01  1.00000000E+00
  3.34946043E-02  2.34726953E-01  8.13757326E-01  1.00000000E+00
P(S=P) Contraction coefficients            R   N=          79
  0.00000000E+00  0.00000000E+00  0.00000000E+00  0.00000000E+00  0.00000000E+00
  0.00000000E+00  6.89990666E-02  3.16423961E-01  7.44308291E-01  1.00000000E+00
  1.00000000E+00  0.00000000E+00  0.00000000E+00  0.00000000E+00  0.00000000E+00
  0.00000000E+00  0.00000000E+00  6.89990666E-02  3.16423961E-01  7.44308291E-01
  1.00000000E+00  1.00000000E+00  0.00000000E+00  0.00000000E+00  0.00000000E+00
  0.00000000E+00  0.00000000E+00  0.00000000E+00  0.00000000E+00  0.00000000E+00
  0.00000000E+00  0.00000000E+00  0.00000000E+00  0.00000000E+00  0.00000000E+00
  0.00000000E+00  0.00000000E+00  0.00000000E+00  0.00000000E+00  0.00000000E+00
  7.08742682E-02  3.39752839E-01  7.27158577E-01  1.00000000E+00  1.00000000E+00
  0.00000000E+00  0.00000000E+00  0.00000000E+00  0.00000000E+00  0.00000000E+00
  0.00000000E+00  7.08742682E-02  3.39752839E-01  7.27158577E-01  1.00000000E+00
  1.00000000E+00  0.00000000E+00  0.00000000E+00  0.00000000E+00  0.00000000E+00
  0.00000000E+00  0.00000000E+00  6.89990666E-02  3.16423961E-01  7.44308291E-01
  1.00000000E+00  1.00000000E+00  0.00000000E+00  0.00000000E+00  0.00000000E+00
  0.00000000E+00  0.00000000E+00  0.00000000E+00  0.00000000E+00  0.00000000E+00
  0.00000000E+00  0.00000000E+00  0.00000000E+00  0.00000000E+00
Coordinates of each shell                  R   N=          96
 -3.02762456E+00 -1.47161357E+00  3.15414236E-01 -3.02762456E+00 -1.47161357E+00
  3.15414236E-01 -3.02762456E+00 -1.47161357E+00  3.15414236E-01 -3.02762456E+00
 -1.47161357E+00  3.15414236E-01 -9.68677736E-01  3.84143406E-01 -2.51668010E-01
 -9.68677736E-01  3.84143406E-01 -2.51668010E-01 -9.68677736E-01  3.84143406E-01
 -2.51668010E-01 -9.68677736E-01  3.84143406E-01 -2.51668010E-01 -3.16983362E+00
 -2.88812208E+00 -1.18000164E+00 -3.16983362E+00 -2.88812208E+00 -1.18000164E+00
 -4.82602805E+00 -4.97382763E-01  5.56909898E-01 -4.82602805E+00 -4.97382763E-01
  5.56909898E-01 -2.54102548E+00 -2.46459271E+00  2.06643069E+00 -2.54102548E+00
 -2.46459271E+00  2.06643069E+00  1.25236873E+00 -7.84649712E-01 -9.93145522E-01
  1.25236873E+00 -7.84649712E-01 -9.93145522E-01  1.25236873E+00 -7.84649712E-01
 -9.93145522E-01  1.25236873E+00 -7.84649712E-01 -9.93145522E-01 -1.10536792E+00
  2.67774555E+00  5.52953236E-02 -1.10536792E+00  2.67774555E+00  5.52953236E-02
 -1.10536792E+00  2.67774555E+00  5.52953236E-02 -1.10536792E+00  2.67774555E+00
  5.52953236E-02  3.52090168E+00 -3.34864037E-01  5.18181850E-01  3.52090168E+00
 -3.34864037E-01  5.18181850E-01  3.52090168E+00 -3.34864037E-01  5.18181850E-01
  3.52090168E+00 -3.34864037E-01  5.18181850E-01  3.82058713E+00  1.68924249E+00
  7.89242277E-01  3.82058713E+00  1.68924249E+00  7.89242277E-01  5.06704937E+00
 -1.15415627E+00 -5.58748507E-01  5.06704937E+00 -1.15415627E+00 -5.58748507E-01
  3.32564788E+00 -1.29575014E+00  2.33740041E+00  3.32564788E+00 -1.29575014E+00
  2.33740041E+00
Constraint Structure                       R   N=          33
 -3.02762456E+00 -1.47161357E+00  3.15414236E-01 -9.68677736E-01  3.84143406E-01
 -2.51668010E-01 -3.16983362E+00 -2.88812208E+00 -1.18000164E+00 -4.82602805E+00
 -4.97382763E-01  5.56909898E-01 -2.54102548E+00 -2.46459271E+00  2.06643069E+00
  1.25236873E+00 -7.84649712E-01 -9.93145522E-01 -1.10536792E+00  2.67774555E+00
  5.52953236E-02  3.52090168E+00 -3.34864037E-01  5.18181850E-01  3.82058713E+00
  1.68924249E+00  7.89242277E-01  5.06704937E+00 -1.15415627E+00 -5.58748507E-01
  3.32564788E+00 -1.29575014E+00  2.33740041E+00
Num ILSW                                   I              100
ILSW                                       I   N=         100
           0           1           0           0           2           0
           0           0           0           0        4639          -1
           0           0           0           0           2           0
           0           0           0           0           1           0
           1           0           0           0           0           0
           0           0      100000           0          -1           0
           0           0           0           0           0           0
           0           0           0           1           0           0
           0           0           1           0           0           0
           0           0         121          41           0           0
           0           0          58           0           0           0
           0           0           0          11           0           0
           0           0           0           0           0           0
           0           0           0           0           0           0
           0           0           0           0           0           0
           0           0           0           0           0           0
           0           0           0           0
Num RLSW                                   I               41
RLSW                                       R   N=          41
  1.00000000E+00  1.00000000E+00  1.00000000E+00  1.00000000E+00  1.00000000E+00
  0.00000000E+00  2.00000000E-01  2.22036000E-01  0.00000000E+00  7.77964000E-01
  0.00000000E+00  2.00000000E-01  0.00000000E+00  0.00000000E+00  1.00000000E+00
  0.00000000E+00  0.00000000E+00  1.00000000E+00  0.00000000E+00  0.00000000E+00
  0.00000000E+00  0.00000000E+00  1.00000000E+00  0.00000000E+00  0.00000000E+00
  0.00000000E+00  0.00000000E+00  1.00000000E+00  0.00000000E+00  0.00000000E+00
  0.00000000E+00  0.00000000E+00  1.00000000E+00  0.00000000E+00  0.00000000E+00
  0.00000000E+00  0.00000000E+00  0.00000000E+00  1.00000000E+00  1.00000000E+00
  0.00000000E+00
MxBond                                     I                4
NBond                                      I   N=          11
           4           3           1           1           1           2
           1           4           1           1           1
IBond                                      I   N=          44
           2           3           4           5           1           6
           7           0           1           0           0           0
           1           0           0           0           1           0
           0           0           2           8           0           0
           2           0           0           0           6           9
          10          11           8           0           0           0
           8           0           0           0           8           0
           0           0
RBond                                      R   N=          44
  1.00000000E+00  1.00000000E+00  1.00000000E+00  1.00000000E+00  1.00000000E+00
  1.50000000E+00  2.00000000E+00  0.00000000E+00  1.00000000E+00  0.00000000E+00
  0.00000000E+00  0.00000000E+00  1.00000000E+00  0.00000000E+00  0.00000000E+00
  0.00000000E+00  1.00000000E+00  0.00000000E+00  0.00000000E+00  0.00000000E+00
  1.50000000E+00  1.00000000E+00  0.00000000E+00  0.00000000E+00  2.00000000E+00
  0.00000000E+00  0.00000000E+00  0.00000000E+00  1.00000000E+00  1.00000000E+00
  1.00000000E+00  1.00000000E+00  1.00000000E+00  0.00000000E+00  0.00000000E+00
  0.00000000E+00  1.00000000E+00  0.00000000E+00  0.00000000E+00  0.00000000E+00
  1.00000000E+00  0.00000000E+00  0.00000000E+00  0.00000000E+00
Virial Ratio                               R      2.005746781875732E+00
SCF Energy                                 R     -2.682065165655480E+02
Total Energy                               R     -2.682065165655480E+02
RMS Force                                  R      3.131731260291494E-03
RMS Density                                R      4.751772581738096E-09
External E-field                           R   N=          35
  0.00000000E+00  0.00000000E+00  0.00000000E+00  0.00000000E+00  0.00000000E+00
  0.00000000E+00  0.00000000E+00  0.00000000E+00  0.00000000E+00  0.00000000E+00
  0.00000000E+00  0.00000000E+00  0.00000000E+00  0.00000000E+00  0.00000000E+00
  0.00000000E+00  0.00000000E+00  0.00000000E+00  0.00000000E+00  0.00000000E+00
  0.00000000E+00  0.00000000E+00  0.00000000E+00  0.00000000E+00  0.00000000E+00
  0.00000000E+00  0.00000000E+00  0.00000000E+00  0.00000000E+00  0.00000000E+00
  0.00000000E+00  0.00000000E+00  0.00000000E+00  0.00000000E+00  0.00000000E+00
IOpCl                                      I                0
IROHF                                      I                0
Alpha Orbital Energies                     R   N=          77
 -1.93101690E+01 -1.92835749E+01 -1.04540116E+01 -1.03610284E+01 -1.03136026E+01
 -1.21720382E+00 -1.13547618E+00 -8.77723508E-01 -8.17966298E-01 -6.64267133E-01
 -5.96184290E-01 -5.83384943E-01 -5.69827207E-01 -5.31194453E-01 -5.22470108E-01
 -5.02758288E-01 -4.67544022E-01 -4.33060176E-01 -3.81194380E-01 -3.68098091E-01
  4.37765982E-02  6.94880650E-02  8.16226350E-02  1.00813346E-01  1.04749455E-01
  1.08598926E-01  1.25841417E-01  1.31347828E-01  1.49919012E-01  1.54879516E-01
  1.64480790E-01  1.81594127E-01  2.01652976E-01  2.27676982E-01  2.44551911E-01
  2.59086561E-01  2.73261758E-01  2.84121010E-01  2.99011937E-01  3.21230956E-01
  3.33606403E-01  3.45003943E-01  3.59143104E-01  3.73342467E-01  3.80990965E-01
  4.01373819E-01  4.07942089E-01  4.25789747E-01  4.38504534E-01  4.52247274E-01
  5.61148684E-01  7.20683375E-01  7.21478052E-01  7.54174432E-01  7.58307226E-01
  7.70219511E-01  8.26983327E-01  8.70825799E-01  9.16720051E-01  9.28481219E-01
  1.08548863E+00  1.09621597E+00  1.11813817E+00  1.16168182E+00  1.16510352E+00
  1.19911816E+00  1.24725268E+00  1.28204808E+00  1.34424182E+00  1.36798191E+00
  1.40957109E+00  1.45210093E+00  1.46674769E+00  1.48191901E+00  1.59878852E+00
  1.94031938E+00  2.00827249E+00
Alpha MO coefficients                      R   N=        5929
 -4.42203949E-05 -5.65808761E-04 -1.29299936E-04 -3.77208485E-05  2.19681262E-05
  2.42181341E-03 -2.65272184E-04  1.37954072E-03  7.96593363E-05  1.51649626E-02
  3.57590715E-03  1.64168737E-03 -6.77807394E-04  8.09612037E-05  3.62718899E-04
  3.87527410E-04 -1.53403641E-04 -4.29265139E-05  2.28690682E-03  4.70569336E-03
 -1.18540610E-03 -1.23482910E-03 -1.96652564E-02  6.87576249E-04  5.14932422E-03
 -1.09597379E-03  4.74916314E-05 -4.52682714E-04 -1.94579453E-04 -6.49154556E-04
  2.94766726E-06 -4.44186924E-04  9.95228415E-01  2.97584031E-02 -2.01486569E-04
  1.18041907E-03  1.37078252E-03 -2.10578619E-02  1.00306328E-03 -2.34873928E-03
 -2.43686359E-03  1.06695541E-02 -5.06031405E-04  6.40164774E-04  7.48080293E-04
 -6.84457784E-04 -1.81828092E-04  3.07162365E-05  1.14499379E-04  4.43720563E-05
  2.22414271E-04 -1.07364447E-03 -9.14259455E-05  7.37822668E-05  1.36435878E-04
 -3.72362264E-04 -1.14862543E-04  4.21677740E-04 -4.04296540E-06  8.12071854E-05
 -6.27305562E-04 -4.57019959E-05 -2.82689068E-04  3.15446126E-03 -8.94571405E-04
 -3.26082419E-05 -7.11559761E-04  4.79484328E-04  4.48476291E-04  1.59334528E-04
  7.76681017E-04 -2.78936987E-04 -1.04479881E-03 -2.20569592E-04 -8.94925820E-04
 -2.57488523E-04 -6.51674448E-04 -9.59482374E-06 -2.44577349E-04 -3.08887636E-05
 -9.95106689E-05  1.25761554E-05  2.57978921E-03  1.99154515E-03 -8.13230867E-04
 -1.08647867E-03  6.84406534E-03  9.03597437E-04  1.82889404E-03  4.32264419E-04
  2.34633634E-04  2.87068539E-04 -1.69183325E-04 -6.38111433E-05 -4.09181009E-05
  7.23356204E-03  8.05587376E-04  9.83163273E-03  1.29417094E-03 -1.36480606E-02
  6.77457114E-04 -8.93484678E-04 -1.93711480E-03 -2.26325893E-04 -4.29696543E-04
  1.74996771E-04  2.85670421E-04 -4.00407547E-05 -4.36784573E-05  6.91294645E-04
 -1.64758920E-04  1.96046732E-04  2.00390564E-05 -5.79246102E-05  6.41528261E-04
 -9.24100754E-04 -1.25371192E-03  1.74060594E-04 -3.08703615E-04 -7.20218256E-04
 -6.27770911E-04 -3.99971943E-04  9.95238415E-01  2.98666576E-02  2.28223632E-04
 -2.25746545E-03 -2.62653249E-04 -2.37894067E-02 -7.53690915E-04  5.83097278E-03
  6.54924603E-04  7.83243876E-03  3.16389450E-04 -6.62493274E-04  3.60400100E-04
  3.09511103E-05  3.05427274E-04 -9.35157205E-05 -2.98221087E-05  2.76396275E-05
 -5.52461692E-05  4.79566561E-04  1.16091220E-04 -9.62388148E-04  2.57096312E-03
 -9.78693382E-04  5.63265084E-04  6.03428119E-05  4.67281448E-05 -3.68490339E-04
 -1.15020892E-04 -2.14321353E-04  1.00241562E-04  9.36883382E-04  7.55756045E-04
 -7.22536824E-04 -1.11346472E-04 -3.19496420E-04  7.16331725E-05  5.82057653E-03
  1.05853553E-03  2.33784360E-03 -6.39044539E-04 -3.19193983E-03 -1.11600516E-03
 -1.59645780E-03  4.25761553E-06  9.95558275E-01  3.68370766E-02  9.49922944E-04
  8.32117873E-04 -1.09846929E-04 -3.46236721E-02 -4.29606230E-04  2.17415647E-04
 -9.76892419E-06 -7.50735473E-03 -3.83459001E-03  1.39777760E-03  6.06789317E-04
 -1.24542824E-04 -4.00780629E-04 -1.52210532E-04 -1.31610904E-03 -2.12380356E-04
  5.15126712E-04  4.57534887E-05  4.58465752E-04  1.70739622E-04 -1.05367565E-04
 -7.63079299E-05 -1.50395313E-04  2.18540990E-05 -1.09678527E-04 -9.19678549E-05
  8.99731656E-03 -7.24907643E-03  1.95508953E-03  1.21282924E-03 -1.45825620E-04
 -5.90038971E-05 -6.59169007E-06  5.31591416E-04  8.58198526E-05  9.95219401E-04
 -2.45298354E-04 -4.29221428E-05  6.25350014E-06  8.97608915E-03  1.52229043E-04
 -4.95258535E-03 -3.84602305E-04 -1.56610615E-04 -6.74385127E-04  5.46474179E-05
  1.88558600E-05 -2.05321898E-05  2.05754818E-03 -7.10796776E-04  3.06745546E-04
  3.36862393E-04  6.82842211E-03 -1.99454803E-03 -2.11417609E-04 -1.10462005E-03
 -7.81700113E-05 -1.59158012E-03 -5.58246386E-05  1.05427950E-03 -1.56559605E-04
 -1.01818274E-03  1.03252625E-04  1.99375999E-04  1.06562627E-04 -4.63768512E-05
  4.09924119E-05  3.22765877E-04 -3.78512000E-04  6.18306774E-04 -3.07374464E-04
 -1.76478053E-03 -7.43973885E-05 -2.54505448E-04  8.07986605E-04 -8.80864551E-06
 -6.53613631E-04 -1.01293884E-04 -2.41339548E-06  7.70194985E-05  2.97457049E-03
  1.57155551E-03  1.45032566E-03 -4.22509151E-04  9.34727364E-03  1.45945194E-03
 -1.37057474E-03 -1.81520915E-03 -3.71889858E-05  6.25790604E-04 -7.59968268E-05
 -2.09324963E-04  2.58702384E-04 -3.69024745E-04  6.08707861E-05  5.66579204E-04
 -6.83705748E-05  2.27457787E-05 -8.52816973E-05 -2.51590162E-05  8.70256445E-04
 -3.83344621E-04  4.09896872E-04  1.34867969E-02  6.91667839E-03  1.46427571E-03
  4.82738725E-03  1.96220738E-05  2.31504881E-04 -1.40143258E-06 -1.48802387E-05
  1.29982027E-05 -1.55393796E-03 -5.64938621E-04  7.99600155E-04 -3.29367327E-05
 -2.82923910E-03 -5.73273524E-04  9.48366543E-04  1.12135189E-03  9.95544961E-01
  3.71394339E-02 -1.03025052E-03 -2.05825298E-04 -5.64235584E-04 -3.58064207E-02
  3.06338944E-03  5.98628492E-04  1.71608252E-03 -1.19215458E-02  3.75343361E-03
  3.17022434E-04  1.88189464E-03 -5.85782616E-04  5.83785425E-03 -5.01370479E-04
  5.38817991E-03 -4.62036501E-04  5.58671145E-03  9.95471978E-01  3.75561360E-02
  4.43652805E-04  4.49513568E-05  2.60243481E-05 -3.87889941E-02 -3.42889556E-03
 -1.88433875E-03  5.26879410E-04 -1.07628383E-02 -1.48386553E-03 -1.65280695E-03
  5.96851499E-04 -7.23132934E-04 -7.42832705E-04  5.09385155E-04  4.72519858E-04
 -1.07805427E-04  5.78432247E-03 -6.79107805E-03 -4.81337837E-03  1.58691056E-03
  5.49524667E-03 -3.22612307E-03 -1.23278012E-04  7.30886635E-05 -5.39944995E-04
  7.73021226E-03 -5.48230997E-04  6.80406876E-03 -4.92046898E-04  7.90887935E-03
 -1.54081922E-05 -4.00291128E-04  1.68792101E-04 -5.12861998E-05 -1.11637327E-04
  7.99074423E-04 -6.21573444E-04  8.45736349E-04  6.13930766E-04  5.61195704E-03
 -1.15684978E-03  3.45635960E-05  1.35462849E-03 -4.50983935E-06 -1.98042444E-04
  7.70305727E-06  1.13891058E-04  3.35517047E-05  5.33833966E-04  7.15827341E-04
 -3.58035822E-04 -4.00939501E-04  2.08970122E-03  6.04572150E-04 -1.42295349E-03
  2.67732384E-04 -5.74889874E-05  2.52128626E-04 -5.93980205E-05 -6.04255896E-05
  6.44642691E-05 -1.22262242E-03  9.59659642E-04  3.51723672E-04 -3.26908986E-04
  9.67333003E-04 -5.16279504E-05 -1.27663642E-04 -1.98081321E-04  2.51167167E-05
 -2.83361747E-04  1.15560262E-05 -4.16763475E-04  1.76481568E-04 -3.34073848E-05
 -1.78829473E-02  3.56708814E-02  1.97270118E-02  1.71843882E-02 -4.33817526E-03
 -4.42542403E-03 -7.39088518E-03 -4.79998346E-03  3.55359913E-03 -9.03670581E-02
 -1.63055065E-02 -1.51527698E-02  1.41839870E-03 -1.23179932E-01  2.52057744E-01
  6.37915839E-02  9.21015587E-02 -1.69624752E-04  4.70928560E-02 -2.64874561E-02
 -5.00997142E-02  2.88109302E-03  1.27697846E-01 -1.29167927E-02 -1.98597261E-02
  1.30279009E-02  5.50506647E-03  4.38297302E-04  5.41047379E-03 -5.52354751E-05
  5.71808049E-03 -4.06352413E-04 -1.33493700E-01  2.86106401E-01 -3.33322617E-02
  6.05247058E-02  6.06016220E-02  3.10373500E-01 -1.38725209E-02  4.08787531E-02
  3.95701293E-02 -4.77111164E-02  1.72414504E-02 -6.23780661E-03 -1.14811727E-02
 -1.30316114E-01  2.85207218E-01  1.67840993E-02 -1.31726839E-01 -1.81655330E-02
  2.80316218E-01  1.09607800E-02 -5.29701891E-02 -6.83776410E-03 -1.37734297E-03
  7.65493086E-03 -3.22089654E-03 -5.50344174E-03 -3.67605383E-02  6.64486036E-02
 -4.48289964E-02 -4.79138500E-03 -2.51389229E-02  2.90276039E-02 -7.11186678E-05
  2.38696424E-03  9.01499760E-03 -9.48360667E-03 -3.59326298E-04 -2.29037733E-03
 -1.33709583E-03  1.11800878E-02  2.49944796E-03  1.03429454E-02  2.55730171E-03
  1.07110308E-02 -3.57592906E-03  2.30463680E-03 -2.20734262E-03  5.00183153E-03
 -1.22460686E-02 -2.01301470E-03 -5.97375099E-03  1.11516709E-02 -1.41516222E-02
 -6.17904275E-03 -1.26376436E-01 -2.86847457E-02 -1.43319000E-02  8.93616875E-03
  3.23299096E-02 -6.98418881E-02  9.47322530E-02 -1.99244227E-01 -4.50440773E-02
 -5.72534240E-03 -3.43464265E-02  6.34643456E-02  1.70696101E-02  9.32863177E-02
 -3.82901178E-02 -3.73562100E-02  8.21285052E-03  7.45312408E-04  1.68491268E-03
 -2.32054399E-03  6.07327948E-03  3.94118491E-04  5.13606098E-03 -1.51899544E-01
  3.27499512E-01  8.57886017E-05  3.76487243E-02  6.54295539E-02  3.83745826E-01
 -6.43089833E-03  2.80321161E-02  4.81397177E-02 -9.98464655E-04 -2.56972995E-02
 -1.50381003E-03 -5.39056029E-03  1.44363167E-01 -3.17879874E-01  2.31926869E-03
  1.25833759E-01  1.38909893E-02 -3.27149717E-01  1.62028734E-03  5.40622646E-02
  5.10708167E-03 -2.19727289E-02  8.86582804E-03  1.59314317E-02 -1.55288976E-04
 -5.10414769E-02  9.92037878E-02 -5.79167093E-02 -1.09964845E-02 -3.53791090E-02
  4.26896895E-02  8.35797834E-03 -4.94160494E-05  3.16664152E-03  3.79545324E-02
 -1.71814748E-02  3.16403667E-03 -9.57300202E-03  1.64610762E-02 -1.88929522E-03
  1.65901409E-02  3.31076621E-03  1.75504979E-02  1.14018986E-03 -1.56951235E-01
  2.94620173E-01  4.89155409E-02  2.58677164E-02 -1.07366406E-02  3.02870086E-01
  1.46928417E-02  2.10707381E-03 -2.97707448E-03  4.82639769E-02  6.54048144E-03
  1.27503119E-02 -1.69873364E-03 -8.15891668E-02  1.72552249E-01 -6.74053049E-02
 -1.71688652E-01  1.80260502E-04  1.37107525E-01 -5.92119673E-03 -7.64886634E-03
  3.19969061E-03  1.76133004E-02  2.51882280E-02 -1.36506333E-02 -3.39958602E-03
  9.30013315E-02  3.82326316E-03  8.59031526E-02  3.32934380E-03  9.49523391E-02
  4.08489377E-03  1.05580951E-02 -2.32940313E-02 -1.57658580E-01 -8.21996459E-03
 -2.10219319E-02 -3.08512197E-02 -6.74478097E-02 -7.29825968E-03 -1.21676455E-02
  1.80358771E-03  2.65123539E-02  2.47819435E-03  5.31047840E-03  4.71528262E-02
 -1.07268272E-01 -2.29770114E-02  8.50509265E-05  5.41304958E-03 -1.24360817E-01
 -1.02781869E-02  3.63061255E-03  1.17802163E-03 -2.70250593E-02 -2.37878044E-03
  1.59880186E-02  4.37850080E-04  8.54143327E-02 -1.65582365E-01  2.01570535E-02
  6.39836640E-03  2.33801319E-02 -1.61685646E-01  2.03269144E-03 -4.13310436E-03
 -7.19984637E-04 -5.34067998E-02  1.74750586E-02  2.27987897E-03  7.99447438E-03
 -4.89029072E-02 -3.32325288E-04 -5.33882387E-02 -9.31071384E-03 -4.76702874E-02
 -2.52684390E-03 -1.02103000E-01  1.92017875E-01 -1.34194500E-02  4.73131492E-03
  1.30545943E-02  2.14071125E-01 -7.36448661E-03  5.69470927E-03  5.21720055E-03
  9.87725962E-02  1.65068596E-02  1.42356071E-02 -7.33200226E-03  1.67900584E-02
 -4.16955251E-02 -1.59282148E-01  7.11385215E-03  7.23738972E-02 -2.91524245E-02
 -5.37701541E-03 -1.10817696E-02  1.00229933E-02 -1.38862245E-01  6.36657582E-03
  2.23628521E-02  2.60355174E-04  6.45040805E-02  3.82832648E-03  7.46179444E-02
  6.40642685E-03  7.23711945E-02  1.17672556E-02  4.50229664E-02 -1.02366968E-01
  1.90377909E-01 -4.78357678E-02  4.17841633E-02 -1.47872279E-01  8.63415054E-02
 -2.54869438E-02  1.15693011E-02 -3.58815206E-02 -2.90315698E-02  1.03728775E-03
 -9.99110602E-03 -3.46195502E-03  6.28925095E-03 -3.54935293E-02  1.08927317E-03
  2.04197849E-02  1.47713670E-02 -1.24997373E-02 -2.59208537E-03  7.73862736E-03
  1.73247114E-02 -5.14210518E-03 -5.10172650E-03 -1.83385477E-03 -1.56125315E-01
  3.04466178E-01  2.79886484E-02 -1.02885443E-02  8.69105261E-03  3.32993770E-01
  3.52285283E-03 -7.21716303E-04  7.19625633E-03  6.67273502E-02 -1.93818309E-02