 Entering Gaussian System, Link 0=/opt/cluster/programs/g09_d.01/g09//g09
 Input=/home/unibas/boittier/RDKit_G2/O.pdb/SCAN_1_2_6_8_S_17_20.0/14_SCAN_1_2_6_8_F/14_SCAN_O.pdb.com
 Output=/scratch/boittier/14_SCAN_O.pdb/14_SCAN_O.pdb.out
 Initial command:
 /opt/cluster/programs/g09_d.01/g09/l1.exe "/scratch/boittier/14_SCAN_O.pdb/Gau-148898.inp" -scrdir="/scratch/boittier/14_SCAN_O.pdb/"
 Entering Link 1 = /opt/cluster/programs/g09_d.01/g09/l1.exe PID=    148900.
  
 Copyright (c) 1988,1990,1992,1993,1995,1998,2003,2009,2013,
            Gaussian, Inc.  All Rights Reserved.
  
 This is part of the Gaussian(R) 09 program.  It is based on
 the Gaussian(R) 03 system (copyright 2003, Gaussian, Inc.),
 the Gaussian(R) 98 system (copyright 1998, Gaussian, Inc.),
 the Gaussian(R) 94 system (copyright 1995, Gaussian, Inc.),
 the Gaussian 92(TM) system (copyright 1992, Gaussian, Inc.),
 the Gaussian 90(TM) system (copyright 1990, Gaussian, Inc.),
 the Gaussian 88(TM) system (copyright 1988, Gaussian, Inc.),
 the Gaussian 86(TM) system (copyright 1986, Carnegie Mellon
 University), and the Gaussian 82(TM) system (copyright 1983,
 Carnegie Mellon University). Gaussian is a federally registered
 trademark of Gaussian, Inc.
  
 This software contains proprietary and confidential information,
 including trade secrets, belonging to Gaussian, Inc.
  
 This software is provided under written license and may be
 used, copied, transmitted, or stored only in accord with that
 written license.
  
 The following legend is applicable only to US Government
 contracts under FAR:
  
                    RESTRICTED RIGHTS LEGEND
  
 Use, reproduction and disclosure by the US Government is
 subject to restrictions as set forth in subparagraphs (a)
 and (c) of the Commercial Computer Software - Restricted
 Rights clause in FAR 52.227-19.
  
 Gaussian, Inc.
 340 Quinnipiac St., Bldg. 40, Wallingford CT 06492
  
  
 ---------------------------------------------------------------
 Warning -- This program may not be used in any manner that
 competes with the business of Gaussian, Inc. or will provide
 assistance to any competitor of Gaussian, Inc.  The licensee
 of this program is prohibited from giving any competitor of
 Gaussian, Inc. access to this program.  By using this program,
 the user acknowledges that Gaussian, Inc. is engaged in the
 business of creating and licensing software in the field of
 computational chemistry and represents and warrants to the
 licensee that it is not a competitor of Gaussian, Inc. and that
 it will not use this program in any manner prohibited above.
 ---------------------------------------------------------------
  

 Cite this work as:
 Gaussian 09, Revision D.01,
 M. J. Frisch, G. W. Trucks, H. B. Schlegel, G. E. Scuseria, 
 M. A. Robb, J. R. Cheeseman, G. Scalmani, V. Barone, B. Mennucci, 
 G. A. Petersson, H. Nakatsuji, M. Caricato, X. Li, H. P. Hratchian, 
 A. F. Izmaylov, J. Bloino, G. Zheng, J. L. Sonnenberg, M. Hada, 
 M. Ehara, K. Toyota, R. Fukuda, J. Hasegawa, M. Ishida, T. Nakajima, 
 Y. Honda, O. Kitao, H. Nakai, T. Vreven, J. A. Montgomery, Jr., 
 J. E. Peralta, F. Ogliaro, M. Bearpark, J. J. Heyd, E. Brothers, 
 K. N. Kudin, V. N. Staroverov, T. Keith, R. Kobayashi, J. Normand, 
 K. Raghavachari, A. Rendell, J. C. Burant, S. S. Iyengar, J. Tomasi, 
 M. Cossi, N. Rega, J. M. Millam, M. Klene, J. E. Knox, J. B. Cross, 
 V. Bakken, C. Adamo, J. Jaramillo, R. Gomperts, R. E. Stratmann, 
 O. Yazyev, A. J. Austin, R. Cammi, C. Pomelli, J. W. Ochterski, 
 R. L. Martin, K. Morokuma, V. G. Zakrzewski, G. A. Voth, 
 P. Salvador, J. J. Dannenberg, S. Dapprich, A. D. Daniels, 
 O. Farkas, J. B. Foresman, J. V. Ortiz, J. Cioslowski, 
 and D. J. Fox, Gaussian, Inc., Wallingford CT, 2013.
 
 ******************************************
 Gaussian 09:  ES64L-G09RevD.01 24-Apr-2013
                26-May-2021 
 ******************************************
 %chk=/home/unibas/boittier/RDKit_G2/O.pdb/SCAN_1_2_6_8_S_17_20.0/14_SCAN_1_2_6_8
 _F/O.pdb.chk
 %nproc=8
 Will use up to    8 processors via shared memory.
 %mem=16GB
 -----------------------------
 #p wB97XD/6-31+G Opt=ModRedun
 -----------------------------
 1/14=-1,18=120,19=15,26=3,38=1/1,3;
 2/9=110,12=2,17=6,18=5,40=1/2;
 3/5=1,6=6,7=10,11=2,16=1,25=1,30=1,71=1,74=-58/1,2,3;
 4//1;
 5/5=2,38=5/2;
 6/7=2,8=2,9=2,10=2,28=1/1;
 7//1,2,3,16;
 1/14=-1,18=20,19=15,26=3/3(2);
 2/9=110/2;
 99//99;
 2/9=110/2;
 3/5=1,6=6,7=10,11=2,16=1,25=1,30=1,71=1,74=-58/1,2,3;
 4/5=5,16=3,69=1/1;
 5/5=2,38=5/2;
 7//1,2,3,16;
 1/14=-1,18=20,19=15,26=3/3(-5);
 2/9=110/2;
 6/7=2,8=2,9=2,10=2,19=2,28=1/1;
 99/9=1/99;
 Leave Link    1 at Wed May 26 09:01:16 2021, MaxMem=  2147483648 cpu:         0.2
 (Enter /opt/cluster/programs/g09_d.01/g09/l101.exe)
 -----
 O.pdb
 -----
 Symbolic Z-matrix:
 Charge =  0 Multiplicity = 1
 C                     1.40736  -0.97886   0.12434 
 C                     0.53237   0.21511  -0.1072 
 H                     0.92195  -1.65676   0.83485 
 H                     2.37701  -0.66903   0.51328 
 H                     1.5378   -1.52948  -0.81202 
 O                    -0.71928  -0.1137   -0.62476 
 O                     0.8383    1.37656   0.12413 
 C                    -1.84295  -0.17821   0.30493 
 H                    -1.68919  -0.98438   1.03029 
 H                    -2.71403  -0.39189  -0.30978 
 H                    -1.96645   0.78041   0.81598 
 
 The following ModRedundant input section has been read:
 D       1       2       6       8 F                                           
 
 NAtoms=     11 NQM=       11 NQMF=       0 NMMI=      0 NMMIF=      0
                NMic=       0 NMicF=      0.
                    Isotopes and Nuclear Properties:
 (Nuclear quadrupole moments (NQMom) in fm**2, nuclear magnetic moments (NMagM)
  in nuclear magnetons)

  Atom         1           2           3           4           5           6           7           8           9          10
 IAtWgt=          12          12           1           1           1          16          16          12           1           1
 AtmWgt=  12.0000000  12.0000000   1.0078250   1.0078250   1.0078250  15.9949146  15.9949146  12.0000000   1.0078250   1.0078250
 NucSpn=           0           0           1           1           1           0           0           0           1           1
 AtZEff=   0.0000000   0.0000000   0.0000000   0.0000000   0.0000000   0.0000000   0.0000000   0.0000000   0.0000000   0.0000000
 NQMom=    0.0000000   0.0000000   0.0000000   0.0000000   0.0000000   0.0000000   0.0000000   0.0000000   0.0000000   0.0000000
 NMagM=    0.0000000   0.0000000   2.7928460   2.7928460   2.7928460   0.0000000   0.0000000   0.0000000   2.7928460   2.7928460
 AtZNuc=   6.0000000   6.0000000   1.0000000   1.0000000   1.0000000   8.0000000   8.0000000   6.0000000   1.0000000   1.0000000

  Atom        11
 IAtWgt=           1
 AtmWgt=   1.0078250
 NucSpn=           1
 AtZEff=   0.0000000
 NQMom=    0.0000000
 NMagM=    2.7928460
 AtZNuc=   1.0000000
 Leave Link  101 at Wed May 26 09:01:16 2021, MaxMem=  2147483648 cpu:         4.2
 (Enter /opt/cluster/programs/g09_d.01/g09/l103.exe)

 GradGradGradGradGradGradGradGradGradGradGradGradGradGradGradGradGradGrad
 Berny optimization.
 Initialization pass.
                           ----------------------------
                           !    Initial Parameters    !
                           ! (Angstroms and Degrees)  !
 --------------------------                            --------------------------
 ! Name  Definition              Value          Derivative Info.                !
 --------------------------------------------------------------------------------
 ! R1    R(1,2)                  1.4983         estimate D2E/DX2                !
 ! R2    R(1,3)                  1.0954         estimate D2E/DX2                !
 ! R3    R(1,4)                  1.0897         estimate D2E/DX2                !
 ! R4    R(1,5)                  1.0941         estimate D2E/DX2                !
 ! R5    R(2,6)                  1.3938         estimate D2E/DX2                !
 ! R6    R(2,7)                  1.2231         estimate D2E/DX2                !
 ! R7    R(6,8)                  1.4598         estimate D2E/DX2                !
 ! R8    R(8,9)                  1.0953         estimate D2E/DX2                !
 ! R9    R(8,10)                 1.0873         estimate D2E/DX2                !
 ! R10   R(8,11)                 1.0933         estimate D2E/DX2                !
 ! A1    A(2,1,3)              109.5483         estimate D2E/DX2                !
 ! A2    A(2,1,4)              110.3795         estimate D2E/DX2                !
 ! A3    A(2,1,5)              109.7815         estimate D2E/DX2                !
 ! A4    A(3,1,4)              109.8002         estimate D2E/DX2                !
 ! A5    A(3,1,5)              107.2474         estimate D2E/DX2                !
 ! A6    A(4,1,5)              110.028          estimate D2E/DX2                !
 ! A7    A(1,2,6)              113.1934         estimate D2E/DX2                !
 ! A8    A(1,2,7)              125.5498         estimate D2E/DX2                !
 ! A9    A(6,2,7)              121.2561         estimate D2E/DX2                !
 ! A10   A(2,6,8)              117.7214         estimate D2E/DX2                !
 ! A11   A(6,8,9)              110.256          estimate D2E/DX2                !
 ! A12   A(6,8,10)             105.384          estimate D2E/DX2                !
 ! A13   A(6,8,11)             110.2356         estimate D2E/DX2                !
 ! A14   A(9,8,10)             110.0113         estimate D2E/DX2                !
 ! A15   A(9,8,11)             110.5879         estimate D2E/DX2                !
 ! A16   A(10,8,11)            110.2468         estimate D2E/DX2                !
 ! D1    D(3,1,2,6)            -59.8661         estimate D2E/DX2                !
 ! D2    D(3,1,2,7)            119.8184         estimate D2E/DX2                !
 ! D3    D(4,1,2,6)            179.112          estimate D2E/DX2                !
 ! D4    D(4,1,2,7)             -1.2035         estimate D2E/DX2                !
 ! D5    D(5,1,2,6)             57.6545         estimate D2E/DX2                !
 ! D6    D(5,1,2,7)           -122.661          estimate D2E/DX2                !
 ! D7    D(1,2,6,8)             99.3855         Frozen                          !
 ! D8    D(7,2,6,8)            -80.3143         estimate D2E/DX2                !
 ! D9    D(2,6,8,9)            -64.3575         estimate D2E/DX2                !
 ! D10   D(2,6,8,10)           176.9663         estimate D2E/DX2                !
 ! D11   D(2,6,8,11)            58.0217         estimate D2E/DX2                !
 --------------------------------------------------------------------------------
 Trust Radius=3.00D-01 FncErr=1.00D-07 GrdErr=1.00D-06
 Number of steps in this run=     47 maximum allowed number of steps=    100.
 GradGradGradGradGradGradGradGradGradGradGradGradGradGradGradGradGradGrad

 Leave Link  103 at Wed May 26 09:01:17 2021, MaxMem=  2147483648 cpu:         0.1
 (Enter /opt/cluster/programs/g09_d.01/g09/l202.exe)
                          Input orientation:                          
 ---------------------------------------------------------------------
 Center     Atomic      Atomic             Coordinates (Angstroms)
 Number     Number       Type             X           Y           Z
 ---------------------------------------------------------------------
      1          6           0        1.407359   -0.978863    0.124337
      2          6           0        0.532366    0.215112   -0.107197
      3          1           0        0.921947   -1.656760    0.834845
      4          1           0        2.377013   -0.669032    0.513284
      5          1           0        1.537798   -1.529479   -0.812022
      6          8           0       -0.719277   -0.113697   -0.624757
      7          8           0        0.838304    1.376556    0.124129
      8          6           0       -1.842945   -0.178206    0.304931
      9          1           0       -1.689185   -0.984383    1.030290
     10          1           0       -2.714027   -0.391887   -0.309781
     11          1           0       -1.966445    0.780408    0.815983
 ---------------------------------------------------------------------
                    Distance matrix (angstroms):
                    1          2          3          4          5
     1  C    0.000000
     2  C    1.498265   0.000000
     3  H    1.095441   2.131460   0.000000
     4  H    1.089727   2.137622   1.787799   0.000000
     5  H    1.094057   2.133370   1.762851   1.789158   0.000000
     6  O    2.415002   1.393770   2.684231   3.345227   2.670935
     7  O    2.423184   1.223136   3.116588   2.589111   3.132205
     8  C    3.352334   2.442673   3.179868   4.253512   3.808273
     9  H    3.226355   2.769107   2.703387   4.111047   3.755617
    10  H    4.185549   3.308860   4.016264   5.164585   4.429941
    11  H    3.867294   2.723211   3.779279   4.588914   4.501744
                    6          7          8          9         10
     6  O    0.000000
     7  O    2.282048   0.000000
     8  C    1.459833   3.104685   0.000000
     9  H    2.106655   3.575383   1.095312   0.000000
    10  H    2.038536   3.991832   1.087343   1.788056   0.000000
    11  H    2.104895   2.949690   1.093328   1.799246   1.788994
                   11
    11  H    0.000000
 Stoichiometry    C3H6O2
 Framework group  C1[X(C3H6O2)]
 Deg. of freedom    27
 Full point group                 C1      NOp   1
 Largest Abelian subgroup         C1      NOp   1
 Largest concise Abelian subgroup C1      NOp   1
                         Standard orientation:                         
 ---------------------------------------------------------------------
 Center     Atomic      Atomic             Coordinates (Angstroms)
 Number     Number       Type             X           Y           Z
 ---------------------------------------------------------------------
      1          6           0        1.407359   -0.978863    0.124337
      2          6           0        0.532366    0.215112   -0.107197
      3          1           0        0.921947   -1.656760    0.834845
      4          1           0        2.377013   -0.669032    0.513284
      5          1           0        1.537798   -1.529479   -0.812022
      6          8           0       -0.719277   -0.113697   -0.624757
      7          8           0        0.838304    1.376556    0.124129
      8          6           0       -1.842945   -0.178206    0.304931
      9          1           0       -1.689185   -0.984383    1.030290
     10          1           0       -2.714027   -0.391887   -0.309781
     11          1           0       -1.966445    0.780408    0.815983
 ---------------------------------------------------------------------
 Rotational constants (GHZ):      8.2804892      4.1372892      3.1468750
 Leave Link  202 at Wed May 26 09:01:17 2021, MaxMem=  2147483648 cpu:         0.0
 (Enter /opt/cluster/programs/g09_d.01/g09/l301.exe)
 Standard basis: 6-31+G (6D, 7F)
 Ernie: Thresh=  0.10000D-02 Tol=  0.10000D-05 Strict=F.
 There are    77 symmetry adapted cartesian basis functions of A   symmetry.
 There are    77 symmetry adapted basis functions of A   symmetry.
    77 basis functions,   154 primitive gaussians,    77 cartesian basis functions
    20 alpha electrons       20 beta electrons
       nuclear repulsion energy       178.4438072072 Hartrees.
 IExCor= 4639 DFT=T Ex+Corr=wB97XD ExCW=0 ScaHFX=  1.000000
 ScaDFX=  1.000000  1.000000  1.000000  1.000000 ScalE2=  1.000000  1.000000
 IRadAn=      0 IRanWt=     -1 IRanGd=            0 ICorTp=0 IEmpDi=121
  HFx wShort=  0.000000 wLong=  0.200000 cFull=  0.222036 cShort=  0.000000 cLong=  0.777964
  DFx wShort=  0.000000 wLong=  0.200000 cFull=  0.000000 cShort=  0.000000 cLong=  1.000000
 NAtoms=   11 NActive=   11 NUniq=   11 SFac= 1.00D+00 NAtFMM=   60 NAOKFM=F Big=F
 Integral buffers will be    131072 words long.
 Raffenetti 2 integral format.
 Two-electron integral symmetry is turned on.
 R6Disp:  Grimme-D2 Dispersion energy=       -0.0034744208 Hartrees.
 Nuclear repulsion after empirical dispersion term =      178.4403327864 Hartrees.
 Leave Link  301 at Wed May 26 09:01:17 2021, MaxMem=  2147483648 cpu:         0.3
 (Enter /opt/cluster/programs/g09_d.01/g09/l302.exe)
 NPDir=0 NMtPBC=     1 NCelOv=     1 NCel=       1 NClECP=     1 NCelD=      1
         NCelK=      1 NCelE2=     1 NClLst=     1 CellRange=     0.0.
 One-electron integrals computed using PRISM.
 NBasis=    77 RedAO= T EigKep=  1.74D-04  NBF=    77
 NBsUse=    77 1.00D-06 EigRej= -1.00D+00 NBFU=    77
 Precomputing XC quadrature grid using
 IXCGrd= 4 IRadAn=           0 IRanWt=          -1 IRanGd=           0 AccXCQ= 0.00D+00.
 Generated NRdTot=       0 NPtTot=           0 NUsed=           0 NTot=          32
 NSgBfM=    77    77    77    77    77 MxSgAt=    11 MxSgA2=    11.
 Leave Link  302 at Wed May 26 09:01:17 2021, MaxMem=  2147483648 cpu:         0.9
 (Enter /opt/cluster/programs/g09_d.01/g09/l303.exe)
 DipDrv:  MaxL=1.
 Leave Link  303 at Wed May 26 09:01:17 2021, MaxMem=  2147483648 cpu:         0.3
 (Enter /opt/cluster/programs/g09_d.01/g09/l401.exe)
 ExpMin= 4.38D-02 ExpMax= 5.48D+03 ExpMxC= 8.25D+02 IAcc=2 IRadAn=         4 AccDes= 0.00D+00
 Harris functional with IExCor= 4639 and IRadAn=       4 diagonalized for initial guess.
 HarFok:  IExCor= 4639 AccDes= 0.00D+00 IRadAn=         4 IDoV= 1 UseB2=F ITyADJ=14
 ICtDFT=  3500011 ScaDFX=  1.000000  1.000000  1.000000  1.000000
 FoFCou: FMM=F IPFlag=           0 FMFlag=      100000 FMFlg1=           0
         NFxFlg=           0 DoJE=T BraDBF=F KetDBF=T FulRan=T
         wScrn=  0.000000 ICntrl=     500 IOpCl=  0 I1Cent=   200000004 NGrid=           0
         NMat0=    1 NMatS0=      1 NMatT0=    0 NMatD0=    1 NMtDS0=    0 NMtDT0=    0
 Petite list used in FoFCou.
 Harris En= -257.352697144823    
 JPrj=0 DoOrth=F DoCkMO=F.
 Leave Link  401 at Wed May 26 09:01:17 2021, MaxMem=  2147483648 cpu:         1.4
 (Enter /opt/cluster/programs/g09_d.01/g09/l502.exe)
 Closed shell SCF:
 Using DIIS extrapolation, IDIIS=  1040.
 Integral symmetry usage will be decided dynamically.
 Keep R1 ints in memory in canonical form, NReq=9956864.
 IVT=       37546 IEndB=       37546 NGot=  2147483648 MDV=  2138425091
 LenX=  2138425091 LenY=  2138418721
 Requested convergence on RMS density matrix=1.00D-08 within 128 cycles.
 Requested convergence on MAX density matrix=1.00D-06.
 Requested convergence on             energy=1.00D-06.
 No special actions if energy rises.
 FoFCou: FMM=F IPFlag=           0 FMFlag=           0 FMFlg1=           0
         NFxFlg=           0 DoJE=F BraDBF=F KetDBF=F FulRan=T
         wScrn=  0.000000 ICntrl=     600 IOpCl=  0 I1Cent=           0 NGrid=           0
         NMat0=    1 NMatS0=   3003 NMatT0=    0 NMatD0=    1 NMtDS0=    0 NMtDT0=    0
 Symmetry not used in FoFCou.

 Cycle   1  Pass 1  IDiag  1:
 E= -268.114817336727    
 DIIS: error= 2.51D-02 at cycle   1 NSaved=   1.
 NSaved= 1 IEnMin= 1 EnMin= -268.114817336727     IErMin= 1 ErrMin= 2.51D-02
 ErrMax= 2.51D-02  0.00D+00 EMaxC= 1.00D-01 BMatC= 1.34D-01 BMatP= 1.34D-01
 IDIUse=3 WtCom= 7.49D-01 WtEn= 2.51D-01
 Coeff-Com:  0.100D+01
 Coeff-En:   0.100D+01
 Coeff:      0.100D+01
 Gap=     0.539 Goal=   None    Shift=    0.000
 GapD=    0.539 DampG=2.000 DampE=0.500 DampFc=1.0000 IDamp=-1.
 RMSDP=9.52D-03 MaxDP=1.85D-01              OVMax= 8.97D-02

 Cycle   2  Pass 1  IDiag  1:
 E= -268.143665630621     Delta-E=       -0.028848293894 Rises=F Damp=F
 DIIS: error= 2.59D-02 at cycle   2 NSaved=   2.
 NSaved= 2 IEnMin= 2 EnMin= -268.143665630621     IErMin= 1 ErrMin= 2.51D-02
 ErrMax= 2.59D-02  0.00D+00 EMaxC= 1.00D-01 BMatC= 7.15D-02 BMatP= 1.34D-01
 IDIUse=3 WtCom= 7.41D-01 WtEn= 2.59D-01
 Coeff-Com:  0.409D+00 0.591D+00
 Coeff-En:   0.374D+00 0.626D+00
 Coeff:      0.400D+00 0.600D+00
 Gap=     0.419 Goal=   None    Shift=    0.000
 RMSDP=4.40D-03 MaxDP=6.75D-02 DE=-2.88D-02 OVMax= 5.65D-02

 Cycle   3  Pass 1  IDiag  1:
 E= -268.194828739732     Delta-E=       -0.051163109111 Rises=F Damp=F
 DIIS: error= 9.34D-03 at cycle   3 NSaved=   3.
 NSaved= 3 IEnMin= 3 EnMin= -268.194828739732     IErMin= 3 ErrMin= 9.34D-03
 ErrMax= 9.34D-03  0.00D+00 EMaxC= 1.00D-01 BMatC= 7.99D-03 BMatP= 7.15D-02
 IDIUse=3 WtCom= 9.07D-01 WtEn= 9.34D-02
 Coeff-Com:  0.811D-01 0.268D+00 0.650D+00
 Coeff-En:   0.000D+00 0.000D+00 0.100D+01
 Coeff:      0.736D-01 0.243D+00 0.683D+00
 Gap=     0.427 Goal=   None    Shift=    0.000
 RMSDP=1.43D-03 MaxDP=2.08D-02 DE=-5.12D-02 OVMax= 2.69D-02

 Cycle   4  Pass 1  IDiag  1:
 E= -268.199645849232     Delta-E=       -0.004817109499 Rises=F Damp=F
 DIIS: error= 4.56D-03 at cycle   4 NSaved=   4.
 NSaved= 4 IEnMin= 4 EnMin= -268.199645849232     IErMin= 4 ErrMin= 4.56D-03
 ErrMax= 4.56D-03  0.00D+00 EMaxC= 1.00D-01 BMatC= 1.50D-03 BMatP= 7.99D-03
 IDIUse=3 WtCom= 9.54D-01 WtEn= 4.56D-02
 Coeff-Com: -0.341D-02 0.622D-01 0.365D+00 0.576D+00
 Coeff-En:   0.000D+00 0.000D+00 0.128D+00 0.872D+00
 Coeff:     -0.326D-02 0.594D-01 0.354D+00 0.589D+00
 Gap=     0.409 Goal=   None    Shift=    0.000
 RMSDP=7.67D-04 MaxDP=1.28D-02 DE=-4.82D-03 OVMax= 1.02D-02

 Cycle   5  Pass 1  IDiag  1:
 E= -268.200709545269     Delta-E=       -0.001063696037 Rises=F Damp=F
 DIIS: error= 8.85D-04 at cycle   5 NSaved=   5.
 NSaved= 5 IEnMin= 5 EnMin= -268.200709545269     IErMin= 5 ErrMin= 8.85D-04
 ErrMax= 8.85D-04  0.00D+00 EMaxC= 1.00D-01 BMatC= 9.67D-05 BMatP= 1.50D-03
 IDIUse=3 WtCom= 9.91D-01 WtEn= 8.85D-03
 Coeff-Com: -0.531D-02 0.163D-01 0.155D+00 0.323D+00 0.511D+00
 Coeff-En:   0.000D+00 0.000D+00 0.000D+00 0.000D+00 0.100D+01
 Coeff:     -0.527D-02 0.162D-01 0.154D+00 0.320D+00 0.515D+00
 Gap=     0.406 Goal=   None    Shift=    0.000
 RMSDP=1.30D-04 MaxDP=2.27D-03 DE=-1.06D-03 OVMax= 2.56D-03

 Cycle   6  Pass 1  IDiag  1:
 E= -268.200786105390     Delta-E=       -0.000076560121 Rises=F Damp=F
 DIIS: error= 1.18D-04 at cycle   6 NSaved=   6.
 NSaved= 6 IEnMin= 6 EnMin= -268.200786105390     IErMin= 6 ErrMin= 1.18D-04
 ErrMax= 1.18D-04  0.00D+00 EMaxC= 1.00D-01 BMatC= 2.48D-06 BMatP= 9.67D-05
 IDIUse=3 WtCom= 9.99D-01 WtEn= 1.18D-03
 Coeff-Com: -0.349D-03-0.801D-02-0.273D-01-0.310D-01 0.889D-01 0.978D+00
 Coeff-En:   0.000D+00 0.000D+00 0.000D+00 0.000D+00 0.000D+00 0.100D+01
 Coeff:     -0.349D-03-0.800D-02-0.272D-01-0.309D-01 0.888D-01 0.978D+00
 Gap=     0.406 Goal=   None    Shift=    0.000
 RMSDP=1.46D-04 MaxDP=3.44D-03 DE=-7.66D-05 OVMax= 7.27D-04

 Cycle   7  Pass 1  IDiag  1:
 E= -268.200789786103     Delta-E=       -0.000003680713 Rises=F Damp=F
 DIIS: error= 4.71D-05 at cycle   7 NSaved=   7.
 NSaved= 7 IEnMin= 7 EnMin= -268.200789786103     IErMin= 7 ErrMin= 4.71D-05
 ErrMax= 4.71D-05  0.00D+00 EMaxC= 1.00D-01 BMatC= 2.02D-07 BMatP= 2.48D-06
 IDIUse=1 WtCom= 1.00D+00 WtEn= 0.00D+00
 Coeff-Com:  0.371D-03-0.383D-02-0.200D-01-0.340D-01 0.290D-03 0.302D+00
 Coeff-Com:  0.755D+00
 Coeff:      0.371D-03-0.383D-02-0.200D-01-0.340D-01 0.290D-03 0.302D+00
 Coeff:      0.755D+00
 Gap=     0.406 Goal=   None    Shift=    0.000
 RMSDP=2.51D-05 MaxDP=5.33D-04 DE=-3.68D-06 OVMax= 1.91D-04

 Cycle   8  Pass 1  IDiag  1:
 E= -268.200790100380     Delta-E=       -0.000000314277 Rises=F Damp=F
 DIIS: error= 9.95D-06 at cycle   8 NSaved=   8.
 NSaved= 8 IEnMin= 8 EnMin= -268.200790100380     IErMin= 8 ErrMin= 9.95D-06
 ErrMax= 9.95D-06  0.00D+00 EMaxC= 1.00D-01 BMatC= 1.06D-08 BMatP= 2.02D-07
 IDIUse=1 WtCom= 1.00D+00 WtEn= 0.00D+00
 Coeff-Com: -0.371D-05 0.768D-03 0.281D-02 0.304D-02-0.332D-02-0.103D+00
 Coeff-Com: -0.151D-01 0.111D+01
 Coeff:     -0.371D-05 0.768D-03 0.281D-02 0.304D-02-0.332D-02-0.103D+00
 Coeff:     -0.151D-01 0.111D+01
 Gap=     0.406 Goal=   None    Shift=    0.000
 RMSDP=7.20D-06 MaxDP=9.28D-05 DE=-3.14D-07 OVMax= 1.14D-04

 Cycle   9  Pass 1  IDiag  1:
 E= -268.200790128649     Delta-E=       -0.000000028269 Rises=F Damp=F
 DIIS: error= 3.10D-06 at cycle   9 NSaved=   9.
 NSaved= 9 IEnMin= 9 EnMin= -268.200790128649     IErMin= 9 ErrMin= 3.10D-06
 ErrMax= 3.10D-06  0.00D+00 EMaxC= 1.00D-01 BMatC= 4.08D-10 BMatP= 1.06D-08
 IDIUse=1 WtCom= 1.00D+00 WtEn= 0.00D+00
 Coeff-Com: -0.153D-04 0.137D-03 0.798D-03 0.144D-02 0.138D-02-0.720D-02
 Coeff-Com: -0.342D-01-0.961D-01 0.113D+01
 Coeff:     -0.153D-04 0.137D-03 0.798D-03 0.144D-02 0.138D-02-0.720D-02
 Coeff:     -0.342D-01-0.961D-01 0.113D+01
 Gap=     0.406 Goal=   None    Shift=    0.000
 RMSDP=1.89D-06 MaxDP=3.26D-05 DE=-2.83D-08 OVMax= 3.57D-05

 Cycle  10  Pass 1  IDiag  1:
 E= -268.200790130409     Delta-E=       -0.000000001761 Rises=F Damp=F
 DIIS: error= 1.14D-06 at cycle  10 NSaved=  10.
 NSaved=10 IEnMin=10 EnMin= -268.200790130409     IErMin=10 ErrMin= 1.14D-06
 ErrMax= 1.14D-06  0.00D+00 EMaxC= 1.00D-01 BMatC= 3.48D-11 BMatP= 4.08D-10
 IDIUse=1 WtCom= 1.00D+00 WtEn= 0.00D+00
 Coeff-Com:  0.156D-05-0.578D-04-0.240D-03-0.312D-03 0.266D-03 0.682D-02
 Coeff-Com:  0.334D-02-0.591D-01-0.103D+00 0.115D+01
 Coeff:      0.156D-05-0.578D-04-0.240D-03-0.312D-03 0.266D-03 0.682D-02
 Coeff:      0.334D-02-0.591D-01-0.103D+00 0.115D+01
 Gap=     0.406 Goal=   None    Shift=    0.000
 RMSDP=6.04D-07 MaxDP=1.08D-05 DE=-1.76D-09 OVMax= 1.46D-05

 Cycle  11  Pass 1  IDiag  1:
 E= -268.200790130619     Delta-E=       -0.000000000209 Rises=F Damp=F
 DIIS: error= 3.71D-07 at cycle  11 NSaved=  11.
 NSaved=11 IEnMin=11 EnMin= -268.200790130619     IErMin=11 ErrMin= 3.71D-07
 ErrMax= 3.71D-07  0.00D+00 EMaxC= 1.00D-01 BMatC= 8.06D-12 BMatP= 3.48D-11
 IDIUse=1 WtCom= 1.00D+00 WtEn= 0.00D+00
 Coeff-Com:  0.205D-05-0.313D-04-0.158D-03-0.252D-03-0.130D-03 0.257D-02
 Coeff-Com:  0.492D-02-0.244D-02-0.174D+00 0.318D+00 0.851D+00
 Coeff:      0.205D-05-0.313D-04-0.158D-03-0.252D-03-0.130D-03 0.257D-02
 Coeff:      0.492D-02-0.244D-02-0.174D+00 0.318D+00 0.851D+00
 Gap=     0.406 Goal=   None    Shift=    0.000
 RMSDP=1.41D-07 MaxDP=1.66D-06 DE=-2.09D-10 OVMax= 5.33D-06

 Cycle  12  Pass 1  IDiag  1:
 E= -268.200790130655     Delta-E=       -0.000000000036 Rises=F Damp=F
 DIIS: error= 1.35D-07 at cycle  12 NSaved=  12.
 NSaved=12 IEnMin=12 EnMin= -268.200790130655     IErMin=12 ErrMin= 1.35D-07
 ErrMax= 1.35D-07  0.00D+00 EMaxC= 1.00D-01 BMatC= 9.77D-13 BMatP= 8.06D-12
 IDIUse=1 WtCom= 1.00D+00 WtEn= 0.00D+00
 Coeff-Com: -0.346D-06 0.119D-04 0.488D-04 0.662D-04-0.944D-04-0.140D-02
 Coeff-Com: -0.700D-03 0.125D-01 0.194D-01-0.233D+00 0.179D-02 0.120D+01
 Coeff:     -0.346D-06 0.119D-04 0.488D-04 0.662D-04-0.944D-04-0.140D-02
 Coeff:     -0.700D-03 0.125D-01 0.194D-01-0.233D+00 0.179D-02 0.120D+01
 Gap=     0.406 Goal=   None    Shift=    0.000
 RMSDP=8.50D-08 MaxDP=1.09D-06 DE=-3.60D-11 OVMax= 3.02D-06

 Cycle  13  Pass 1  IDiag  1:
 E= -268.200790130659     Delta-E=       -0.000000000004 Rises=F Damp=F
 DIIS: error= 2.17D-08 at cycle  13 NSaved=  13.
 NSaved=13 IEnMin=13 EnMin= -268.200790130659     IErMin=13 ErrMin= 2.17D-08
 ErrMax= 2.17D-08  0.00D+00 EMaxC= 1.00D-01 BMatC= 2.59D-14 BMatP= 9.77D-13
 IDIUse=1 WtCom= 1.00D+00 WtEn= 0.00D+00
 Coeff-Com: -0.387D-07-0.499D-06-0.934D-07 0.293D-05 0.179D-04 0.143D-03
 Coeff-Com: -0.103D-03-0.218D-02 0.475D-02 0.278D-01-0.397D-01-0.221D+00
 Coeff-Com:  0.123D+01
 Coeff:     -0.387D-07-0.499D-06-0.934D-07 0.293D-05 0.179D-04 0.143D-03
 Coeff:     -0.103D-03-0.218D-02 0.475D-02 0.278D-01-0.397D-01-0.221D+00
 Coeff:      0.123D+01
 Gap=     0.406 Goal=   None    Shift=    0.000
 RMSDP=1.70D-08 MaxDP=2.40D-07 DE=-3.98D-12 OVMax= 3.96D-07

 Cycle  14  Pass 1  IDiag  1:
 E= -268.200790130658     Delta-E=        0.000000000001 Rises=F Damp=F
 DIIS: error= 4.64D-09 at cycle  14 NSaved=  14.
 NSaved=14 IEnMin=13 EnMin= -268.200790130659     IErMin=14 ErrMin= 4.64D-09
 ErrMax= 4.64D-09  0.00D+00 EMaxC= 1.00D-01 BMatC= 9.86D-16 BMatP= 2.59D-14
 IDIUse=1 WtCom= 1.00D+00 WtEn= 0.00D+00
 Coeff-Com:  0.189D-07-0.117D-06-0.119D-05-0.219D-05-0.308D-05-0.744D-05
 Coeff-Com:  0.501D-04 0.274D-03-0.188D-02-0.120D-02 0.113D-01 0.286D-01
 Coeff-Com: -0.377D+00 0.134D+01
 Coeff:      0.189D-07-0.117D-06-0.119D-05-0.219D-05-0.308D-05-0.744D-05
 Coeff:      0.501D-04 0.274D-03-0.188D-02-0.120D-02 0.113D-01 0.286D-01
 Coeff:     -0.377D+00 0.134D+01
 Gap=     0.406 Goal=   None    Shift=    0.000
 RMSDP=3.12D-09 MaxDP=5.76D-08 DE= 5.68D-13 OVMax= 6.38D-08

 SCF Done:  E(RwB97XD) =  -268.200790131     A.U. after   14 cycles
            NFock= 14  Conv=0.31D-08     -V/T= 2.0057
 KE= 2.666697702013D+02 PE=-9.844419552808D+02 EE= 2.711310621625D+02
 Leave Link  502 at Wed May 26 09:01:19 2021, MaxMem=  2147483648 cpu:        15.4
 (Enter /opt/cluster/programs/g09_d.01/g09/l601.exe)
 Copying SCF densities to generalized density rwf, IOpCl= 0 IROHF=0.

 **********************************************************************

            Population analysis using the SCF density.

 **********************************************************************

 Orbital symmetries:
       Occupied  (A) (A) (A) (A) (A) (A) (A) (A) (A) (A) (A) (A)
                 (A) (A) (A) (A) (A) (A) (A) (A)
       Virtual   (A) (A) (A) (A) (A) (A) (A) (A) (A) (A) (A) (A)
                 (A) (A) (A) (A) (A) (A) (A) (A) (A) (A) (A) (A)
                 (A) (A) (A) (A) (A) (A) (A) (A) (A) (A) (A) (A)
                 (A) (A) (A) (A) (A) (A) (A) (A) (A) (A) (A) (A)
                 (A) (A) (A) (A) (A) (A) (A) (A) (A)
 The electronic state is 1-A.
 Alpha  occ. eigenvalues --  -19.30398 -19.28801 -10.45563 -10.36458 -10.31594
 Alpha  occ. eigenvalues --   -1.21563  -1.13653  -0.87598  -0.82113  -0.66507
 Alpha  occ. eigenvalues --   -0.59711  -0.58334  -0.57246  -0.53055  -0.52603
 Alpha  occ. eigenvalues --   -0.50734  -0.47108  -0.43008  -0.37938  -0.36717
 Alpha virt. eigenvalues --    0.03932   0.06693   0.07992   0.09928   0.10381
 Alpha virt. eigenvalues --    0.10976   0.12449   0.13098   0.14719   0.15065
 Alpha virt. eigenvalues --    0.16508   0.17286   0.19727   0.22858   0.24195
 Alpha virt. eigenvalues --    0.26102   0.27478   0.28543   0.29719   0.32401
 Alpha virt. eigenvalues --    0.33225   0.34830   0.36057   0.37765   0.38532
 Alpha virt. eigenvalues --    0.40212   0.41042   0.42581   0.43436   0.45867
 Alpha virt. eigenvalues --    0.56275   0.71355   0.72820   0.74962   0.75754
 Alpha virt. eigenvalues --    0.77883   0.82029   0.88568   0.90563   0.93576
 Alpha virt. eigenvalues --    1.06163   1.10082   1.11011   1.15215   1.16243
 Alpha virt. eigenvalues --    1.19575   1.24207   1.28327   1.34351   1.38697
 Alpha virt. eigenvalues --    1.40798   1.44585   1.47213   1.54527   1.60458
 Alpha virt. eigenvalues --    1.92296   2.01761
          Condensed to atoms (all electrons):
               1          2          3          4          5          6
     1  C    6.720805  -0.466641   0.344027   0.345206   0.367229  -0.487191
     2  C   -0.466641   5.719286  -0.014199  -0.012927  -0.033010   0.237706
     3  H    0.344027  -0.014199   0.483573  -0.023633  -0.022109   0.002509
     4  H    0.345206  -0.012927  -0.023633   0.463076  -0.020788   0.010317
     5  H    0.367229  -0.033010  -0.022109  -0.020788   0.450750  -0.000006
     6  O   -0.487191   0.237706   0.002509   0.010317  -0.000006   8.778207
     7  O   -0.151024   0.343306   0.000421  -0.002166   0.003235  -0.193930
     8  C   -0.046045  -0.127160   0.002710   0.000275   0.000855   0.127003
     9  H    0.009753   0.002173   0.000723  -0.000109   0.000088  -0.059689
    10  H   -0.002100  -0.001223   0.000007   0.000003  -0.000001  -0.050778
    11  H   -0.003893  -0.000893  -0.000118   0.000022  -0.000007  -0.051319
               7          8          9         10         11
     1  C   -0.151024  -0.046045   0.009753  -0.002100  -0.003893
     2  C    0.343306  -0.127160   0.002173  -0.001223  -0.000893
     3  H    0.000421   0.002710   0.000723   0.000007  -0.000118
     4  H   -0.002166   0.000275  -0.000109   0.000003   0.000022
     5  H    0.003235   0.000855   0.000088  -0.000001  -0.000007
     6  O   -0.193930   0.127003  -0.059689  -0.050778  -0.051319
     7  O    8.394949  -0.016344  -0.003184  -0.000612   0.011880
     8  C   -0.016344   5.293833   0.373731   0.400708   0.381316
     9  H   -0.003184   0.373731   0.551534  -0.029218  -0.040982
    10  H   -0.000612   0.400708  -0.029218   0.481257  -0.026242
    11  H    0.011880   0.381316  -0.040982  -0.026242   0.507400
 Mulliken charges:
               1
     1  C   -0.630127
     2  C    0.353580
     3  H    0.226091
     4  H    0.240726
     5  H    0.253762
     6  O   -0.312829
     7  O   -0.386531
     8  C   -0.390883
     9  H    0.195180
    10  H    0.228198
    11  H    0.222834
 Sum of Mulliken charges =   0.00000
 Mulliken charges with hydrogens summed into heavy atoms:
               1
     1  C    0.090452
     2  C    0.353580
     6  O   -0.312829
     7  O   -0.386531
     8  C    0.255329
 Electronic spatial extent (au):  <R**2>=            434.9449
 Charge=              0.0000 electrons
 Dipole moment (field-independent basis, Debye):
    X=             -1.0589    Y=             -3.1185    Z=              1.4447  Tot=              3.5963
 Quadrupole moment (field-independent basis, Debye-Ang):
   XX=            -25.7226   YY=            -34.1889   ZZ=            -31.2051
   XY=             -3.1590   XZ=             -2.3676   YZ=             -0.8221
 Traceless Quadrupole moment (field-independent basis, Debye-Ang):
   XX=              4.6496   YY=             -3.8166   ZZ=             -0.8329
   XY=             -3.1590   XZ=             -2.3676   YZ=             -0.8221
 Octapole moment (field-independent basis, Debye-Ang**2):
  XXX=             -9.5769  YYY=             -5.5967  ZZZ=             -0.1591  XYY=             -3.5741
  XXY=             -3.5645  XXZ=              0.1796  XZZ=              1.1622  YZZ=              0.1151
  YYZ=             -0.2546  XYZ=             -0.3429
 Hexadecapole moment (field-independent basis, Debye-Ang**3):
 XXXX=           -307.2098 YYYY=           -168.1635 ZZZZ=            -63.5548 XXXY=              1.3776
 XXXZ=              4.9620 YYYX=             -4.1705 YYYZ=             -0.4241 ZZZX=             -1.6167
 ZZZY=              0.6395 XXYY=            -85.9006 XXZZ=            -65.3745 YYZZ=            -34.6045
 XXYZ=              1.4163 YYXZ=             -2.8864 ZZXY=              0.0089
 N-N= 1.784403327864D+02 E-N=-9.844419553489D+02  KE= 2.666697702013D+02
 No NMR shielding tensors so no spin-rotation constants.
 Leave Link  601 at Wed May 26 09:01:19 2021, MaxMem=  2147483648 cpu:         0.6
 (Enter /opt/cluster/programs/g09_d.01/g09/l701.exe)
 Compute integral first derivatives.
 ... and contract with generalized density number  0.
 R6Disp: Adding Grimme-D2 dispersion energy 1st derivatives to the gradient.
 Leave Link  701 at Wed May 26 09:01:19 2021, MaxMem=  2147483648 cpu:         0.6
 (Enter /opt/cluster/programs/g09_d.01/g09/l702.exe)
 L702 exits ... SP integral derivatives will be done elsewhere.
 Leave Link  702 at Wed May 26 09:01:19 2021, MaxMem=  2147483648 cpu:         0.2
 (Enter /opt/cluster/programs/g09_d.01/g09/l703.exe)
 Compute integral first derivatives, UseDBF=F ICtDFT=           0.
 Integral derivatives from FoFJK, PRISM(SPDF).
 Calling FoFJK, ICntrl=      2127 FMM=F ISym2X=0 I1Cent= 0 IOpClX= 0 NMat=1 NMatS=1 NMatT=0.
 FoFJK:  IHMeth= 1 ICntrl=    2127 DoSepK=T KAlg= 0 I1Cent=   0 FoldK=F
 IRaf=         1 NMat=   1 IRICut=       1 DoRegI=T DoRafI=F ISym2E= 0.
 FoFCou: FMM=F IPFlag=           0 FMFlag=      100000 FMFlg1=         800
         NFxFlg=           0 DoJE=F BraDBF=F KetDBF=F FulRan=T
         wScrn=  0.000000 ICntrl=    2527 IOpCl=  0 I1Cent=           0 NGrid=           0
         NMat0=    1 NMatS0=      1 NMatT0=    0 NMatD0=    1 NMtDS0=    0 NMtDT0=    0
 Symmetry not used in FoFCou.
 Leave Link  703 at Wed May 26 09:01:20 2021, MaxMem=  2147483648 cpu:         3.7
 (Enter /opt/cluster/programs/g09_d.01/g09/l716.exe)
 Dipole        =-4.16594442D-01-1.22690806D+00 5.68392085D-01
 ***** Axes restored to original set *****
 -------------------------------------------------------------------
 Center     Atomic                   Forces (Hartrees/Bohr)
 Number     Number              X              Y              Z
 -------------------------------------------------------------------
      1        6           0.001358146    0.000304755   -0.003512093
      2        6          -0.002291239    0.001480633    0.004765448
      3        1          -0.000011648    0.000006654    0.000011652
      4        1          -0.000010180    0.000012763    0.000007584
      5        1           0.000001259   -0.000018836    0.000010739
      6        8           0.001696998   -0.005679369   -0.000606563
      7        8          -0.000015218    0.000000581   -0.000035377
      8        6          -0.000734357    0.003892994   -0.000631658
      9        1          -0.000001464   -0.000003160    0.000007442
     10        1           0.000004217   -0.000006498   -0.000002592
     11        1           0.000003485    0.000009483   -0.000014583
 -------------------------------------------------------------------
 Cartesian Forces:  Max     0.005679369 RMS     0.001705814
 Leave Link  716 at Wed May 26 09:01:20 2021, MaxMem=  2147483648 cpu:         0.2
 (Enter /opt/cluster/programs/g09_d.01/g09/l103.exe)

 GradGradGradGradGradGradGradGradGradGradGradGradGradGradGradGradGradGrad
 Berny optimization.
 FormGI is forming the generalized inverse of G from B-inverse, IUseBI=4.
 Internal  Forces:  Max     0.006035357 RMS     0.001264460
 Search for a local minimum.
 Step number   1 out of a maximum of   47
 All quantities printed in internal units (Hartrees-Bohrs-Radians)
 RMS Force = .24590D-04 SwitMx=.10000D-02 MixMth= 2
 Mixed Optimization -- En-DIIS/RFO-DIIS
 Second derivative matrix not updated -- first step.
 ITU=  0
     Eigenvalues ---    0.00789   0.00900   0.01160   0.07352   0.07572
     Eigenvalues ---    0.10052   0.10600   0.16000   0.16000   0.16000
     Eigenvalues ---    0.16000   0.16000   0.16000   0.25000   0.25000
     Eigenvalues ---    0.25000   0.32560   0.34191   0.34206   0.34348
     Eigenvalues ---    0.34431   0.34844   0.35122   0.36985   0.46669
     Eigenvalues ---    0.940071000.000001000.000001000.000001000.00000
     Eigenvalues --- 1000.000001000.000001000.000001000.000001000.00000
     Eigenvalues --- 1000.000001000.00000
 RFO step:  Lambda=-1.23542254D-07 EMin= 7.88902428D-03
 Linear search not attempted -- first point.
 Iteration  1 RMS(Cart)=  0.00039146 RMS(Int)=  0.00000011
 Iteration  2 RMS(Cart)=  0.00000017 RMS(Int)=  0.00000005
 Iteration  1 RMS(Cart)=  0.00000002 RMS(Int)=  0.00000001
 ITry= 1 IFail=0 DXMaxC= 8.57D-04 DCOld= 1.00D+10 DXMaxT= 3.00D-01 DXLimC= 3.00D+00 Rises=F
 Variable       Old X    -DE/DX   Delta X   Delta X   Delta X     New X
                                 (Linear)    (Quad)   (Total)
    R1        2.83131   0.00000   0.00000  -0.00001  -0.00001   2.83130
    R2        2.07008   0.00000   0.00000   0.00001   0.00001   2.07009
    R3        2.05928  -0.00001   0.00000  -0.00002  -0.00002   2.05927
    R4        2.06747   0.00001   0.00000   0.00002   0.00002   2.06749
    R5        2.63384   0.00000   0.00000   0.00000   0.00000   2.63385
    R6        2.31139  -0.00001   0.00000  -0.00001  -0.00001   2.31138
    R7        2.75868  -0.00001   0.00000  -0.00002  -0.00002   2.75867
    R8        2.06984   0.00001   0.00000   0.00003   0.00003   2.06987
    R9        2.05478   0.00000   0.00000  -0.00001  -0.00001   2.05477
   R10        2.06609   0.00000   0.00000   0.00001   0.00001   2.06610
    A1        1.91198  -0.00001   0.00000  -0.00010  -0.00010   1.91187
    A2        1.92648  -0.00001   0.00000  -0.00007  -0.00007   1.92641
    A3        1.91605   0.00001   0.00000   0.00009   0.00009   1.91614
    A4        1.91637   0.00001   0.00000   0.00005   0.00005   1.91643
    A5        1.87182   0.00000   0.00000  -0.00004  -0.00004   1.87178
    A6        1.92035   0.00001   0.00000   0.00007   0.00007   1.92042
    A7        1.97560  -0.00005   0.00000  -0.00022  -0.00022   1.97538
    A8        2.19126   0.00007   0.00000   0.00021   0.00021   2.19146
    A9        2.11632   0.00000   0.00000   0.00002   0.00002   2.11634
   A10        2.05463  -0.00012   0.00000  -0.00048  -0.00048   2.05415
   A11        1.92433   0.00000   0.00000   0.00001   0.00001   1.92434
   A12        1.83930   0.00000   0.00000   0.00003   0.00003   1.83933
   A13        1.92397  -0.00001   0.00000  -0.00007  -0.00007   1.92390
   A14        1.92006   0.00000   0.00000   0.00000   0.00000   1.92005
   A15        1.93012   0.00000   0.00000   0.00001   0.00001   1.93013
   A16        1.92417   0.00000   0.00000   0.00003   0.00003   1.92419
    D1       -1.04486  -0.00120   0.00000  -0.00057  -0.00057  -1.04543
    D2        2.09123   0.00120   0.00000   0.00056   0.00056   2.09178
    D3        3.12609  -0.00120   0.00000  -0.00052  -0.00052   3.12557
    D4       -0.02100   0.00120   0.00000   0.00060   0.00060  -0.02040
    D5        1.00626  -0.00120   0.00000  -0.00062  -0.00062   1.00564
    D6       -2.14084   0.00120   0.00000   0.00050   0.00050  -2.14034
    D7        1.73460   0.00604   0.00000   0.00000   0.00000   1.73460
    D8       -1.40175   0.00375   0.00000  -0.00107  -0.00107  -1.40282
    D9       -1.12325   0.00000   0.00000  -0.00013  -0.00013  -1.12338
   D10        3.08865   0.00000   0.00000  -0.00014  -0.00014   3.08850
   D11        1.01267   0.00000   0.00000  -0.00015  -0.00015   1.01252
         Item               Value     Threshold  Converged?
 Maximum Force            0.000120     0.000450     YES
 RMS     Force            0.000025     0.000300     YES
 Maximum Displacement     0.000857     0.001800     YES
 RMS     Displacement     0.000392     0.001200     YES
 Predicted change in Energy=-6.210538D-08
 Optimization completed.
    -- Stationary point found.
                           ----------------------------
                           !   Optimized Parameters   !
                           ! (Angstroms and Degrees)  !
 --------------------------                            --------------------------
 ! Name  Definition              Value          Derivative Info.                !
 --------------------------------------------------------------------------------
 ! R1    R(1,2)                  1.4983         -DE/DX =    0.0                 !
 ! R2    R(1,3)                  1.0954         -DE/DX =    0.0                 !
 ! R3    R(1,4)                  1.0897         -DE/DX =    0.0                 !
 ! R4    R(1,5)                  1.0941         -DE/DX =    0.0                 !
 ! R5    R(2,6)                  1.3938         -DE/DX =    0.0                 !
 ! R6    R(2,7)                  1.2231         -DE/DX =    0.0                 !
 ! R7    R(6,8)                  1.4598         -DE/DX =    0.0                 !
 ! R8    R(8,9)                  1.0953         -DE/DX =    0.0                 !
 ! R9    R(8,10)                 1.0873         -DE/DX =    0.0                 !
 ! R10   R(8,11)                 1.0933         -DE/DX =    0.0                 !
 ! A1    A(2,1,3)              109.5483         -DE/DX =    0.0                 !
 ! A2    A(2,1,4)              110.3795         -DE/DX =    0.0                 !
 ! A3    A(2,1,5)              109.7815         -DE/DX =    0.0                 !
 ! A4    A(3,1,4)              109.8002         -DE/DX =    0.0                 !
 ! A5    A(3,1,5)              107.2474         -DE/DX =    0.0                 !
 ! A6    A(4,1,5)              110.028          -DE/DX =    0.0                 !
 ! A7    A(1,2,6)              113.1934         -DE/DX =   -0.0001              !
 ! A8    A(1,2,7)              125.5498         -DE/DX =    0.0001              !
 ! A9    A(6,2,7)              121.2561         -DE/DX =    0.0                 !
 ! A10   A(2,6,8)              117.7214         -DE/DX =   -0.0001              !
 ! A11   A(6,8,9)              110.256          -DE/DX =    0.0                 !
 ! A12   A(6,8,10)             105.384          -DE/DX =    0.0                 !
 ! A13   A(6,8,11)             110.2356         -DE/DX =    0.0                 !
 ! A14   A(9,8,10)             110.0113         -DE/DX =    0.0                 !
 ! A15   A(9,8,11)             110.5879         -DE/DX =    0.0                 !
 ! A16   A(10,8,11)            110.2468         -DE/DX =    0.0                 !
 ! D1    D(3,1,2,6)            -59.8661         -DE/DX =   -0.0012              !
 ! D2    D(3,1,2,7)            119.8184         -DE/DX =    0.0012              !
 ! D3    D(4,1,2,6)            179.112          -DE/DX =   -0.0012              !
 ! D4    D(4,1,2,7)             -1.2035         -DE/DX =    0.0012              !
 ! D5    D(5,1,2,6)             57.6545         -DE/DX =   -0.0012              !
 ! D6    D(5,1,2,7)           -122.661          -DE/DX =    0.0012              !
 ! D7    D(1,2,6,8)             99.3855         -DE/DX =    0.006               !
 ! D8    D(7,2,6,8)            -80.3143         -DE/DX =    0.0038              !
 ! D9    D(2,6,8,9)            -64.3575         -DE/DX =    0.0                 !
 ! D10   D(2,6,8,10)           176.9663         -DE/DX =    0.0                 !
 ! D11   D(2,6,8,11)            58.0217         -DE/DX =    0.0                 !
 --------------------------------------------------------------------------------
 Lowest energy point so far.  Saving SCF results.
 GradGradGradGradGradGradGradGradGradGradGradGradGradGradGradGradGradGrad

 Largest change from initial coordinates is atom    4       0.000 Angstoms.
 Leave Link  103 at Wed May 26 09:01:20 2021, MaxMem=  2147483648 cpu:         0.1
 (Enter /opt/cluster/programs/g09_d.01/g09/l202.exe)
                          Input orientation:                          
 ---------------------------------------------------------------------
 Center     Atomic      Atomic             Coordinates (Angstroms)
 Number     Number       Type             X           Y           Z
 ---------------------------------------------------------------------
      1          6           0        1.407359   -0.978863    0.124337
      2          6           0        0.532366    0.215112   -0.107197
      3          1           0        0.921947   -1.656760    0.834845
      4          1           0        2.377013   -0.669032    0.513284
      5          1           0        1.537798   -1.529479   -0.812022
      6          8           0       -0.719277   -0.113697   -0.624757
      7          8           0        0.838304    1.376556    0.124129
      8          6           0       -1.842945   -0.178206    0.304931
      9          1           0       -1.689185   -0.984383    1.030290
     10          1           0       -2.714027   -0.391887   -0.309781
     11          1           0       -1.966445    0.780408    0.815983
 ---------------------------------------------------------------------
                    Distance matrix (angstroms):
                    1          2          3          4          5
     1  C    0.000000
     2  C    1.498265   0.000000
     3  H    1.095441   2.131460   0.000000
     4  H    1.089727   2.137622   1.787799   0.000000
     5  H    1.094057   2.133370   1.762851   1.789158   0.000000
     6  O    2.415002   1.393770   2.684231   3.345227   2.670935
     7  O    2.423184   1.223136   3.116588   2.589111   3.132205
     8  C    3.352334   2.442673   3.179868   4.253512   3.808273
     9  H    3.226355   2.769107   2.703387   4.111047   3.755617
    10  H    4.185549   3.308860   4.016264   5.164585   4.429941
    11  H    3.867294   2.723211   3.779279   4.588914   4.501744
                    6          7          8          9         10
     6  O    0.000000
     7  O    2.282048   0.000000
     8  C    1.459833   3.104685   0.000000
     9  H    2.106655   3.575383   1.095312   0.000000
    10  H    2.038536   3.991832   1.087343   1.788056   0.000000
    11  H    2.104895   2.949690   1.093328   1.799246   1.788994
                   11
    11  H    0.000000
 Stoichiometry    C3H6O2
 Framework group  C1[X(C3H6O2)]
 Deg. of freedom    27
 Full point group                 C1      NOp   1
 RotChk:  IX=0 Diff= 3.88D-16
 Largest Abelian subgroup         C1      NOp   1
 Largest concise Abelian subgroup C1      NOp   1
                         Standard orientation:                         
 ---------------------------------------------------------------------
 Center     Atomic      Atomic             Coordinates (Angstroms)
 Number     Number       Type             X           Y           Z
 ---------------------------------------------------------------------
      1          6           0        1.407359   -0.978863    0.124337
      2          6           0        0.532366    0.215112   -0.107197
      3          1           0        0.921947   -1.656760    0.834845
      4          1           0        2.377013   -0.669032    0.513284
      5          1           0        1.537798   -1.529479   -0.812022
      6          8           0       -0.719277   -0.113697   -0.624757
      7          8           0        0.838304    1.376556    0.124129
      8          6           0       -1.842945   -0.178206    0.304931
      9          1           0       -1.689185   -0.984383    1.030290
     10          1           0       -2.714027   -0.391887   -0.309781
     11          1           0       -1.966445    0.780408    0.815983
 ---------------------------------------------------------------------
 Rotational constants (GHZ):      8.2804892      4.1372892      3.1468750
 Leave Link  202 at Wed May 26 09:01:20 2021, MaxMem=  2147483648 cpu:         0.0
 (Enter /opt/cluster/programs/g09_d.01/g09/l9999.exe)
 1\1\GINC-NODE12\FOpt\RwB97XD\6-31+G\C3H6O2\BOITTIER\26-May-2021\0\\#p 
 wB97XD/6-31+G Opt=ModRedun\\O.pdb\\0,1\C,1.407359,-0.978863,0.124337\C
 ,0.532366,0.215112,-0.107197\H,0.921947,-1.65676,0.834845\H,2.377013,-
 0.669032,0.513284\H,1.537798,-1.529479,-0.812022\O,-0.719277,-0.113697
 ,-0.624757\O,0.838304,1.376556,0.124129\C,-1.842945,-0.178206,0.304931
 \H,-1.689185,-0.984383,1.03029\H,-2.714027,-0.391887,-0.309781\H,-1.96
 6445,0.780408,0.815983\\Version=ES64L-G09RevD.01\State=1-A\HF=-268.200
 7901\RMSD=3.117e-09\RMSF=1.706e-03\Dipole=-0.4165946,-1.226908,0.56839
 21\Quadrupole=3.4568585,-2.8375843,-0.6192742,-2.3486451,-1.7602889,-0
 .6112086\PG=C01 [X(C3H6O2)]\\@


 THE WHOLE OF SCIENCE IS NOTHING MORE THAN A REFINEMENT OF EVERYDAY THINKING.
                                                              -- A. EINSTEIN
 Job cpu time:       0 days  0 hours  0 minutes 28.8 seconds.
 File lengths (MBytes):  RWF=      5 Int=      0 D2E=      0 Chk=      2 Scr=      1
 Normal termination of Gaussian 09 at Wed May 26 09:01:20 2021.
