O.pdb                                                                   
FOpt      RwB97XD                                                     6-31+G              
Number of atoms                            I               11
Info1-9                                    I   N=           9
          22          22           0           0           0         100
           2          18        -802
Charge                                     I                0
Multiplicity                               I                1
Number of electrons                        I               40
Number of alpha electrons                  I               20
Number of beta electrons                   I               20
Number of basis functions                  I               77
Number of independent functions            I               77
Number of point charges in /Mol/           I                0
Number of translation vectors              I                0
Atomic numbers                             I   N=          11
           6           6           1           1           1           8
           8           6           1           1           1
Nuclear charges                            R   N=          11
  6.00000000E+00  6.00000000E+00  1.00000000E+00  1.00000000E+00  1.00000000E+00
  8.00000000E+00  8.00000000E+00  6.00000000E+00  1.00000000E+00  1.00000000E+00
  1.00000000E+00
Current cartesian coordinates              R   N=          33
  2.65952308E+00 -1.84978299E+00  2.34962878E-01  1.00602594E+00  4.06502768E-01
 -2.02572972E-01  1.74222734E+00 -3.13082267E+00  1.57762841E+00  4.49190358E+00
 -1.26428725E+00  9.69966188E-01  2.90601707E+00 -2.89029644E+00 -1.53449919E+00
 -1.35923654E+00 -2.14856192E-01 -1.18061963E+00  1.58416498E+00  2.60131385E+00
  2.34569815E-01 -3.48266133E+00 -3.36760535E-01  5.76236079E-01 -3.19209704E+00
 -1.86021428E+00  1.94696594E+00 -5.12876775E+00 -7.40559105E-01 -5.85401251E-01
 -3.71604251E+00  1.47475739E+00  1.54198440E+00
Force Field                                I                0
Int Atom Types                             I   N=          11
           0           0           0           0           0           0
           0           0           0           0           0
MM charges                                 R   N=          11
  0.00000000E+00  0.00000000E+00  0.00000000E+00  0.00000000E+00  0.00000000E+00
  0.00000000E+00  0.00000000E+00  0.00000000E+00  0.00000000E+00  0.00000000E+00
  0.00000000E+00
Integer atomic weights                     I   N=          11
          12          12           1           1           1          16
          16          12           1           1           1
Real atomic weights                        R   N=          11
  1.20000000E+01  1.20000000E+01  1.00782504E+00  1.00782504E+00  1.00782504E+00
  1.59949146E+01  1.59949146E+01  1.20000000E+01  1.00782504E+00  1.00782504E+00
  1.00782504E+00
Atom fragment info                         I   N=          11
           0           0           0           0           0           0
           0           0           0           0           0
Atom residue num                           I   N=          11
           0           0           0           0           0           0
           0           0           0           0           0
Nuclear spins                              I   N=          11
           0           0           1           1           1           0
           0           0           1           1           1
Nuclear ZEff                               R   N=          11
 -3.60000000E+00 -3.60000000E+00 -1.00000000E+00 -1.00000000E+00 -1.00000000E+00
 -5.60000000E+00 -5.60000000E+00 -3.60000000E+00 -1.00000000E+00 -1.00000000E+00
 -1.00000000E+00
Nuclear ZNuc                               R   N=          11
  6.00000000E+00  6.00000000E+00  1.00000000E+00  1.00000000E+00  1.00000000E+00
  8.00000000E+00  8.00000000E+00  6.00000000E+00  1.00000000E+00  1.00000000E+00
  1.00000000E+00
Nuclear QMom                               R   N=          11
  0.00000000E+00  0.00000000E+00  0.00000000E+00  0.00000000E+00  0.00000000E+00
  0.00000000E+00  0.00000000E+00  0.00000000E+00  0.00000000E+00  0.00000000E+00
  0.00000000E+00
Nuclear GFac                               R   N=          11
  0.00000000E+00  0.00000000E+00  2.79284600E+00  2.79284600E+00  2.79284600E+00
  0.00000000E+00  0.00000000E+00  0.00000000E+00  2.79284600E+00  2.79284600E+00
  2.79284600E+00
MicOpt                                     I   N=          11
          -1          -1          -1          -1          -1          -1
          -1          -1          -1          -1          -1
Number of contracted shells                I               32
Number of primitive shells                 I               79
Pure/Cartesian d shells                    I                1
Pure/Cartesian f shells                    I                0
Highest angular momentum                   I                1
Largest degree of contraction              I                6
Shell types                                I   N=          32
           0          -1          -1          -1           0          -1
          -1          -1           0           0           0           0
           0           0           0          -1          -1          -1
           0          -1          -1          -1           0          -1
          -1          -1           0           0           0           0
           0           0
Number of primitives per shell             I   N=          32
           6           3           1           1           6           3
           1           1           3           1           3           1
           3           1           6           3           1           1
           6           3           1           1           6           3
           1           1           3           1           3           1
           3           1
Shell to atom map                          I   N=          32
           1           1           1           1           2           2
           2           2           3           3           4           4
           5           5           6           6           6           6
           7           7           7           7           8           8
           8           8           9           9          10          10
          11          11
Primitive exponents                        R   N=          79
  3.04752488E+03  4.57369518E+02  1.03948685E+02  2.92101553E+01  9.28666296E+00
  3.16392696E+00  7.86827235E+00  1.88128854E+00  5.44249258E-01  1.68714478E-01
  4.38000000E-02  3.04752488E+03  4.57369518E+02  1.03948685E+02  2.92101553E+01
  9.28666296E+00  3.16392696E+00  7.86827235E+00  1.88128854E+00  5.44249258E-01
  1.68714478E-01  4.38000000E-02  1.87311370E+01  2.82539436E+00  6.40121692E-01
  1.61277759E-01  1.87311370E+01  2.82539436E+00  6.40121692E-01  1.61277759E-01
  1.87311370E+01  2.82539436E+00  6.40121692E-01  1.61277759E-01  5.48467166E+03
  8.25234946E+02  1.88046958E+02  5.29645000E+01  1.68975704E+01  5.79963534E+00
  1.55396162E+01  3.59993359E+00  1.01376175E+00  2.70005823E-01  8.45000000E-02
  5.48467166E+03  8.25234946E+02  1.88046958E+02  5.29645000E+01  1.68975704E+01
  5.79963534E+00  1.55396162E+01  3.59993359E+00  1.01376175E+00  2.70005823E-01
  8.45000000E-02  3.04752488E+03  4.57369518E+02  1.03948685E+02  2.92101553E+01
  9.28666296E+00  3.16392696E+00  7.86827235E+00  1.88128854E+00  5.44249258E-01
  1.68714478E-01  4.38000000E-02  1.87311370E+01  2.82539436E+00  6.40121692E-01
  1.61277759E-01  1.87311370E+01  2.82539436E+00  6.40121692E-01  1.61277759E-01
  1.87311370E+01  2.82539436E+00  6.40121692E-01  1.61277759E-01
Contraction coefficients                   R   N=          79
  1.83473713E-03  1.40373228E-02  6.88426223E-02  2.32184443E-01  4.67941348E-01
  3.62311985E-01 -1.19332420E-01 -1.60854152E-01  1.14345644E+00  1.00000000E+00
  1.00000000E+00  1.83473713E-03  1.40373228E-02  6.88426223E-02  2.32184443E-01
  4.67941348E-01  3.62311985E-01 -1.19332420E-01 -1.60854152E-01  1.14345644E+00
  1.00000000E+00  1.00000000E+00  3.34946043E-02  2.34726953E-01  8.13757326E-01
  1.00000000E+00  3.34946043E-02  2.34726953E-01  8.13757326E-01  1.00000000E+00
  3.34946043E-02  2.34726953E-01  8.13757326E-01  1.00000000E+00  1.83107443E-03
  1.39501722E-02  6.84450781E-02  2.32714336E-01  4.70192898E-01  3.58520853E-01
 -1.10777550E-01 -1.48026263E-01  1.13076702E+00  1.00000000E+00  1.00000000E+00
  1.83107443E-03  1.39501722E-02  6.84450781E-02  2.32714336E-01  4.70192898E-01
  3.58520853E-01 -1.10777550E-01 -1.48026263E-01  1.13076702E+00  1.00000000E+00
  1.00000000E+00  1.83473713E-03  1.40373228E-02  6.88426223E-02  2.32184443E-01
  4.67941348E-01  3.62311985E-01 -1.19332420E-01 -1.60854152E-01  1.14345644E+00
  1.00000000E+00  1.00000000E+00  3.34946043E-02  2.34726953E-01  8.13757326E-01
  1.00000000E+00  3.34946043E-02  2.34726953E-01  8.13757326E-01  1.00000000E+00
  3.34946043E-02  2.34726953E-01  8.13757326E-01  1.00000000E+00
P(S=P) Contraction coefficients            R   N=          79
  0.00000000E+00  0.00000000E+00  0.00000000E+00  0.00000000E+00  0.00000000E+00
  0.00000000E+00  6.89990666E-02  3.16423961E-01  7.44308291E-01  1.00000000E+00
  1.00000000E+00  0.00000000E+00  0.00000000E+00  0.00000000E+00  0.00000000E+00
  0.00000000E+00  0.00000000E+00  6.89990666E-02  3.16423961E-01  7.44308291E-01
  1.00000000E+00  1.00000000E+00  0.00000000E+00  0.00000000E+00  0.00000000E+00
  0.00000000E+00  0.00000000E+00  0.00000000E+00  0.00000000E+00  0.00000000E+00
  0.00000000E+00  0.00000000E+00  0.00000000E+00  0.00000000E+00  0.00000000E+00
  0.00000000E+00  0.00000000E+00  0.00000000E+00  0.00000000E+00  0.00000000E+00
  7.08742682E-02  3.39752839E-01  7.27158577E-01  1.00000000E+00  1.00000000E+00
  0.00000000E+00  0.00000000E+00  0.00000000E+00  0.00000000E+00  0.00000000E+00
  0.00000000E+00  7.08742682E-02  3.39752839E-01  7.27158577E-01  1.00000000E+00
  1.00000000E+00  0.00000000E+00  0.00000000E+00  0.00000000E+00  0.00000000E+00
  0.00000000E+00  0.00000000E+00  6.89990666E-02  3.16423961E-01  7.44308291E-01
  1.00000000E+00  1.00000000E+00  0.00000000E+00  0.00000000E+00  0.00000000E+00
  0.00000000E+00  0.00000000E+00  0.00000000E+00  0.00000000E+00  0.00000000E+00
  0.00000000E+00  0.00000000E+00  0.00000000E+00  0.00000000E+00
Coordinates of each shell                  R   N=          96
  2.65952349E+00 -1.84978246E+00  2.34962831E-01  2.65952349E+00 -1.84978246E+00
  2.34962831E-01  2.65952349E+00 -1.84978246E+00  2.34962831E-01  2.65952349E+00
 -1.84978246E+00  2.34962831E-01  1.00602603E+00  4.06503056E-01 -2.02573020E-01
  1.00602603E+00  4.06503056E-01 -2.02573020E-01  1.00602603E+00  4.06503056E-01
 -2.02573020E-01  1.00602603E+00  4.06503056E-01 -2.02573020E-01  1.74222794E+00
 -3.13082227E+00  1.57762837E+00  1.74222794E+00 -3.13082227E+00  1.57762837E+00
  4.49190391E+00 -1.26428646E+00  9.69966141E-01  4.49190391E+00 -1.26428646E+00
  9.69966141E-01  2.90601763E+00 -2.89029587E+00 -1.53449924E+00  2.90601763E+00
 -2.89029587E+00 -1.53449924E+00 -1.35923637E+00 -2.14856248E-01 -1.18061968E+00
 -1.35923637E+00 -2.14856248E-01 -1.18061968E+00 -1.35923637E+00 -2.14856248E-01
 -1.18061968E+00 -1.35923637E+00 -2.14856248E-01 -1.18061968E+00  1.58416474E+00
  2.60131422E+00  2.34569768E-01  1.58416474E+00  2.60131422E+00  2.34569768E-01
  1.58416474E+00  2.60131422E+00  2.34569768E-01  1.58416474E+00  2.60131422E+00
  2.34569768E-01 -3.48266114E+00 -3.36760900E-01  5.76236032E-01 -3.48266114E+00
 -3.36760900E-01  5.76236032E-01 -3.48266114E+00 -3.36760900E-01  5.76236032E-01
 -3.48266114E+00 -3.36760900E-01  5.76236032E-01 -3.19209663E+00 -1.86021460E+00
  1.94696589E+00 -3.19209663E+00 -1.86021460E+00  1.94696589E+00 -5.12876750E+00
 -7.40559709E-01 -5.85401298E-01 -5.12876750E+00 -7.40559709E-01 -5.85401298E-01
 -3.71604258E+00  1.47475699E+00  1.54198435E+00 -3.71604258E+00  1.47475699E+00
  1.54198435E+00
Constraint Structure                       R   N=          33
  2.65952349E+00 -1.84978246E+00  2.34962831E-01  1.00602603E+00  4.06503056E-01
 -2.02573020E-01  1.74222794E+00 -3.13082227E+00  1.57762837E+00  4.49190391E+00
 -1.26428646E+00  9.69966141E-01  2.90601763E+00 -2.89029587E+00 -1.53449924E+00
 -1.35923637E+00 -2.14856248E-01 -1.18061968E+00  1.58416474E+00  2.60131422E+00
  2.34569768E-01 -3.48266114E+00 -3.36760900E-01  5.76236032E-01 -3.19209663E+00
 -1.86021460E+00  1.94696589E+00 -5.12876750E+00 -7.40559709E-01 -5.85401298E-01
 -3.71604258E+00  1.47475699E+00  1.54198435E+00
Num ILSW                                   I              100
ILSW                                       I   N=         100
           0           1           0           0           2           0
           0           0           0           0        4639          -1
           0           0           0           0           2           0
           0           0           0           0           1           0
           1           0           0           0           0           0
           0           0      100000           0          -1           0
           0           0           0           0           0           0
           0           0           0           1           0           0
           0           0           1           0           0           0
           0           0         121          41           0           0
           0           0          58           0           0           0
           0           0           0          11           0           0
           0           0           0           0           0           0
           0           0           0           0           0           0
           0           0           0           0           0           0
           0           0           0           0           0           0
           0           0           0           0
Num RLSW                                   I               41
RLSW                                       R   N=          41
  1.00000000E+00  1.00000000E+00  1.00000000E+00  1.00000000E+00  1.00000000E+00
  0.00000000E+00  2.00000000E-01  2.22036000E-01  0.00000000E+00  7.77964000E-01
  0.00000000E+00  2.00000000E-01  0.00000000E+00  0.00000000E+00  1.00000000E+00
  0.00000000E+00  0.00000000E+00  1.00000000E+00  0.00000000E+00  0.00000000E+00
  0.00000000E+00  0.00000000E+00  1.00000000E+00  0.00000000E+00  0.00000000E+00
  0.00000000E+00  0.00000000E+00  1.00000000E+00  0.00000000E+00  0.00000000E+00
  0.00000000E+00  0.00000000E+00  1.00000000E+00  0.00000000E+00  0.00000000E+00
  0.00000000E+00  0.00000000E+00  0.00000000E+00  1.00000000E+00  1.00000000E+00
  0.00000000E+00
MxBond                                     I                4
NBond                                      I   N=          11
           4           3           1           1           1           2
           1           4           1           1           1
IBond                                      I   N=          44
           2           3           4           5           1           6
           7           0           1           0           0           0
           1           0           0           0           1           0
           0           0           2           8           0           0
           2           0           0           0           6           9
          10          11           8           0           0           0
           8           0           0           0           8           0
           0           0
RBond                                      R   N=          44
  1.00000000E+00  1.00000000E+00  1.00000000E+00  1.00000000E+00  1.00000000E+00
  1.00000000E+00  2.00000000E+00  0.00000000E+00  1.00000000E+00  0.00000000E+00
  0.00000000E+00  0.00000000E+00  1.00000000E+00  0.00000000E+00  0.00000000E+00
  0.00000000E+00  1.00000000E+00  0.00000000E+00  0.00000000E+00  0.00000000E+00
  1.00000000E+00  1.00000000E+00  0.00000000E+00  0.00000000E+00  2.00000000E+00
  0.00000000E+00  0.00000000E+00  0.00000000E+00  1.00000000E+00  1.00000000E+00
  1.00000000E+00  1.00000000E+00  1.00000000E+00  0.00000000E+00  0.00000000E+00
  0.00000000E+00  1.00000000E+00  0.00000000E+00  0.00000000E+00  0.00000000E+00
  1.00000000E+00  0.00000000E+00  0.00000000E+00  0.00000000E+00
Virial Ratio                               R      2.005741257916858E+00
SCF Energy                                 R     -2.682007901306581E+02
Total Energy                               R     -2.682007901306581E+02
RMS Force                                  R      1.705813974306124E-03
RMS Density                                R      3.116617379841244E-09
External E-field                           R   N=          35
  0.00000000E+00  0.00000000E+00  0.00000000E+00  0.00000000E+00  0.00000000E+00
  0.00000000E+00  0.00000000E+00  0.00000000E+00  0.00000000E+00  0.00000000E+00
  0.00000000E+00  0.00000000E+00  0.00000000E+00  0.00000000E+00  0.00000000E+00
  0.00000000E+00  0.00000000E+00  0.00000000E+00  0.00000000E+00  0.00000000E+00
  0.00000000E+00  0.00000000E+00  0.00000000E+00  0.00000000E+00  0.00000000E+00
  0.00000000E+00  0.00000000E+00  0.00000000E+00  0.00000000E+00  0.00000000E+00
  0.00000000E+00  0.00000000E+00  0.00000000E+00  0.00000000E+00  0.00000000E+00
IOpCl                                      I                0
IROHF                                      I                0
Alpha Orbital Energies                     R   N=          77
 -1.93039801E+01 -1.92880112E+01 -1.04556295E+01 -1.03645838E+01 -1.03159389E+01
 -1.21563389E+00 -1.13652647E+00 -8.75979438E-01 -8.21127718E-01 -6.65071139E-01
 -5.97111048E-01 -5.83340078E-01 -5.72462362E-01 -5.30552804E-01 -5.26033884E-01
 -5.07338815E-01 -4.71075030E-01 -4.30079539E-01 -3.79375650E-01 -3.67165848E-01
  3.93193652E-02  6.69299508E-02  7.99223567E-02  9.92841134E-02  1.03813187E-01
  1.09756988E-01  1.24488423E-01  1.30981922E-01  1.47189914E-01  1.50648066E-01
  1.65079861E-01  1.72858058E-01  1.97270510E-01  2.28578402E-01  2.41954456E-01
  2.61023396E-01  2.74779272E-01  2.85433623E-01  2.97187830E-01  3.24007491E-01
  3.32252146E-01  3.48295852E-01  3.60573162E-01  3.77654900E-01  3.85317808E-01
  4.02120563E-01  4.10415317E-01  4.25807040E-01  4.34356545E-01  4.58665915E-01
  5.62750582E-01  7.13553086E-01  7.28202246E-01  7.49624170E-01  7.57539926E-01
  7.78827064E-01  8.20292024E-01  8.85682606E-01  9.05633578E-01  9.35764382E-01
  1.06163493E+00  1.10081807E+00  1.11010605E+00  1.15215424E+00  1.16242917E+00
  1.19575039E+00  1.24207256E+00  1.28327289E+00  1.34351410E+00  1.38696838E+00
  1.40798190E+00  1.44585041E+00  1.47213359E+00  1.54527370E+00  1.60458447E+00
  1.92296322E+00  2.01760570E+00
Alpha MO coefficients                      R   N=        5929
 -4.65110498E-05 -6.11860931E-04  1.41496790E-04 -6.32756558E-05  3.90815396E-05
  2.41575264E-03  5.69676967E-04  1.27117571E-03  2.49121190E-04  1.58841237E-02
 -3.23066852E-03  2.44484817E-03 -6.59550570E-04  7.90784498E-05  4.03044319E-04
 -4.08415141E-04 -1.09894899E-04 -6.70674276E-05  1.54927932E-03 -4.78376259E-03
 -7.46393398E-04 -1.65227002E-03 -2.00696471E-02 -6.33782073E-05  5.53816850E-03
 -6.10561115E-04  2.30439298E-05 -4.53543236E-04 -2.00069699E-04 -7.17436329E-04
  2.59855341E-05 -5.20501795E-04  9.95226302E-01  2.97320664E-02  3.84875709E-04
  3.62017948E-04  1.71485108E-03 -2.09257166E-02 -1.36749592E-03 -8.00085307E-04
 -2.99371970E-03  1.07002222E-02  3.60385962E-04 -5.70696801E-05  8.29630943E-04
 -1.23341798E-03 -2.66020734E-04 -5.70993282E-08  1.25949930E-04  4.53389051E-05
  7.10232177E-04  9.07419047E-04 -5.65343500E-04  7.66824007E-05  8.95715386E-04
  1.92405238E-04 -5.19086777E-04  4.03494514E-04 -2.65628122E-06  7.01430258E-05
  5.98388741E-04  5.47591991E-05 -3.35182905E-04  3.12684108E-03  8.29120920E-04
  1.53625306E-04 -6.34110270E-04 -1.73011462E-04 -7.01632321E-04  1.91276958E-06
  9.91137640E-04 -2.76090250E-04 -6.78475724E-04 -2.17096167E-04 -8.38877651E-04
 -2.59086303E-04 -9.55286599E-04 -7.53937569E-06 -2.40883849E-04  5.17542220E-05
 -1.14746997E-04  3.09634281E-06  2.28739612E-03 -2.18876407E-03 -3.96624880E-04
 -9.55421356E-04  7.12349613E-03 -5.31799799E-04  1.97985148E-03  4.03573091E-04
  2.30283814E-04  2.09017023E-04  1.26285279E-04 -8.24854300E-05 -1.75537689E-05
  7.72427498E-03  1.18084592E-03  9.33025590E-03  1.60684996E-03 -1.26127348E-02
 -1.48020720E-03 -3.76793376E-04 -1.87182254E-03 -1.12647292E-04 -1.96328204E-04
  1.82632881E-04  4.61573453E-04 -1.48348040E-04 -2.35466540E-04  1.23303809E-03
 -1.84728978E-04 -1.58774538E-04  5.13322038E-05 -7.48305761E-05  6.75712731E-04
  4.09514089E-04 -1.36407485E-03  2.07521328E-04 -4.08549278E-05 -2.39602980E-04
 -6.28475904E-04 -2.91113224E-04  9.95234977E-01  2.98286867E-02 -6.36749396E-04
 -2.16258694E-03 -3.98690660E-04 -2.35579872E-02  1.81264765E-03  5.49526532E-03
  1.03633988E-03  7.54166375E-03 -3.26359926E-04 -5.82480714E-04  2.41023571E-04
  3.48786280E-05  3.48096844E-04  7.23990900E-05  4.94270963E-06  3.08102153E-05
 -7.09784918E-04 -5.35375127E-04  4.55760960E-04 -3.10244223E-04  1.30270953E-03
  5.84011462E-04  6.36070013E-04  3.18883472E-04  5.44941819E-05  9.15606108E-04
 -2.70142232E-05 -1.50650095E-04  1.43854524E-04 -5.35490821E-04  7.35836086E-04
 -8.06524317E-04  7.43973722E-05 -3.47511598E-04 -2.60488478E-05  6.17973565E-03
 -8.52261519E-04  2.71626286E-03  7.63198657E-05 -3.15854306E-03  9.33259835E-04
 -1.63160978E-03  2.92973925E-04  9.95556418E-01  3.67943369E-02 -6.83502173E-04
  1.03055130E-03 -1.25801166E-04 -3.43313956E-02  1.45109882E-04  1.73236354E-04
 -3.08099961E-05 -6.92020308E-03  3.38357279E-03  6.58582017E-04  4.00227332E-04
 -2.13897947E-04  1.55714120E-04 -1.57515067E-04 -1.34408657E-03 -1.83437479E-04
  2.06523850E-04  4.93990646E-05  4.81609913E-04 -1.66150552E-04 -3.65996165E-05
 -6.44220969E-05 -2.19383364E-04  9.83883581E-06 -1.47604272E-04 -2.89839840E-04
  7.79748781E-03  6.82616736E-03  4.41067789E-04  1.45644204E-03 -1.55008650E-04
 -9.91785082E-05  1.30954976E-04  5.18542022E-04  1.11441082E-04  1.09126620E-03
  1.59571947E-04 -1.05886471E-04  3.45302864E-05  9.13345700E-03 -9.75139293E-04
 -4.85476897E-03 -6.14180587E-04 -1.92667544E-04 -8.02409616E-04 -8.75677347E-05
 -5.98735222E-05 -5.30385406E-05  2.45886896E-03  1.12943884E-03  6.87943993E-04
  5.48751240E-04  6.41981638E-03  1.80341652E-03  2.90435491E-04 -1.10050298E-03
 -1.96876675E-04 -8.77979604E-04 -4.30700272E-05  1.25093639E-03 -1.33470119E-04
 -1.85985086E-03  1.65605015E-04  4.89030669E-04 -8.99897583E-05 -4.15487616E-05
 -1.23196403E-06 -1.66817938E-03  1.38854708E-03 -2.57720700E-04  2.52753049E-04
 -6.58507137E-03  1.11376763E-03 -1.28729686E-03  1.00061523E-03 -4.91459244E-07
 -8.01127126E-04  6.51878327E-05  5.88382756E-05  7.66793693E-05  4.04551497E-03
 -4.61934587E-04  5.23900051E-04 -4.50849710E-04  1.81420147E-02 -2.74730447E-03
 -2.32706240E-03 -1.54782140E-03  3.22615892E-04 -7.37832562E-04 -6.58817839E-05
 -2.05061162E-04  1.15162618E-04  2.83415764E-04  6.17759971E-05  5.70277555E-04
  1.11363202E-04  1.74975978E-05 -1.14857300E-04 -1.43553007E-04 -1.34659190E-03
 -2.49313482E-04  5.99481731E-04  1.48697551E-02 -6.55094801E-03 -1.25154875E-04
  6.87445767E-03  1.46891404E-05  2.21197290E-04 -5.47761615E-05 -7.12190019E-05
  1.48579634E-05 -1.02304526E-03  6.68029079E-04  9.01275999E-04  3.41949836E-06
 -4.53861155E-03  1.26333100E-03  9.48858209E-04  8.28422304E-04  9.95578035E-01
  3.73986084E-02  1.01776627E-03  2.55628728E-05 -6.15592599E-04 -3.72068985E-02
 -3.66140291E-03 -2.56549020E-04  2.28475922E-03 -1.45463462E-02 -4.55584562E-03
 -4.93813985E-04  2.13786192E-03 -4.05970249E-04  5.33203463E-03 -4.58003168E-04
  5.17795777E-03 -4.75832446E-04  5.65504541E-03  9.95489332E-01  3.77236025E-02
 -4.41214561E-04  8.54868024E-05 -9.09114652E-05 -3.95967285E-02  3.22858505E-03
 -2.73621655E-03  9.99700036E-04 -1.45397107E-02  2.00863984E-03 -2.52530418E-03
  6.00520120E-04 -7.16486649E-04 -7.97194279E-04 -4.03373362E-04  5.87506916E-04
 -9.85582054E-05  6.22451706E-03  6.18016054E-03 -6.34439615E-03  1.35452551E-03
  1.24003179E-02  2.08792087E-03 -2.03222788E-03  7.94864981E-04 -4.52285902E-04
  7.59228045E-03 -5.50880043E-04  6.82758836E-03 -4.89940198E-04  7.98059922E-03
 -1.68254291E-05 -4.33069815E-04 -1.72435358E-04 -7.34438714E-07 -1.45715523E-04
  9.41130810E-04  5.86487683E-04  6.35427378E-04  9.50345308E-04  7.07684215E-03
  4.70781295E-04 -3.50284728E-04  2.51918649E-03 -6.19377316E-06 -2.23694103E-04
  2.55828427E-05  8.79294329E-05  2.22513053E-05  7.27480791E-04 -8.90257603E-04
 -2.59232038E-05 -3.22890128E-04  4.68961579E-04 -2.42900100E-04 -8.75544142E-04
 -2.39578541E-04 -4.32700239E-05  5.18174493E-04  4.21772020E-05 -3.15032578E-05
 -1.69233460E-06 -2.62711337E-03 -1.60755629E-03  8.83586693E-05  3.51110641E-04
 -1.25767979E-03 -7.21765350E-04 -1.52811230E-04 -7.26515516E-05  2.36774302E-04
 -6.06064249E-04  5.79849180E-05 -6.34667544E-04  1.19492380E-04 -4.25505928E-04
 -1.81589878E-02  3.69828986E-02 -1.58750667E-02  2.15153890E-02 -3.46421415E-03
 -7.17433575E-03  9.29395660E-03 -6.12156689E-03  2.01276803E-03 -9.47070188E-02
  1.18386188E-02 -2.00911840E-02 -4.13750867E-04 -1.24907787E-01  2.55618611E-01
 -3.29393644E-02  1.13509053E-01  3.78436861E-03  5.13350423E-02  1.24573313E-02
 -5.78476251E-02  1.23311442E-03  1.19261974E-01  1.80370295E-02 -2.18391855E-02
  1.24989234E-02  5.95404398E-03  2.12786879E-03  5.67143701E-03 -3.60610060E-04
  5.64984178E-03 -4.35036581E-04 -1.24321113E-01  2.66197738E-01  4.03034662E-02
  2.55182861E-02  7.03808459E-02  2.87574848E-01  1.85485246E-02  1.82239260E-02
  4.64980616E-02 -4.52558124E-02 -1.25771519E-02  2.37791716E-03 -1.44588878E-02
 -1.38900282E-01  3.05069863E-01 -4.23071127E-02 -1.32845569E-01 -2.75974221E-02
  2.96827226E-01 -1.90756024E-02 -5.08506917E-02 -1.06759369E-02 -2.34199393E-03
 -8.75819598E-03 -2.16284306E-03 -5.33557429E-03 -3.41500073E-02  6.28393326E-02
  3.97011606E-02  3.58725546E-03 -2.68224310E-02  2.55547529E-02 -1.11246930E-03
 -1.87400789E-03  6.03488745E-03  1.61034342E-03  4.51392813E-03 -2.64224395E-03
 -3.72366083E-03  1.04764970E-02 -2.18299039E-03  9.49821968E-03  1.86208293E-03
  1.00033700E-02  5.09392952E-03  7.30410687E-04  1.12603674E-03 -8.43468077E-03
 -9.46848817E-03 -3.47018812E-03 -4.91841554E-03 -1.44575981E-02 -1.02092504E-02
 -6.18763361E-03 -1.21905379E-01  2.48763995E-02 -1.83358477E-02  7.18492510E-03
  2.55709943E-02 -5.69624135E-02 -1.29968221E-01 -1.67580487E-01 -6.01116623E-02
  6.60247621E-03  4.38924405E-02  5.46024193E-02  2.14597324E-02  9.96147364E-02
  2.36043981E-02 -4.34347533E-02  5.52818996E-03  1.36093415E-03  5.35800411E-03
 -1.86563052E-03  7.08717897E-03  1.09633491E-03  3.78874422E-03 -1.58332660E-01
  3.40991396E-01  5.52408191E-03  4.20104918E-03  8.41441663E-02  3.96306091E-01
  1.16297787E-02  2.15138452E-03  6.01352175E-02 -7.81577410E-03  1.95506077E-02
  1.91380558E-04 -6.20115217E-03  1.36002462E-01 -2.99614267E-01  1.93786392E-02
  1.15706828E-01  1.89157899E-02 -3.09872693E-01  7.62242663E-03  5.09798706E-02
  7.75727702E-03 -2.84739194E-02 -2.79066798E-03  1.97287878E-02  2.74880517E-04
 -5.52575800E-02  1.06083330E-01  5.89707476E-02  2.83611346E-03 -4.39449615E-02
  4.91946549E-02 -4.70110501E-03  3.28401932E-04  6.13350624E-03  3.29891051E-02
  1.59502220E-02  5.61789778E-03 -8.97989114E-03  1.84379283E-02  2.00080842E-04
  1.80598412E-02  4.03112868E-03  1.83400306E-02 -4.48431666E-03 -1.63605672E-01
  3.06974089E-01 -4.03569346E-02  3.41285157E-02 -1.21013236E-02  3.16449143E-01
 -1.21826541E-02  4.72684688E-03 -4.25039529E-03  6.65060529E-02 -7.07765315E-03
  1.72322812E-02 -6.92793300E-04 -7.98770623E-02  1.68424660E-01  4.22387822E-02
 -1.80091185E-01 -1.06858795E-02  1.32009692E-01  4.14684821E-03 -1.43462368E-02
  9.04329259E-04 -3.80459297E-03 -2.93259641E-02 -6.14110424E-03 -7.61955337E-03
  9.91415193E-02  4.64134575E-03  9.08713735E-02  2.94724580E-03  9.85138368E-02
  3.46978835E-03  1.38382978E-02 -3.09511842E-02  1.37657257E-01 -1.24672181E-02
 -2.27297929E-02 -3.98274057E-02  5.79897153E-02 -6.70656664E-03 -1.32365320E-02
  6.62326406E-04 -2.39616560E-02  1.45776300E-03  5.98826077E-03  4.79790933E-02
 -1.10140254E-01  2.29792152E-02 -4.52951940E-03  5.04098857E-03 -1.23172613E-01
  9.12046265E-03 -3.50266102E-04  8.60735220E-04 -1.95859017E-02  5.43091147E-03
  1.36802738E-02  1.62448417E-03  7.71082837E-02 -1.50124684E-01 -1.37988249E-02
 -4.18746779E-03  2.54010736E-02 -1.47012900E-01  4.91381168E-04 -3.38671185E-03
 -1.29467410E-03 -5.21056561E-02 -1.64962483E-02 -1.42644140E-04  9.08766470E-03
 -4.15947127E-02  2.57993193E-05 -4.92969970E-02 -7.59978909E-03 -4.46917871E-02
 -6.35250575E-04 -9.04810390E-02  1.69556241E-01  1.24800455E-02 -3.85575408E-04
  1.23925658E-02  1.90843646E-01  6.76678771E-03  5.47442369E-03  5.11398834E-03
  9.88168760E-02 -1.38998465E-02  1.81516465E-02 -6.15012431E-03  1.98521396E-02
 -4.79008074E-02  1.51286694E-01 -2.33161916E-02  8.23066683E-02 -4.01298896E-02
  7.69233959E-04 -1.43252286E-02  9.16986227E-03 -1.47638508E-01  5.39969795E-04
  2.49632365E-02  1.06946885E-03  6.38717509E-02  1.32677875E-02  6.65807843E-02
  5.68519247E-03  5.76363120E-02  4.25479765E-03  4.79274072E-02 -1.08506606E-01
 -1.95603604E-01 -4.80198799E-02  3.98037279E-02 -1.56546674E-01 -8.86074493E-02
 -2.15648055E-02  8.14609718E-03 -3.51543858E-02  2.97080426E-02  3.38097562E-03
 -1.18420354E-02 -8.59550996E-03  1.79702724E-02  3.59206049E-02 -7.97099376E-03
  2.25934107E-02  3.09455862E-02  1.27040632E-02 -8.30337327E-03  8.12179956E-03
  2.23576834E-02  2.82866073E-03 -6.37084370E-03 -6.23342539E-04 -1.60721476E-01
  3.13214900E-01 -2.86184023E-02 -1.06890638E-02  8.88235843E-03  3.43221991E-01
 -6.11639541E-04 -2.83603042E-03  9.00898016E-03  7.06055943E-02  1.98072004E-02