 Entering Gaussian System, Link 0=/opt/cluster/programs/g09_d.01/g09//g09
 Input=/home/unibas/boittier/RDKit_G2/B.pdb/SCAN_1_2_3_4_S_17_20.0/12_SCAN_1_2_3_4_F/12_SCAN_B.pdb.com
 Output=/scratch/boittier/12_SCAN_B.pdb/12_SCAN_B.pdb.out
 Initial command:
 /opt/cluster/programs/g09_d.01/g09/l1.exe "/scratch/boittier/12_SCAN_B.pdb/Gau-187343.inp" -scrdir="/scratch/boittier/12_SCAN_B.pdb/"
 Entering Link 1 = /opt/cluster/programs/g09_d.01/g09/l1.exe PID=    187345.
  
 Copyright (c) 1988,1990,1992,1993,1995,1998,2003,2009,2013,
            Gaussian, Inc.  All Rights Reserved.
  
 This is part of the Gaussian(R) 09 program.  It is based on
 the Gaussian(R) 03 system (copyright 2003, Gaussian, Inc.),
 the Gaussian(R) 98 system (copyright 1998, Gaussian, Inc.),
 the Gaussian(R) 94 system (copyright 1995, Gaussian, Inc.),
 the Gaussian 92(TM) system (copyright 1992, Gaussian, Inc.),
 the Gaussian 90(TM) system (copyright 1990, Gaussian, Inc.),
 the Gaussian 88(TM) system (copyright 1988, Gaussian, Inc.),
 the Gaussian 86(TM) system (copyright 1986, Carnegie Mellon
 University), and the Gaussian 82(TM) system (copyright 1983,
 Carnegie Mellon University). Gaussian is a federally registered
 trademark of Gaussian, Inc.
  
 This software contains proprietary and confidential information,
 including trade secrets, belonging to Gaussian, Inc.
  
 This software is provided under written license and may be
 used, copied, transmitted, or stored only in accord with that
 written license.
  
 The following legend is applicable only to US Government
 contracts under FAR:
  
                    RESTRICTED RIGHTS LEGEND
  
 Use, reproduction and disclosure by the US Government is
 subject to restrictions as set forth in subparagraphs (a)
 and (c) of the Commercial Computer Software - Restricted
 Rights clause in FAR 52.227-19.
  
 Gaussian, Inc.
 340 Quinnipiac St., Bldg. 40, Wallingford CT 06492
  
  
 ---------------------------------------------------------------
 Warning -- This program may not be used in any manner that
 competes with the business of Gaussian, Inc. or will provide
 assistance to any competitor of Gaussian, Inc.  The licensee
 of this program is prohibited from giving any competitor of
 Gaussian, Inc. access to this program.  By using this program,
 the user acknowledges that Gaussian, Inc. is engaged in the
 business of creating and licensing software in the field of
 computational chemistry and represents and warrants to the
 licensee that it is not a competitor of Gaussian, Inc. and that
 it will not use this program in any manner prohibited above.
 ---------------------------------------------------------------
  

 Cite this work as:
 Gaussian 09, Revision D.01,
 M. J. Frisch, G. W. Trucks, H. B. Schlegel, G. E. Scuseria, 
 M. A. Robb, J. R. Cheeseman, G. Scalmani, V. Barone, B. Mennucci, 
 G. A. Petersson, H. Nakatsuji, M. Caricato, X. Li, H. P. Hratchian, 
 A. F. Izmaylov, J. Bloino, G. Zheng, J. L. Sonnenberg, M. Hada, 
 M. Ehara, K. Toyota, R. Fukuda, J. Hasegawa, M. Ishida, T. Nakajima, 
 Y. Honda, O. Kitao, H. Nakai, T. Vreven, J. A. Montgomery, Jr., 
 J. E. Peralta, F. Ogliaro, M. Bearpark, J. J. Heyd, E. Brothers, 
 K. N. Kudin, V. N. Staroverov, T. Keith, R. Kobayashi, J. Normand, 
 K. Raghavachari, A. Rendell, J. C. Burant, S. S. Iyengar, J. Tomasi, 
 M. Cossi, N. Rega, J. M. Millam, M. Klene, J. E. Knox, J. B. Cross, 
 V. Bakken, C. Adamo, J. Jaramillo, R. Gomperts, R. E. Stratmann, 
 O. Yazyev, A. J. Austin, R. Cammi, C. Pomelli, J. W. Ochterski, 
 R. L. Martin, K. Morokuma, V. G. Zakrzewski, G. A. Voth, 
 P. Salvador, J. J. Dannenberg, S. Dapprich, A. D. Daniels, 
 O. Farkas, J. B. Foresman, J. V. Ortiz, J. Cioslowski, 
 and D. J. Fox, Gaussian, Inc., Wallingford CT, 2013.
 
 ******************************************
 Gaussian 09:  ES64L-G09RevD.01 24-Apr-2013
                12-May-2021 
 ******************************************
 %chk=/home/unibas/boittier/RDKit_G2/B.pdb/SCAN_1_2_3_4_S_17_20.0/12_SCAN_1_2_3_4
 _F/B.pdb.chk
 %nproc=8
 Will use up to    8 processors via shared memory.
 %mem=16GB
 -----------------------------
 #p wB97XD/6-31+G Opt=ModRedun
 -----------------------------
 1/14=-1,18=120,19=15,26=3,38=1/1,3;
 2/9=110,12=2,17=6,18=5,40=1/2;
 3/5=1,6=6,7=10,11=2,16=1,25=1,30=1,71=1,74=-58/1,2,3;
 4//1;
 5/5=2,38=5/2;
 6/7=2,8=2,9=2,10=2,28=1/1;
 7//1,2,3,16;
 1/14=-1,18=20,19=15,26=3/3(2);
 2/9=110/2;
 99//99;
 2/9=110/2;
 3/5=1,6=6,7=10,11=2,16=1,25=1,30=1,71=1,74=-58/1,2,3;
 4/5=5,16=3,69=1/1;
 5/5=2,38=5/2;
 7//1,2,3,16;
 1/14=-1,18=20,19=15,26=3/3(-5);
 2/9=110/2;
 6/7=2,8=2,9=2,10=2,19=2,28=1/1;
 99/9=1/99;
 Leave Link    1 at Wed May 12 11:56:05 2021, MaxMem=  2147483648 cpu:         0.2
 (Enter /opt/cluster/programs/g09_d.01/g09/l101.exe)
 -----
 B.pdb
 -----
 Symbolic Z-matrix:
 Charge =  0 Multiplicity = 1
 C                    -1.05138  -1.25938   0.08257 
 C                    -0.46662  -0.06166   0.05924 
 C                     0.9067    0.34119   0.37956 
 C                     1.99296  -0.12478  -0.25771 
 H                    -2.10241  -1.37746  -0.15167 
 H                    -0.47503  -2.14129   0.33407 
 F                    -1.29124   1.07523  -0.20622 
 H                     1.00154   1.11495   1.13988 
 H                     1.91657  -0.85183  -1.0615 
 H                     2.99054   0.20631   0.01323 
 
 The following ModRedundant input section has been read:
 D       1       2       3       4 F                                           
 
 NAtoms=     10 NQM=       10 NQMF=       0 NMMI=      0 NMMIF=      0
                NMic=       0 NMicF=      0.
                    Isotopes and Nuclear Properties:
 (Nuclear quadrupole moments (NQMom) in fm**2, nuclear magnetic moments (NMagM)
  in nuclear magnetons)

  Atom         1           2           3           4           5           6           7           8           9          10
 IAtWgt=          12          12          12          12           1           1          19           1           1           1
 AtmWgt=  12.0000000  12.0000000  12.0000000  12.0000000   1.0078250   1.0078250  18.9984033   1.0078250   1.0078250   1.0078250
 NucSpn=           0           0           0           0           1           1           1           1           1           1
 AtZEff=   0.0000000   0.0000000   0.0000000   0.0000000   0.0000000   0.0000000   0.0000000   0.0000000   0.0000000   0.0000000
 NQMom=    0.0000000   0.0000000   0.0000000   0.0000000   0.0000000   0.0000000   0.0000000   0.0000000   0.0000000   0.0000000
 NMagM=    0.0000000   0.0000000   0.0000000   0.0000000   2.7928460   2.7928460   2.6288670   2.7928460   2.7928460   2.7928460
 AtZNuc=   6.0000000   6.0000000   6.0000000   6.0000000   1.0000000   1.0000000   9.0000000   1.0000000   1.0000000   1.0000000
 Leave Link  101 at Wed May 12 11:56:05 2021, MaxMem=  2147483648 cpu:         4.2
 (Enter /opt/cluster/programs/g09_d.01/g09/l103.exe)

 GradGradGradGradGradGradGradGradGradGradGradGradGradGradGradGradGradGrad
 Berny optimization.
 Initialization pass.
                           ----------------------------
                           !    Initial Parameters    !
                           ! (Angstroms and Degrees)  !
 --------------------------                            --------------------------
 ! Name  Definition              Value          Derivative Info.                !
 --------------------------------------------------------------------------------
 ! R1    R(1,2)                  1.333          estimate D2E/DX2                !
 ! R2    R(1,5)                  1.0833         estimate D2E/DX2                !
 ! R3    R(1,6)                  1.0832         estimate D2E/DX2                !
 ! R4    R(2,3)                  1.4666         estimate D2E/DX2                !
 ! R5    R(2,7)                  1.4293         estimate D2E/DX2                !
 ! R6    R(3,4)                  1.3428         estimate D2E/DX2                !
 ! R7    R(3,8)                  1.0889         estimate D2E/DX2                !
 ! R8    R(4,9)                  1.0865         estimate D2E/DX2                !
 ! R9    R(4,10)                 1.0854         estimate D2E/DX2                !
 ! A1    A(2,1,5)              121.3167         estimate D2E/DX2                !
 ! A2    A(2,1,6)              120.1458         estimate D2E/DX2                !
 ! A3    A(5,1,6)              118.5368         estimate D2E/DX2                !
 ! A4    A(1,2,3)              130.8245         estimate D2E/DX2                !
 ! A5    A(1,2,7)              117.6987         estimate D2E/DX2                !
 ! A6    A(3,2,7)              111.2424         estimate D2E/DX2                !
 ! A7    A(2,3,4)              123.9527         estimate D2E/DX2                !
 ! A8    A(2,3,8)              115.4192         estimate D2E/DX2                !
 ! A9    A(4,3,8)              120.496          estimate D2E/DX2                !
 ! A10   A(3,4,9)              121.7633         estimate D2E/DX2                !
 ! A11   A(3,4,10)             121.2744         estimate D2E/DX2                !
 ! A12   A(9,4,10)             116.9614         estimate D2E/DX2                !
 ! D1    D(5,1,2,3)            177.6097         estimate D2E/DX2                !
 ! D2    D(5,1,2,7)              3.7241         estimate D2E/DX2                !
 ! D3    D(6,1,2,3)             -2.7123         estimate D2E/DX2                !
 ! D4    D(6,1,2,7)           -176.5978         estimate D2E/DX2                !
 ! D5    D(1,2,3,4)             60.0111         Frozen                          !
 ! D6    D(1,2,3,8)           -124.163          estimate D2E/DX2                !
 ! D7    D(7,2,3,4)           -125.7963         estimate D2E/DX2                !
 ! D8    D(7,2,3,8)             50.0297         estimate D2E/DX2                !
 ! D9    D(2,3,4,9)             -0.5681         estimate D2E/DX2                !
 ! D10   D(2,3,4,10)           179.78           estimate D2E/DX2                !
 ! D11   D(8,3,4,9)           -176.1926         estimate D2E/DX2                !
 ! D12   D(8,3,4,10)             4.1556         estimate D2E/DX2                !
 --------------------------------------------------------------------------------
 Trust Radius=3.00D-01 FncErr=1.00D-07 GrdErr=1.00D-06
 Number of steps in this run=     43 maximum allowed number of steps=    100.
 GradGradGradGradGradGradGradGradGradGradGradGradGradGradGradGradGradGrad

 Leave Link  103 at Wed May 12 11:56:05 2021, MaxMem=  2147483648 cpu:         0.1
 (Enter /opt/cluster/programs/g09_d.01/g09/l202.exe)
                          Input orientation:                          
 ---------------------------------------------------------------------
 Center     Atomic      Atomic             Coordinates (Angstroms)
 Number     Number       Type             X           Y           Z
 ---------------------------------------------------------------------
      1          6           0       -1.051384   -1.259376    0.082569
      2          6           0       -0.466619   -0.061660    0.059235
      3          6           0        0.906702    0.341194    0.379563
      4          6           0        1.992961   -0.124781   -0.257710
      5          1           0       -2.102409   -1.377462   -0.151674
      6          1           0       -0.475030   -2.141295    0.334067
      7          9           0       -1.291241    1.075230   -0.206217
      8          1           0        1.001539    1.114945    1.139880
      9          1           0        1.916570   -0.851830   -1.061496
     10          1           0        2.990537    0.206311    0.013232
 ---------------------------------------------------------------------
                    Distance matrix (angstroms):
                    1          2          3          4          5
     1  C    0.000000
     2  C    1.333048   0.000000
     3  C    2.546396   1.466599   0.000000
     4  C    3.266670   2.480720   1.342836   0.000000
     5  H    1.083267   2.109888   3.505815   4.283983   0.000000
     6  H    1.083151   2.097733   2.841479   3.241529   1.862189
     7  F    2.364596   1.429330   2.390167   3.496950   2.583925
     8  H    3.312069   2.169719   1.088929   2.114969   4.185056
     9  H    3.206825   2.749545   2.125980   1.086512   4.154065
    10  H    4.300020   3.467831   2.120085   1.085444   5.336069
                    6          7          8          9         10
     6  H    0.000000
     7  F    3.362163   0.000000
     8  H    3.665063   2.659021   0.000000
     9  H    3.054516   3.838634   3.090557   0.000000
    10  H    4.198136   4.374563   2.459891   1.851515   0.000000
 Stoichiometry    C4H5F
 Framework group  C1[X(C4H5F)]
 Deg. of freedom    24
 Full point group                 C1      NOp   1
 Largest Abelian subgroup         C1      NOp   1
 Largest concise Abelian subgroup C1      NOp   1
                         Standard orientation:                         
 ---------------------------------------------------------------------
 Center     Atomic      Atomic             Coordinates (Angstroms)
 Number     Number       Type             X           Y           Z
 ---------------------------------------------------------------------
      1          6           0        1.051384    1.259376    0.082569
      2          6           0        0.466619    0.061660    0.059235
      3          6           0       -0.906702   -0.341194    0.379563
      4          6           0       -1.992961    0.124782   -0.257710
      5          1           0        2.102409    1.377461   -0.151674
      6          1           0        0.475031    2.141295    0.334067
      7          9           0        1.291241   -1.075230   -0.206217
      8          1           0       -1.001539   -1.114945    1.139880
      9          1           0       -1.916570    0.851831   -1.061496
     10          1           0       -2.990537   -0.206310    0.013232
 ---------------------------------------------------------------------
 Rotational constants (GHZ):      8.9258172      3.9019197      2.9006259
 Leave Link  202 at Wed May 12 11:56:05 2021, MaxMem=  2147483648 cpu:         0.0
 (Enter /opt/cluster/programs/g09_d.01/g09/l301.exe)
 Standard basis: 6-31+G (6D, 7F)
 Ernie: Thresh=  0.10000D-02 Tol=  0.10000D-05 Strict=F.
 There are    75 symmetry adapted cartesian basis functions of A   symmetry.
 There are    75 symmetry adapted basis functions of A   symmetry.
    75 basis functions,   150 primitive gaussians,    75 cartesian basis functions
    19 alpha electrons       19 beta electrons
       nuclear repulsion energy       155.8974153481 Hartrees.
 IExCor= 4639 DFT=T Ex+Corr=wB97XD ExCW=0 ScaHFX=  1.000000
 ScaDFX=  1.000000  1.000000  1.000000  1.000000 ScalE2=  1.000000  1.000000
 IRadAn=      0 IRanWt=     -1 IRanGd=            0 ICorTp=0 IEmpDi=121
  HFx wShort=  0.000000 wLong=  0.200000 cFull=  0.222036 cShort=  0.000000 cLong=  0.777964
  DFx wShort=  0.000000 wLong=  0.200000 cFull=  0.000000 cShort=  0.000000 cLong=  1.000000
 NAtoms=   10 NActive=   10 NUniq=   10 SFac= 1.00D+00 NAtFMM=   60 NAOKFM=F Big=F
 Integral buffers will be    131072 words long.
 Raffenetti 2 integral format.
 Two-electron integral symmetry is turned on.
 R6Disp:  Grimme-D2 Dispersion energy=       -0.0030524995 Hartrees.
 Nuclear repulsion after empirical dispersion term =      155.8943628486 Hartrees.
 Leave Link  301 at Wed May 12 11:56:05 2021, MaxMem=  2147483648 cpu:         0.3
 (Enter /opt/cluster/programs/g09_d.01/g09/l302.exe)
 NPDir=0 NMtPBC=     1 NCelOv=     1 NCel=       1 NClECP=     1 NCelD=      1
         NCelK=      1 NCelE2=     1 NClLst=     1 CellRange=     0.0.
 One-electron integrals computed using PRISM.
 NBasis=    75 RedAO= T EigKep=  6.45D-05  NBF=    75
 NBsUse=    75 1.00D-06 EigRej= -1.00D+00 NBFU=    75
 Precomputing XC quadrature grid using
 IXCGrd= 4 IRadAn=           0 IRanWt=          -1 IRanGd=           0 AccXCQ= 0.00D+00.
 Generated NRdTot=       0 NPtTot=           0 NUsed=           0 NTot=          32
 NSgBfM=    75    75    75    75    75 MxSgAt=    10 MxSgA2=    10.
 Leave Link  302 at Wed May 12 11:56:06 2021, MaxMem=  2147483648 cpu:         0.9
 (Enter /opt/cluster/programs/g09_d.01/g09/l303.exe)
 DipDrv:  MaxL=1.
 Leave Link  303 at Wed May 12 11:56:06 2021, MaxMem=  2147483648 cpu:         0.2
 (Enter /opt/cluster/programs/g09_d.01/g09/l401.exe)
 ExpMin= 4.38D-02 ExpMax= 7.00D+03 ExpMxC= 1.05D+03 IAcc=2 IRadAn=         4 AccDes= 0.00D+00
 Harris functional with IExCor= 4639 and IRadAn=       4 diagonalized for initial guess.
 HarFok:  IExCor= 4639 AccDes= 0.00D+00 IRadAn=         4 IDoV= 1 UseB2=F ITyADJ=14
 ICtDFT=  3500011 ScaDFX=  1.000000  1.000000  1.000000  1.000000
 FoFCou: FMM=F IPFlag=           0 FMFlag=      100000 FMFlg1=           0
         NFxFlg=           0 DoJE=T BraDBF=F KetDBF=T FulRan=T
         wScrn=  0.000000 ICntrl=     500 IOpCl=  0 I1Cent=   200000004 NGrid=           0
         NMat0=    1 NMatS0=      1 NMatT0=    0 NMatD0=    1 NMtDS0=    0 NMtDT0=    0
 Petite list used in FoFCou.
 Harris En= -244.785919179729    
 JPrj=0 DoOrth=F DoCkMO=F.
 Leave Link  401 at Wed May 12 11:56:06 2021, MaxMem=  2147483648 cpu:         1.4
 (Enter /opt/cluster/programs/g09_d.01/g09/l502.exe)
 Closed shell SCF:
 Using DIIS extrapolation, IDIIS=  1040.
 Integral symmetry usage will be decided dynamically.
 Keep R1 ints in memory in canonical form, NReq=9056162.
 IVT=       36600 IEndB=       36600 NGot=  2147483648 MDV=  2139321699
 LenX=  2139321699 LenY=  2139315633
 Requested convergence on RMS density matrix=1.00D-08 within 128 cycles.
 Requested convergence on MAX density matrix=1.00D-06.
 Requested convergence on             energy=1.00D-06.
 No special actions if energy rises.
 FoFCou: FMM=F IPFlag=           0 FMFlag=           0 FMFlg1=           0
         NFxFlg=           0 DoJE=F BraDBF=F KetDBF=F FulRan=T
         wScrn=  0.000000 ICntrl=     600 IOpCl=  0 I1Cent=           0 NGrid=           0
         NMat0=    1 NMatS0=   2850 NMatT0=    0 NMatD0=    1 NMtDS0=    0 NMtDT0=    0
 Symmetry not used in FoFCou.

 Cycle   1  Pass 1  IDiag  1:
 E= -254.924251101898    
 DIIS: error= 4.73D-02 at cycle   1 NSaved=   1.
 NSaved= 1 IEnMin= 1 EnMin= -254.924251101898     IErMin= 1 ErrMin= 4.73D-02
 ErrMax= 4.73D-02  0.00D+00 EMaxC= 1.00D-01 BMatC= 2.67D-01 BMatP= 2.67D-01
 IDIUse=3 WtCom= 5.27D-01 WtEn= 4.73D-01
 Coeff-Com:  0.100D+01
 Coeff-En:   0.100D+01
 Coeff:      0.100D+01
 Gap=     0.460 Goal=   None    Shift=    0.000
 GapD=    0.460 DampG=2.000 DampE=0.500 DampFc=1.0000 IDamp=-1.
 RMSDP=2.06D-02 MaxDP=4.66D-01              OVMax= 1.83D-01

 Cycle   2  Pass 1  IDiag  1:
 E= -254.870066926943     Delta-E=        0.054184174955 Rises=F Damp=F
 DIIS: error= 5.71D-02 at cycle   2 NSaved=   2.
 NSaved= 2 IEnMin= 1 EnMin= -254.924251101898     IErMin= 1 ErrMin= 4.73D-02
 ErrMax= 5.71D-02  0.00D+00 EMaxC= 1.00D-01 BMatC= 3.25D-01 BMatP= 2.67D-01
 IDIUse=2 WtCom= 0.00D+00 WtEn= 1.00D+00
 Coeff-En:   0.565D+00 0.435D+00
 Coeff:      0.565D+00 0.435D+00
 Gap=     0.420 Goal=   None    Shift=    0.000
 RMSDP=6.84D-03 MaxDP=9.39D-02 DE= 5.42D-02 OVMax= 1.07D-01

 Cycle   3  Pass 1  IDiag  1:
 E= -255.095316842600     Delta-E=       -0.225249915656 Rises=F Damp=F
 DIIS: error= 3.66D-03 at cycle   3 NSaved=   3.
 NSaved= 3 IEnMin= 3 EnMin= -255.095316842600     IErMin= 3 ErrMin= 3.66D-03
 ErrMax= 3.66D-03  0.00D+00 EMaxC= 1.00D-01 BMatC= 1.34D-03 BMatP= 2.67D-01
 IDIUse=3 WtCom= 9.63D-01 WtEn= 3.66D-02
 Coeff-Com: -0.413D-02-0.655D-01 0.107D+01
 Coeff-En:   0.000D+00 0.000D+00 0.100D+01
 Coeff:     -0.398D-02-0.631D-01 0.107D+01
 Gap=     0.368 Goal=   None    Shift=    0.000
 RMSDP=2.42D-03 MaxDP=6.05D-02 DE=-2.25D-01 OVMax= 9.26D-03

 Cycle   4  Pass 1  IDiag  1:
 E= -255.096307538729     Delta-E=       -0.000990696130 Rises=F Damp=F
 DIIS: error= 1.42D-03 at cycle   4 NSaved=   4.
 NSaved= 4 IEnMin= 4 EnMin= -255.096307538729     IErMin= 4 ErrMin= 1.42D-03
 ErrMax= 1.42D-03  0.00D+00 EMaxC= 1.00D-01 BMatC= 1.78D-04 BMatP= 1.34D-03
 IDIUse=3 WtCom= 9.86D-01 WtEn= 1.42D-02
 Coeff-Com: -0.803D-02-0.370D-01 0.491D+00 0.554D+00
 Coeff-En:   0.000D+00 0.000D+00 0.000D+00 0.100D+01
 Coeff:     -0.792D-02-0.365D-01 0.484D+00 0.560D+00
 Gap=     0.369 Goal=   None    Shift=    0.000
 RMSDP=4.85D-04 MaxDP=1.12D-02 DE=-9.91D-04 OVMax= 4.30D-03

 Cycle   5  Pass 1  IDiag  1:
 E= -255.096487750962     Delta-E=       -0.000180212233 Rises=F Damp=F
 DIIS: error= 3.71D-04 at cycle   5 NSaved=   5.
 NSaved= 5 IEnMin= 5 EnMin= -255.096487750962     IErMin= 5 ErrMin= 3.71D-04
 ErrMax= 3.71D-04  0.00D+00 EMaxC= 1.00D-01 BMatC= 9.96D-06 BMatP= 1.78D-04
 IDIUse=3 WtCom= 9.96D-01 WtEn= 3.71D-03
 Coeff-Com: -0.203D-02-0.398D-02-0.100D-01 0.106D+00 0.910D+00
 Coeff-En:   0.000D+00 0.000D+00 0.000D+00 0.000D+00 0.100D+01
 Coeff:     -0.203D-02-0.397D-02-0.999D-02 0.106D+00 0.910D+00
 Gap=     0.369 Goal=   None    Shift=    0.000
 RMSDP=2.94D-04 MaxDP=6.71D-03 DE=-1.80D-04 OVMax= 2.18D-03

 Cycle   6  Pass 1  IDiag  1:
 E= -255.096502367518     Delta-E=       -0.000014616556 Rises=F Damp=F
 DIIS: error= 1.65D-04 at cycle   6 NSaved=   6.
 NSaved= 6 IEnMin= 6 EnMin= -255.096502367518     IErMin= 6 ErrMin= 1.65D-04
 ErrMax= 1.65D-04  0.00D+00 EMaxC= 1.00D-01 BMatC= 2.68D-06 BMatP= 9.96D-06
 IDIUse=3 WtCom= 9.98D-01 WtEn= 1.65D-03
 Coeff-Com:  0.484D-03 0.412D-02-0.873D-01-0.599D-01 0.416D+00 0.727D+00
 Coeff-En:   0.000D+00 0.000D+00 0.000D+00 0.000D+00 0.000D+00 0.100D+01
 Coeff:      0.483D-03 0.412D-02-0.872D-01-0.598D-01 0.415D+00 0.727D+00
 Gap=     0.369 Goal=   None    Shift=    0.000
 RMSDP=1.14D-04 MaxDP=2.65D-03 DE=-1.46D-05 OVMax= 6.19D-04

 Cycle   7  Pass 1  IDiag  1:
 E= -255.096505964500     Delta-E=       -0.000003596982 Rises=F Damp=F
 DIIS: error= 1.76D-05 at cycle   7 NSaved=   7.
 NSaved= 7 IEnMin= 7 EnMin= -255.096505964500     IErMin= 7 ErrMin= 1.76D-05
 ErrMax= 1.76D-05  0.00D+00 EMaxC= 1.00D-01 BMatC= 2.72D-08 BMatP= 2.68D-06
 IDIUse=1 WtCom= 1.00D+00 WtEn= 0.00D+00
 Coeff-Com:  0.827D-04-0.257D-03 0.596D-02-0.318D-02-0.494D-01-0.590D-01
 Coeff-Com:  0.111D+01
 Coeff:      0.827D-04-0.257D-03 0.596D-02-0.318D-02-0.494D-01-0.590D-01
 Coeff:      0.111D+01
 Gap=     0.369 Goal=   None    Shift=    0.000
 RMSDP=1.84D-05 MaxDP=3.02D-04 DE=-3.60D-06 OVMax= 1.97D-04

 Cycle   8  Pass 1  IDiag  1:
 E= -255.096506044068     Delta-E=       -0.000000079568 Rises=F Damp=F
 DIIS: error= 5.72D-06 at cycle   8 NSaved=   8.
 NSaved= 8 IEnMin= 8 EnMin= -255.096506044068     IErMin= 8 ErrMin= 5.72D-06
 ErrMax= 5.72D-06  0.00D+00 EMaxC= 1.00D-01 BMatC= 4.50D-09 BMatP= 2.72D-08
 IDIUse=1 WtCom= 1.00D+00 WtEn= 0.00D+00
 Coeff-Com:  0.399D-05-0.267D-03 0.588D-02 0.157D-02-0.339D-01-0.572D-01
 Coeff-Com:  0.317D+00 0.767D+00
 Coeff:      0.399D-05-0.267D-03 0.588D-02 0.157D-02-0.339D-01-0.572D-01
 Coeff:      0.317D+00 0.767D+00
 Gap=     0.369 Goal=   None    Shift=    0.000
 RMSDP=4.54D-06 MaxDP=9.18D-05 DE=-7.96D-08 OVMax= 3.47D-05

 Cycle   9  Pass 1  IDiag  1:
 E= -255.096506050395     Delta-E=       -0.000000006327 Rises=F Damp=F
 DIIS: error= 1.78D-06 at cycle   9 NSaved=   9.
 NSaved= 9 IEnMin= 9 EnMin= -255.096506050395     IErMin= 9 ErrMin= 1.78D-06
 ErrMax= 1.78D-06  0.00D+00 EMaxC= 1.00D-01 BMatC= 3.31D-10 BMatP= 4.50D-09
 IDIUse=1 WtCom= 1.00D+00 WtEn= 0.00D+00
 Coeff-Com: -0.442D-05-0.436D-05 0.255D-03 0.387D-03 0.948D-03-0.464D-02
 Coeff-Com: -0.639D-01 0.135D+00 0.932D+00
 Coeff:     -0.442D-05-0.436D-05 0.255D-03 0.387D-03 0.948D-03-0.464D-02
 Coeff:     -0.639D-01 0.135D+00 0.932D+00
 Gap=     0.369 Goal=   None    Shift=    0.000
 RMSDP=2.32D-06 MaxDP=5.44D-05 DE=-6.33D-09 OVMax= 2.48D-05

 Cycle  10  Pass 1  IDiag  1:
 E= -255.096506051124     Delta-E=       -0.000000000730 Rises=F Damp=F
 DIIS: error= 9.56D-07 at cycle  10 NSaved=  10.
 NSaved=10 IEnMin=10 EnMin= -255.096506051124     IErMin=10 ErrMin= 9.56D-07
 ErrMax= 9.56D-07  0.00D+00 EMaxC= 1.00D-01 BMatC= 8.89D-11 BMatP= 3.31D-10
 IDIUse=1 WtCom= 1.00D+00 WtEn= 0.00D+00
 Coeff-Com: -0.486D-06 0.219D-04-0.347D-03 0.143D-04 0.276D-02 0.166D-02
 Coeff-Com: -0.530D-01-0.554D-02 0.425D+00 0.630D+00
 Coeff:     -0.486D-06 0.219D-04-0.347D-03 0.143D-04 0.276D-02 0.166D-02
 Coeff:     -0.530D-01-0.554D-02 0.425D+00 0.630D+00
 Gap=     0.369 Goal=   None    Shift=    0.000
 RMSDP=3.19D-07 MaxDP=4.52D-06 DE=-7.30D-10 OVMax= 3.03D-06

 Cycle  11  Pass 1  IDiag  1:
 E= -255.096506051233     Delta-E=       -0.000000000109 Rises=F Damp=F
 DIIS: error= 1.53D-07 at cycle  11 NSaved=  11.
 NSaved=11 IEnMin=11 EnMin= -255.096506051233     IErMin=11 ErrMin= 1.53D-07
 ErrMax= 1.53D-07  0.00D+00 EMaxC= 1.00D-01 BMatC= 1.56D-12 BMatP= 8.89D-11
 IDIUse=1 WtCom= 1.00D+00 WtEn= 0.00D+00
 Coeff-Com:  0.491D-06-0.145D-05-0.228D-04-0.232D-04-0.114D-03 0.580D-03
 Coeff-Com:  0.994D-02-0.157D-01-0.117D+00-0.101D+00 0.122D+01
 Coeff:      0.491D-06-0.145D-05-0.228D-04-0.232D-04-0.114D-03 0.580D-03
 Coeff:      0.994D-02-0.157D-01-0.117D+00-0.101D+00 0.122D+01
 Gap=     0.369 Goal=   None    Shift=    0.000
 RMSDP=1.47D-07 MaxDP=1.86D-06 DE=-1.09D-10 OVMax= 2.20D-06

 Cycle  12  Pass 1  IDiag  1:
 E= -255.096506051239     Delta-E=       -0.000000000006 Rises=F Damp=F
 DIIS: error= 1.81D-08 at cycle  12 NSaved=  12.
 NSaved=12 IEnMin=12 EnMin= -255.096506051239     IErMin=12 ErrMin= 1.81D-08
 ErrMax= 1.81D-08  0.00D+00 EMaxC= 1.00D-01 BMatC= 4.31D-14 BMatP= 1.56D-12
 IDIUse=1 WtCom= 1.00D+00 WtEn= 0.00D+00
 Coeff-Com: -0.376D-07 0.161D-07 0.103D-04 0.649D-05-0.421D-04-0.124D-03
 Coeff-Com: -0.104D-02 0.350D-02 0.180D-01 0.165D-02-0.287D+00 0.126D+01
 Coeff:     -0.376D-07 0.161D-07 0.103D-04 0.649D-05-0.421D-04-0.124D-03
 Coeff:     -0.104D-02 0.350D-02 0.180D-01 0.165D-02-0.287D+00 0.126D+01
 Gap=     0.369 Goal=   None    Shift=    0.000
 RMSDP=3.62D-08 MaxDP=4.84D-07 DE=-5.85D-12 OVMax= 3.67D-07

 Cycle  13  Pass 1  IDiag  1:
 E= -255.096506051240     Delta-E=       -0.000000000001 Rises=F Damp=F
 DIIS: error= 2.68D-09 at cycle  13 NSaved=  13.
 NSaved=13 IEnMin=13 EnMin= -255.096506051240     IErMin=13 ErrMin= 2.68D-09
 ErrMax= 2.68D-09  0.00D+00 EMaxC= 1.00D-01 BMatC= 1.00D-15 BMatP= 4.31D-14
 IDIUse=1 WtCom= 1.00D+00 WtEn= 0.00D+00
 Coeff-Com: -0.118D-07-0.117D-07-0.150D-06-0.365D-07 0.251D-05 0.542D-05
 Coeff-Com:  0.117D-04-0.277D-03-0.489D-03 0.590D-03 0.220D-01-0.205D+00
 Coeff-Com:  0.118D+01
 Coeff:     -0.118D-07-0.117D-07-0.150D-06-0.365D-07 0.251D-05 0.542D-05
 Coeff:      0.117D-04-0.277D-03-0.489D-03 0.590D-03 0.220D-01-0.205D+00
 Coeff:      0.118D+01
 Gap=     0.369 Goal=   None    Shift=    0.000
 RMSDP=4.04D-09 MaxDP=5.59D-08 DE=-6.82D-13 OVMax= 5.30D-08

 SCF Done:  E(RwB97XD) =  -255.096506051     A.U. after   13 cycles
            NFock= 13  Conv=0.40D-08     -V/T= 2.0059
 KE= 2.536066118999D+02 PE=-9.094114098043D+02 EE= 2.448139290045D+02
 Leave Link  502 at Wed May 12 11:56:08 2021, MaxMem=  2147483648 cpu:        12.9
 (Enter /opt/cluster/programs/g09_d.01/g09/l601.exe)
 Copying SCF densities to generalized density rwf, IOpCl= 0 IROHF=0.

 **********************************************************************

            Population analysis using the SCF density.

 **********************************************************************

 Orbital symmetries:
       Occupied  (A) (A) (A) (A) (A) (A) (A) (A) (A) (A) (A) (A)
                 (A) (A) (A) (A) (A) (A) (A)
       Virtual   (A) (A) (A) (A) (A) (A) (A) (A) (A) (A) (A) (A)
                 (A) (A) (A) (A) (A) (A) (A) (A) (A) (A) (A) (A)
                 (A) (A) (A) (A) (A) (A) (A) (A) (A) (A) (A) (A)
                 (A) (A) (A) (A) (A) (A) (A) (A) (A) (A) (A) (A)
                 (A) (A) (A) (A) (A) (A) (A) (A)
 The electronic state is 1-A.
 Alpha  occ. eigenvalues --  -24.82725 -10.40355 -10.33283 -10.32254 -10.31192
 Alpha  occ. eigenvalues --   -1.30221  -0.93001  -0.85986  -0.74267  -0.65172
 Alpha  occ. eigenvalues --   -0.61001  -0.57495  -0.55948  -0.52478  -0.50586
 Alpha  occ. eigenvalues --   -0.48335  -0.45438  -0.39323  -0.34263
 Alpha virt. eigenvalues --    0.02634   0.06999   0.07809   0.08513   0.09681
 Alpha virt. eigenvalues --    0.11185   0.12008   0.13251   0.13926   0.14824
 Alpha virt. eigenvalues --    0.16458   0.17413   0.18354   0.18885   0.19742
 Alpha virt. eigenvalues --    0.20055   0.22610   0.23838   0.25624   0.27692
 Alpha virt. eigenvalues --    0.29047   0.31280   0.32093   0.38625   0.41619
 Alpha virt. eigenvalues --    0.42719   0.45417   0.46095   0.47726   0.50312
 Alpha virt. eigenvalues --    0.51866   0.70562   0.71301   0.75033   0.77251
 Alpha virt. eigenvalues --    0.80942   0.82490   0.84999   0.89255   0.93023
 Alpha virt. eigenvalues --    0.97153   0.99895   1.04878   1.06759   1.13517
 Alpha virt. eigenvalues --    1.13975   1.15646   1.22390   1.26001   1.32148
 Alpha virt. eigenvalues --    1.39065   1.43671   1.67387   1.81669   1.85821
 Alpha virt. eigenvalues --    2.35179
          Condensed to atoms (all electrons):
               1          2          3          4          5          6
     1  C    6.311638  -0.134657  -0.390333   0.060214   0.396533   0.317916
     2  C   -0.134657   5.500833   0.309038   0.021101  -0.057419   0.007523
     3  C   -0.390333   0.309038   5.659391   0.335166   0.010745   0.006204
     4  C    0.060214   0.021101   0.335166   5.234378   0.000284   0.008329
     5  H    0.396533  -0.057419   0.010745   0.000284   0.453837  -0.019870
     6  H    0.317916   0.007523   0.006204   0.008329  -0.019870   0.463571
     7  F   -0.155550   0.285918  -0.133680  -0.018591  -0.002534   0.003855
     8  H    0.019226  -0.033196   0.306472   0.019019  -0.000083   0.000132
     9  H    0.009907   0.001901  -0.056841   0.389197  -0.000018   0.000102
    10  H    0.001993   0.009130  -0.037148   0.375950   0.000001  -0.000016
               7          8          9         10
     1  C   -0.155550   0.019226   0.009907   0.001993
     2  C    0.285918  -0.033196   0.001901   0.009130
     3  C   -0.133680   0.306472  -0.056841  -0.037148
     4  C   -0.018591   0.019019   0.389197   0.375950
     5  H   -0.002534  -0.000083  -0.000018   0.000001
     6  H    0.003855   0.000132   0.000102  -0.000016
     7  F    9.305566  -0.000009   0.000373  -0.000257
     8  H   -0.000009   0.459221   0.002545  -0.003129
     9  H    0.000373   0.002545   0.469979  -0.023510
    10  H   -0.000257  -0.003129  -0.023510   0.477714
 Mulliken charges:
               1
     1  C   -0.436889
     2  C    0.089828
     3  C   -0.009014
     4  C   -0.425047
     5  H    0.218523
     6  H    0.212254
     7  F   -0.285092
     8  H    0.229801
     9  H    0.206364
    10  H    0.199271
 Sum of Mulliken charges =   0.00000
 Mulliken charges with hydrogens summed into heavy atoms:
               1
     1  C   -0.006111
     2  C    0.089828
     3  C    0.220787
     4  C   -0.019412
     7  F   -0.285092
 Electronic spatial extent (au):  <R**2>=            435.2000
 Charge=              0.0000 electrons
 Dipole moment (field-independent basis, Debye):
    X=             -1.7439    Y=              1.6889    Z=              0.4361  Tot=              2.4666
 Quadrupole moment (field-independent basis, Debye-Ang):
   XX=            -27.7540   YY=            -29.8737   ZZ=            -30.7328
   XY=              3.1442   XZ=              0.2372   YZ=             -1.9038
 Traceless Quadrupole moment (field-independent basis, Debye-Ang):
   XX=              1.6995   YY=             -0.4202   ZZ=             -1.2793
   XY=              3.1442   XZ=              0.2372   YZ=             -1.9038
 Octapole moment (field-independent basis, Debye-Ang**2):
  XXX=              1.4587  YYY=             -1.9215  ZZZ=             -1.7131  XYY=              2.2405
  XXY=              1.7204  XXZ=             -1.8380  XZZ=              1.6450  YZZ=             -4.2779
  YYZ=              1.5812  XYZ=              1.8539
 Hexadecapole moment (field-independent basis, Debye-Ang**3):
 XXXX=           -315.5167 YYYY=           -150.3197 ZZZZ=            -52.5464 XXXY=              3.9083
 XXXZ=             -2.6707 YYYX=             -5.2108 YYYZ=              0.8087 ZZZX=             -1.8129
 ZZZY=             -2.1660 XXYY=            -86.2997 XXZZ=            -69.7818 YYZZ=            -35.0656
 XXYZ=             -6.1121 YYXZ=             -0.9100 ZZXY=             -4.7347
 N-N= 1.558943628486D+02 E-N=-9.094114098722D+02  KE= 2.536066118999D+02
 No NMR shielding tensors so no spin-rotation constants.
 Leave Link  601 at Wed May 12 11:56:08 2021, MaxMem=  2147483648 cpu:         0.6
 (Enter /opt/cluster/programs/g09_d.01/g09/l701.exe)
 Compute integral first derivatives.
 ... and contract with generalized density number  0.
 R6Disp: Adding Grimme-D2 dispersion energy 1st derivatives to the gradient.
 Leave Link  701 at Wed May 12 11:56:08 2021, MaxMem=  2147483648 cpu:         0.6
 (Enter /opt/cluster/programs/g09_d.01/g09/l702.exe)
 L702 exits ... SP integral derivatives will be done elsewhere.
 Leave Link  702 at Wed May 12 11:56:08 2021, MaxMem=  2147483648 cpu:         0.2
 (Enter /opt/cluster/programs/g09_d.01/g09/l703.exe)
 Compute integral first derivatives, UseDBF=F ICtDFT=           0.
 Integral derivatives from FoFJK, PRISM(SPDF).
 Calling FoFJK, ICntrl=      2127 FMM=F ISym2X=0 I1Cent= 0 IOpClX= 0 NMat=1 NMatS=1 NMatT=0.
 FoFJK:  IHMeth= 1 ICntrl=    2127 DoSepK=T KAlg= 0 I1Cent=   0 FoldK=F
 IRaf=         1 NMat=   1 IRICut=       1 DoRegI=T DoRafI=F ISym2E= 0.
 FoFCou: FMM=F IPFlag=           0 FMFlag=      100000 FMFlg1=         800
         NFxFlg=           0 DoJE=F BraDBF=F KetDBF=F FulRan=T
         wScrn=  0.000000 ICntrl=    2527 IOpCl=  0 I1Cent=           0 NGrid=           0
         NMat0=    1 NMatS0=      1 NMatT0=    0 NMatD0=    1 NMtDS0=    0 NMtDT0=    0
 Symmetry not used in FoFCou.
 Leave Link  703 at Wed May 12 11:56:08 2021, MaxMem=  2147483648 cpu:         3.3
 (Enter /opt/cluster/programs/g09_d.01/g09/l716.exe)
 Dipole        =-6.86109272D-01 6.64483869D-01 1.71559703D-01
 ***** Axes restored to original set *****
 -------------------------------------------------------------------
 Center     Atomic                   Forces (Hartrees/Bohr)
 Number     Number              X              Y              Z
 -------------------------------------------------------------------
      1        6           0.003535654    0.003747535   -0.003794989
      2        6          -0.008104807   -0.000494429    0.005418047
      3        6           0.005365445    0.003104751   -0.007216350
      4        6          -0.004444391   -0.001334044    0.004354461
      5        1           0.000434205    0.000471344    0.000194174
      6        1           0.000279723    0.000615189   -0.000065707
      7        9           0.004209028   -0.005411898    0.001008902
      8        1          -0.000114791   -0.000943157   -0.000305788
      9        1          -0.000471074    0.000110775    0.000331328
     10        1          -0.000688993    0.000133934    0.000075923
 -------------------------------------------------------------------
 Cartesian Forces:  Max     0.008104807 RMS     0.003255773
 Leave Link  716 at Wed May 12 11:56:08 2021, MaxMem=  2147483648 cpu:         0.2
 (Enter /opt/cluster/programs/g09_d.01/g09/l103.exe)

 GradGradGradGradGradGradGradGradGradGradGradGradGradGradGradGradGradGrad
 Berny optimization.
 FormGI is forming the generalized inverse of G from B-inverse, IUseBI=4.
 Internal  Forces:  Max     0.006921531 RMS     0.002245867
 Search for a local minimum.
 Step number   1 out of a maximum of   43
 All quantities printed in internal units (Hartrees-Bohrs-Radians)
 RMS Force = .20863D-02 SwitMx=.10000D-02 MixMth= 1
 Mixed Optimization -- RFO/linear search
 Second derivative matrix not updated -- first step.
 ITU=  0
     Eigenvalues ---    0.01672   0.02120   0.02845   0.02845   0.02974
     Eigenvalues ---    0.02974   0.15973   0.16000   0.16000   0.16000
     Eigenvalues ---    0.16000   0.22007   0.24934   0.25000   0.34937
     Eigenvalues ---    0.35219   0.35344   0.35602   0.35616   0.36150
     Eigenvalues ---    0.41086   0.56574   0.587911000.000001000.00000
     Eigenvalues --- 1000.000001000.000001000.000001000.000001000.00000
     Eigenvalues --- 1000.000001000.000001000.00000
 RFO step:  Lambda=-3.13998286D-04 EMin= 1.67217784D-02
 Linear search not attempted -- first point.
 Iteration  1 RMS(Cart)=  0.01269210 RMS(Int)=  0.00004206
 Iteration  2 RMS(Cart)=  0.00004671 RMS(Int)=  0.00000413
 Iteration  3 RMS(Cart)=  0.00000000 RMS(Int)=  0.00000413
 Iteration  1 RMS(Cart)=  0.00000072 RMS(Int)=  0.00000053
 ITry= 1 IFail=0 DXMaxC= 3.93D-02 DCOld= 1.00D+10 DXMaxT= 3.00D-01 DXLimC= 3.00D+00 Rises=F
 Variable       Old X    -DE/DX   Delta X   Delta X   Delta X     New X
                                 (Linear)    (Quad)   (Total)
    R1        2.51910  -0.00627   0.00000  -0.01065  -0.01065   2.50844
    R2        2.04708  -0.00051   0.00000  -0.00144  -0.00144   2.04563
    R3        2.04686  -0.00037   0.00000  -0.00102  -0.00102   2.04583
    R4        2.77147  -0.00064   0.00000  -0.00176  -0.00176   2.76971
    R5        2.70104  -0.00692   0.00000  -0.01683  -0.01683   2.68421
    R6        2.53759  -0.00642   0.00000  -0.01135  -0.01135   2.52625
    R7        2.05778  -0.00089   0.00000  -0.00255  -0.00255   2.05523
    R8        2.05321  -0.00029   0.00000  -0.00082  -0.00082   2.05239
    R9        2.05119  -0.00057   0.00000  -0.00162  -0.00162   2.04958
    A1        2.11738  -0.00016   0.00000  -0.00097  -0.00097   2.11641
    A2        2.09694  -0.00050   0.00000  -0.00314  -0.00314   2.09380
    A3        2.06886   0.00066   0.00000   0.00412   0.00412   2.07298
    A4        2.28332  -0.00094   0.00000  -0.00375  -0.00376   2.27956
    A5        2.05423   0.00089   0.00000   0.00320   0.00320   2.05742
    A6        1.94155   0.00020   0.00000   0.00111   0.00111   1.94265
    A7        2.16338  -0.00192   0.00000  -0.00873  -0.00874   2.15464
    A8        2.01444   0.00087   0.00000   0.00415   0.00414   2.01858
    A9        2.10305   0.00117   0.00000   0.00514   0.00513   2.10818
   A10        2.12517  -0.00041   0.00000  -0.00253  -0.00253   2.12264
   A11        2.11664  -0.00021   0.00000  -0.00133  -0.00133   2.11530
   A12        2.04136   0.00062   0.00000   0.00387   0.00387   2.04523
    D1        3.09987   0.00086   0.00000  -0.00035  -0.00034   3.09953
    D2        0.06500  -0.00110   0.00000  -0.00781  -0.00782   0.05718
    D3       -0.04734   0.00093   0.00000   0.00198   0.00198  -0.04536
    D4       -3.08221  -0.00103   0.00000  -0.00549  -0.00549  -3.08770
    D5        1.04739  -0.00364   0.00000   0.00000   0.00000   1.04739
    D6       -2.16705  -0.00171   0.00000   0.00920   0.00919  -2.15786
    D7       -2.19556  -0.00174   0.00000   0.00722   0.00722  -2.18834
    D8        0.87318   0.00020   0.00000   0.01641   0.01641   0.88959
    D9       -0.00992   0.00092   0.00000   0.00179   0.00179  -0.00812
   D10        3.13775   0.00092   0.00000   0.00185   0.00185   3.13960
   D11       -3.07514  -0.00109   0.00000  -0.00777  -0.00777  -3.08291
   D12        0.07253  -0.00109   0.00000  -0.00772  -0.00772   0.06481
         Item               Value     Threshold  Converged?
 Maximum Force            0.006922     0.000450     NO 
 RMS     Force            0.002086     0.000300     NO 
 Maximum Displacement     0.039268     0.001800     NO 
 RMS     Displacement     0.012700     0.001200     NO 
 Predicted change in Energy=-1.572204D-04
 Lowest energy point so far.  Saving SCF results.
 GradGradGradGradGradGradGradGradGradGradGradGradGradGradGradGradGradGrad

 Leave Link  103 at Wed May 12 11:56:08 2021, MaxMem=  2147483648 cpu:         0.0
 (Enter /opt/cluster/programs/g09_d.01/g09/l202.exe)
                          Input orientation:                          
 ---------------------------------------------------------------------
 Center     Atomic      Atomic             Coordinates (Angstroms)
 Number     Number       Type             X           Y           Z
 ---------------------------------------------------------------------
      1          6           0       -1.042929   -1.254863    0.081447
      2          6           0       -0.465653   -0.059766    0.058720
      3          6           0        0.905787    0.343550    0.382248
      4          6           0        1.982111   -0.125845   -0.256746
      5          1           0       -2.092448   -1.376336   -0.154277
      6          1           0       -0.461237   -2.131605    0.336398
      7          9           0       -1.284160    1.068184   -0.215823
      8          1           0        1.003092    1.109446    1.148253
      9          1           0        1.895790   -0.850954   -1.060690
     10          1           0        2.981274    0.199466    0.011918
 ---------------------------------------------------------------------
                    Distance matrix (angstroms):
                    1          2          3          4          5
     1  C    0.000000
     2  C    1.327411   0.000000
     3  C    2.538286   1.465667   0.000000
     4  C    3.246525   2.468893   1.336831   0.000000
     5  H    1.082502   2.103613   3.497896   4.263363   0.000000
     6  H    1.082609   2.090368   2.827940   3.216340   1.863342
     7  F    2.354380   1.420422   2.382992   3.477917   2.575421
     8  H    3.303670   2.170565   1.087580   2.111502   4.178285
     9  H    3.178630   2.730471   2.118730   1.086076   4.123549
    10  H    4.279499   3.456978   2.113185   1.084589   5.315395
                    6          7          8          9         10
     6  H    0.000000
     7  F    3.349745   0.000000
     8  H    3.647983   2.663444   0.000000
     9  H    3.024483   3.809065   3.085370   0.000000
    10  H    4.170139   4.358952   2.456120   1.852604   0.000000
 Stoichiometry    C4H5F
 Framework group  C1[X(C4H5F)]
 Deg. of freedom    24
 Full point group                 C1      NOp   1
 RotChk:  IX=0 Diff= 5.12D-03
 Largest Abelian subgroup         C1      NOp   1
 Largest concise Abelian subgroup C1      NOp   1
                         Standard orientation:                         
 ---------------------------------------------------------------------
 Center     Atomic      Atomic             Coordinates (Angstroms)
 Number     Number       Type             X           Y           Z
 ---------------------------------------------------------------------
      1          6           0        1.043916    1.254533    0.083534
      2          6           0        0.466659    0.059410    0.061708
      3          6           0       -0.905732   -0.343159    0.382114
      4          6           0       -1.980173    0.124891   -0.261022
      5          1           0        2.094122    1.375461   -0.149397
      6          1           0        0.461520    2.131844    0.334897
      7          9           0        1.285916   -1.069158   -0.208016
      8          1           0       -1.005298   -1.107396    1.149485
      9          1           0       -1.891484    0.848260   -1.066275
     10          1           0       -2.980127   -0.199803    0.005435
 ---------------------------------------------------------------------
 Rotational constants (GHZ):      8.9816125      3.9379525      2.9296576
 Leave Link  202 at Wed May 12 11:56:08 2021, MaxMem=  2147483648 cpu:         0.0
 (Enter /opt/cluster/programs/g09_d.01/g09/l301.exe)
 Standard basis: 6-31+G (6D, 7F)
 Ernie: Thresh=  0.10000D-02 Tol=  0.10000D-05 Strict=F.
 There are    75 symmetry adapted cartesian basis functions of A   symmetry.
 There are    75 symmetry adapted basis functions of A   symmetry.
    75 basis functions,   150 primitive gaussians,    75 cartesian basis functions
    19 alpha electrons       19 beta electrons
       nuclear repulsion energy       156.4891497565 Hartrees.
 IExCor= 4639 DFT=T Ex+Corr=wB97XD ExCW=0 ScaHFX=  1.000000
 ScaDFX=  1.000000  1.000000  1.000000  1.000000 ScalE2=  1.000000  1.000000
 IRadAn=      0 IRanWt=     -1 IRanGd=            0 ICorTp=0 IEmpDi=121
  HFx wShort=  0.000000 wLong=  0.200000 cFull=  0.222036 cShort=  0.000000 cLong=  0.777964
  DFx wShort=  0.000000 wLong=  0.200000 cFull=  0.000000 cShort=  0.000000 cLong=  1.000000
 NAtoms=   10 NActive=   10 NUniq=   10 SFac= 1.00D+00 NAtFMM=   60 NAOKFM=F Big=F
 Integral buffers will be    131072 words long.
 Raffenetti 2 integral format.
 Two-electron integral symmetry is turned on.
 R6Disp:  Grimme-D2 Dispersion energy=       -0.0030649973 Hartrees.
 Nuclear repulsion after empirical dispersion term =      156.4860847591 Hartrees.
 Leave Link  301 at Wed May 12 11:56:08 2021, MaxMem=  2147483648 cpu:         0.3
 (Enter /opt/cluster/programs/g09_d.01/g09/l302.exe)
 NPDir=0 NMtPBC=     1 NCelOv=     1 NCel=       1 NClECP=     1 NCelD=      1
         NCelK=      1 NCelE2=     1 NClLst=     1 CellRange=     0.0.
 One-electron integrals computed using PRISM.
 NBasis=    75 RedAO= T EigKep=  6.35D-05  NBF=    75
 NBsUse=    75 1.00D-06 EigRej= -1.00D+00 NBFU=    75
 Precomputing XC quadrature grid using
 IXCGrd= 4 IRadAn=           0 IRanWt=          -1 IRanGd=           0 AccXCQ= 0.00D+00.
 Generated NRdTot=       0 NPtTot=           0 NUsed=           0 NTot=          32
 NSgBfM=    75    75    75    75    75 MxSgAt=    10 MxSgA2=    10.
 Leave Link  302 at Wed May 12 11:56:08 2021, MaxMem=  2147483648 cpu:         0.9
 (Enter /opt/cluster/programs/g09_d.01/g09/l303.exe)
 DipDrv:  MaxL=1.
 Leave Link  303 at Wed May 12 11:56:08 2021, MaxMem=  2147483648 cpu:         0.2
 (Enter /opt/cluster/programs/g09_d.01/g09/l401.exe)
 Initial guess from the checkpoint file:  "/home/unibas/boittier/RDKit_G2/B.pdb/SCAN_1_2_3_4_S_17_20.0/12_SCAN_1_2_3_4_F/B.pdb.chk"
 B after Tr=     0.000000    0.000000    0.000000
         Rot=    1.000000   -0.000287    0.000617   -0.000144 Ang=  -0.08 deg.
 Guess basis will be translated and rotated to current coordinates.
 JPrj=2 DoOrth=T DoCkMO=T.
 Generating alternative initial guess.
 ExpMin= 4.38D-02 ExpMax= 7.00D+03 ExpMxC= 1.05D+03 IAcc=2 IRadAn=         4 AccDes= 0.00D+00
 Harris functional with IExCor= 4639 and IRadAn=       4 diagonalized for initial guess.
 HarFok:  IExCor= 4639 AccDes= 0.00D+00 IRadAn=         4 IDoV= 1 UseB2=F ITyADJ=14
 ICtDFT=  3500011 ScaDFX=  1.000000  1.000000  1.000000  1.000000
 FoFCou: FMM=F IPFlag=           0 FMFlag=      100000 FMFlg1=           0
         NFxFlg=           0 DoJE=T BraDBF=F KetDBF=T FulRan=T
         wScrn=  0.000000 ICntrl=     500 IOpCl=  0 I1Cent=   200000004 NGrid=           0
         NMat0=    1 NMatS0=      1 NMatT0=    0 NMatD0=    1 NMtDS0=    0 NMtDT0=    0
 Petite list used in FoFCou.
 Harris En= -244.783552459522    
 Leave Link  401 at Wed May 12 11:56:09 2021, MaxMem=  2147483648 cpu:         1.7
 (Enter /opt/cluster/programs/g09_d.01/g09/l502.exe)
 Closed shell SCF:
 Using DIIS extrapolation, IDIIS=  1040.
 Integral symmetry usage will be decided dynamically.
 Keep R1 ints in memory in canonical form, NReq=9056162.
 IVT=       36600 IEndB=       36600 NGot=  2147483648 MDV=  2139321699
 LenX=  2139321699 LenY=  2139315633
 Requested convergence on RMS density matrix=1.00D-08 within 128 cycles.
 Requested convergence on MAX density matrix=1.00D-06.
 Requested convergence on             energy=1.00D-06.
 No special actions if energy rises.
 FoFCou: FMM=F IPFlag=           0 FMFlag=           0 FMFlg1=           0
         NFxFlg=           0 DoJE=F BraDBF=F KetDBF=F FulRan=T
         wScrn=  0.000000 ICntrl=     600 IOpCl=  0 I1Cent=           0 NGrid=           0
         NMat0=    1 NMatS0=   2850 NMatT0=    0 NMatD0=    1 NMtDS0=    0 NMtDT0=    0
 Symmetry not used in FoFCou.

 Cycle   1  Pass 1  IDiag  1:
 E= -255.096556183132    
 DIIS: error= 6.62D-04 at cycle   1 NSaved=   1.
 NSaved= 1 IEnMin= 1 EnMin= -255.096556183132     IErMin= 1 ErrMin= 6.62D-04
 ErrMax= 6.62D-04  0.00D+00 EMaxC= 1.00D-01 BMatC= 7.39D-05 BMatP= 7.39D-05
 IDIUse=3 WtCom= 9.93D-01 WtEn= 6.62D-03
 Coeff-Com:  0.100D+01
 Coeff-En:   0.100D+01
 Coeff:      0.100D+01
 Gap=     0.587 Goal=   None    Shift=    0.000
 RMSDP=4.69D-04 MaxDP=8.98D-03              OVMax= 2.20D-03

 Cycle   2  Pass 1  IDiag  1:
 E= -255.096661109804     Delta-E=       -0.000104926672 Rises=F Damp=F
 DIIS: error= 1.82D-04 at cycle   2 NSaved=   2.
 NSaved= 2 IEnMin= 2 EnMin= -255.096661109804     IErMin= 2 ErrMin= 1.82D-04
 ErrMax= 1.82D-04  0.00D+00 EMaxC= 1.00D-01 BMatC= 4.35D-06 BMatP= 7.39D-05
 IDIUse=3 WtCom= 9.98D-01 WtEn= 1.82D-03
 Coeff-Com: -0.534D-02 0.101D+01
 Coeff-En:   0.000D+00 0.100D+01
 Coeff:     -0.533D-02 0.101D+01
 Gap=     0.372 Goal=   None    Shift=    0.000
 RMSDP=1.29D-04 MaxDP=3.33D-03 DE=-1.05D-04 OVMax= 9.24D-04

 Cycle   3  Pass 1  IDiag  1:
 E= -255.096668119754     Delta-E=       -0.000007009950 Rises=F Damp=F
 DIIS: error= 7.35D-05 at cycle   3 NSaved=   3.
 NSaved= 3 IEnMin= 3 EnMin= -255.096668119754     IErMin= 3 ErrMin= 7.35D-05
 ErrMax= 7.35D-05  0.00D+00 EMaxC= 1.00D-01 BMatC= 1.13D-06 BMatP= 4.35D-06
 IDIUse=1 WtCom= 1.00D+00 WtEn= 0.00D+00
 Coeff-Com: -0.632D-01 0.303D+00 0.760D+00
 Coeff:     -0.632D-01 0.303D+00 0.760D+00
 Gap=     0.372 Goal=   None    Shift=    0.000
 RMSDP=3.98D-05 MaxDP=5.75D-04 DE=-7.01D-06 OVMax= 4.04D-04

 Cycle   4  Pass 1  IDiag  1:
 E= -255.096669585563     Delta-E=       -0.000001465809 Rises=F Damp=F
 DIIS: error= 2.76D-05 at cycle   4 NSaved=   4.
 NSaved= 4 IEnMin= 4 EnMin= -255.096669585563     IErMin= 4 ErrMin= 2.76D-05
 ErrMax= 2.76D-05  0.00D+00 EMaxC= 1.00D-01 BMatC= 7.65D-08 BMatP= 1.13D-06
 IDIUse=1 WtCom= 1.00D+00 WtEn= 0.00D+00
 Coeff-Com: -0.124D-01 0.124D-01 0.175D+00 0.825D+00
 Coeff:     -0.124D-01 0.124D-01 0.175D+00 0.825D+00
 Gap=     0.372 Goal=   None    Shift=    0.000
 RMSDP=8.94D-06 MaxDP=9.56D-05 DE=-1.47D-06 OVMax= 1.93D-04

 Cycle   5  Pass 1  IDiag  1:
 E= -255.096669698578     Delta-E=       -0.000000113015 Rises=F Damp=F
 DIIS: error= 1.87D-05 at cycle   5 NSaved=   5.
 NSaved= 5 IEnMin= 5 EnMin= -255.096669698578     IErMin= 5 ErrMin= 1.87D-05
 ErrMax= 1.87D-05  0.00D+00 EMaxC= 1.00D-01 BMatC= 3.26D-08 BMatP= 7.65D-08
 IDIUse=1 WtCom= 1.00D+00 WtEn= 0.00D+00
 Coeff-Com:  0.649D-02-0.575D-01-0.727D-01 0.429D+00 0.694D+00
 Coeff:      0.649D-02-0.575D-01-0.727D-01 0.429D+00 0.694D+00
 Gap=     0.372 Goal=   None    Shift=    0.000
 RMSDP=5.56D-06 MaxDP=7.06D-05 DE=-1.13D-07 OVMax= 8.30D-05

 Cycle   6  Pass 1  IDiag  1:
 E= -255.096669742479     Delta-E=       -0.000000043902 Rises=F Damp=F
 DIIS: error= 3.04D-06 at cycle   6 NSaved=   6.
 NSaved= 6 IEnMin= 6 EnMin= -255.096669742479     IErMin= 6 ErrMin= 3.04D-06
 ErrMax= 3.04D-06  0.00D+00 EMaxC= 1.00D-01 BMatC= 4.53D-10 BMatP= 3.26D-08
 IDIUse=1 WtCom= 1.00D+00 WtEn= 0.00D+00
 Coeff-Com:  0.693D-03 0.439D-03-0.115D-01-0.557D-01-0.630D-01 0.113D+01
 Coeff:      0.693D-03 0.439D-03-0.115D-01-0.557D-01-0.630D-01 0.113D+01
 Gap=     0.372 Goal=   None    Shift=    0.000
 RMSDP=2.06D-06 MaxDP=3.78D-05 DE=-4.39D-08 OVMax= 2.26D-05

 Cycle   7  Pass 1  IDiag  1:
 E= -255.096669744251     Delta-E=       -0.000000001772 Rises=F Damp=F
 DIIS: error= 1.12D-06 at cycle   7 NSaved=   7.
 NSaved= 7 IEnMin= 7 EnMin= -255.096669744251     IErMin= 7 ErrMin= 1.12D-06
 ErrMax= 1.12D-06  0.00D+00 EMaxC= 1.00D-01 BMatC= 1.97D-10 BMatP= 4.53D-10
 IDIUse=1 WtCom= 1.00D+00 WtEn= 0.00D+00
 Coeff-Com: -0.299D-03 0.581D-02 0.155D-02-0.644D-01-0.933D-01 0.530D+00
 Coeff-Com:  0.620D+00
 Coeff:     -0.299D-03 0.581D-02 0.155D-02-0.644D-01-0.933D-01 0.530D+00
 Coeff:      0.620D+00
 Gap=     0.372 Goal=   None    Shift=    0.000
 RMSDP=5.49D-07 MaxDP=1.25D-05 DE=-1.77D-09 OVMax= 7.92D-06

 Cycle   8  Pass 1  IDiag  1:
 E= -255.096669744481     Delta-E=       -0.000000000230 Rises=F Damp=F
 DIIS: error= 2.21D-07 at cycle   8 NSaved=   8.
 NSaved= 8 IEnMin= 8 EnMin= -255.096669744481     IErMin= 8 ErrMin= 2.21D-07
 ErrMax= 2.21D-07  0.00D+00 EMaxC= 1.00D-01 BMatC= 6.97D-12 BMatP= 1.97D-10
 IDIUse=1 WtCom= 1.00D+00 WtEn= 0.00D+00
 Coeff-Com: -0.754D-04 0.185D-03 0.133D-02 0.155D-02 0.131D-02-0.870D-01
 Coeff-Com:  0.791D-01 0.100D+01
 Coeff:     -0.754D-04 0.185D-03 0.133D-02 0.155D-02 0.131D-02-0.870D-01
 Coeff:      0.791D-01 0.100D+01
 Gap=     0.372 Goal=   None    Shift=    0.000
 RMSDP=2.23D-07 MaxDP=2.99D-06 DE=-2.30D-10 OVMax= 2.65D-06

 Cycle   9  Pass 1  IDiag  1:
 E= -255.096669744495     Delta-E=       -0.000000000014 Rises=F Damp=F
 DIIS: error= 1.03D-07 at cycle   9 NSaved=   9.
 NSaved= 9 IEnMin= 9 EnMin= -255.096669744495     IErMin= 9 ErrMin= 1.03D-07
 ErrMax= 1.03D-07  0.00D+00 EMaxC= 1.00D-01 BMatC= 1.45D-12 BMatP= 6.97D-12
 IDIUse=1 WtCom= 1.00D+00 WtEn= 0.00D+00
 Coeff-Com: -0.220D-04-0.211D-03 0.557D-03 0.452D-02 0.578D-02-0.737D-01
 Coeff-Com:  0.688D-03 0.463D+00 0.599D+00
 Coeff:     -0.220D-04-0.211D-03 0.557D-03 0.452D-02 0.578D-02-0.737D-01
 Coeff:      0.688D-03 0.463D+00 0.599D+00
 Gap=     0.372 Goal=   None    Shift=    0.000
 RMSDP=4.92D-08 MaxDP=8.13D-07 DE=-1.39D-11 OVMax= 5.79D-07

 Cycle  10  Pass 1  IDiag  1:
 E= -255.096669744496     Delta-E=       -0.000000000001 Rises=F Damp=F
 DIIS: error= 2.47D-08 at cycle  10 NSaved=  10.
 NSaved=10 IEnMin=10 EnMin= -255.096669744496     IErMin=10 ErrMin= 2.47D-08
 ErrMax= 2.47D-08  0.00D+00 EMaxC= 1.00D-01 BMatC= 9.00D-14 BMatP= 1.45D-12
 IDIUse=1 WtCom= 1.00D+00 WtEn= 0.00D+00
 Coeff-Com:  0.111D-04-0.129D-03-0.136D-03 0.130D-02 0.149D-02-0.481D-02
 Coeff-Com: -0.144D-01-0.695D-01 0.137D+00 0.949D+00
 Coeff:      0.111D-04-0.129D-03-0.136D-03 0.130D-02 0.149D-02-0.481D-02
 Coeff:     -0.144D-01-0.695D-01 0.137D+00 0.949D+00
 Gap=     0.372 Goal=   None    Shift=    0.000
 RMSDP=3.83D-08 MaxDP=7.55D-07 DE=-1.48D-12 OVMax= 4.31D-07

 Cycle  11  Pass 1  IDiag  1:
 E= -255.096669744495     Delta-E=        0.000000000001 Rises=F Damp=F
 DIIS: error= 5.99D-09 at cycle  11 NSaved=  11.
 NSaved=11 IEnMin=10 EnMin= -255.096669744496     IErMin=11 ErrMin= 5.99D-09
 ErrMax= 5.99D-09  0.00D+00 EMaxC= 1.00D-01 BMatC= 5.57D-15 BMatP= 9.00D-14
 IDIUse=1 WtCom= 1.00D+00 WtEn= 0.00D+00
 Coeff-Com:  0.237D-05-0.327D-05-0.489D-04-0.919D-04-0.149D-03 0.355D-02
 Coeff-Com: -0.108D-02-0.370D-01-0.198D-01 0.143D+00 0.912D+00
 Coeff:      0.237D-05-0.327D-05-0.489D-04-0.919D-04-0.149D-03 0.355D-02
 Coeff:     -0.108D-02-0.370D-01-0.198D-01 0.143D+00 0.912D+00
 Gap=     0.372 Goal=   None    Shift=    0.000
 RMSDP=7.60D-09 MaxDP=1.29D-07 DE= 9.66D-13 OVMax= 8.88D-08

 SCF Done:  E(RwB97XD) =  -255.096669744     A.U. after   11 cycles
            NFock= 11  Conv=0.76D-08     -V/T= 2.0056
 KE= 2.536688276139D+02 PE=-9.106390635362D+02 EE= 2.453874814187D+02
 Leave Link  502 at Wed May 12 11:56:11 2021, MaxMem=  2147483648 cpu:        11.2
 (Enter /opt/cluster/programs/g09_d.01/g09/l701.exe)
 Compute integral first derivatives.
 ... and contract with generalized density number  0.
 R6Disp: Adding Grimme-D2 dispersion energy 1st derivatives to the gradient.
 Leave Link  701 at Wed May 12 11:56:11 2021, MaxMem=  2147483648 cpu:         0.6
 (Enter /opt/cluster/programs/g09_d.01/g09/l702.exe)
 L702 exits ... SP integral derivatives will be done elsewhere.
 Leave Link  702 at Wed May 12 11:56:11 2021, MaxMem=  2147483648 cpu:         0.2
 (Enter /opt/cluster/programs/g09_d.01/g09/l703.exe)
 Compute integral first derivatives, UseDBF=F ICtDFT=           0.
 Integral derivatives from FoFJK, PRISM(SPDF).
 Calling FoFJK, ICntrl=      2127 FMM=F ISym2X=0 I1Cent= 0 IOpClX= 0 NMat=1 NMatS=1 NMatT=0.
 FoFJK:  IHMeth= 1 ICntrl=    2127 DoSepK=T KAlg= 0 I1Cent=   0 FoldK=F
 IRaf=         1 NMat=   1 IRICut=       1 DoRegI=T DoRafI=F ISym2E= 0.
 FoFCou: FMM=F IPFlag=           0 FMFlag=      100000 FMFlg1=         800
         NFxFlg=           0 DoJE=F BraDBF=F KetDBF=F FulRan=T
         wScrn=  0.000000 ICntrl=    2527 IOpCl=  0 I1Cent=           0 NGrid=           0
         NMat0=    1 NMatS0=      1 NMatT0=    0 NMatD0=    1 NMtDS0=    0 NMtDT0=    0
 Symmetry not used in FoFCou.
 Leave Link  703 at Wed May 12 11:56:11 2021, MaxMem=  2147483648 cpu:         3.3
 (Enter /opt/cluster/programs/g09_d.01/g09/l716.exe)
 Dipole        =-6.75783668D-01 6.50760100D-01 1.73837398D-01
 ***** Axes restored to original set *****
 -------------------------------------------------------------------
 Center     Atomic                   Forces (Hartrees/Bohr)
 Number     Number              X              Y              Z
 -------------------------------------------------------------------
      1        6           0.001175663   -0.001971906   -0.003359637
      2        6          -0.004000728    0.002577473    0.005953855
      3        6           0.000730196    0.003781247   -0.004634789
      4        6           0.000994862   -0.002930076    0.001830757
      5        1          -0.000008877   -0.000051247   -0.000052994
      6        1          -0.000064512    0.000013460    0.000076426
      7        9           0.001149628   -0.001314246    0.000305677
      8        1          -0.000115357   -0.000075767    0.000030517
      9        1          -0.000002910    0.000018138   -0.000010744
     10        1           0.000142035   -0.000047075   -0.000139067
 -------------------------------------------------------------------
 Cartesian Forces:  Max     0.005953855 RMS     0.002058435
 Leave Link  716 at Wed May 12 11:56:12 2021, MaxMem=  2147483648 cpu:         0.2
 (Enter /opt/cluster/programs/g09_d.01/g09/l103.exe)

 GradGradGradGradGradGradGradGradGradGradGradGradGradGradGradGradGradGrad
 Berny optimization.
 Using GEDIIS/GDIIS optimizer.
 FormGI is forming the generalized inverse of G from B-inverse, IUseBI=4.
 Internal  Forces:  Max     0.003465513 RMS     0.001020662
 Search for a local minimum.
 Step number   2 out of a maximum of   43
 All quantities printed in internal units (Hartrees-Bohrs-Radians)
 RMS Force = .55198D-03 SwitMx=.10000D-02 MixMth= 2
 Mixed Optimization -- En-DIIS/RFO-DIIS
 Update second derivatives using D2CorX and points    1    2
 DE= -1.64D-04 DEPred=-1.57D-04 R= 1.04D+00
 TightC=F SS=  1.41D+00  RLast= 3.70D-02 DXNew= 5.0454D-01 1.1087D-01
 Trust test= 1.04D+00 RLast= 3.70D-02 DXMaxT set to 3.00D-01
 ITU=  1  0
 Use linear search instead of GDIIS.
     Eigenvalues ---    0.01642   0.02118   0.02840   0.02848   0.02974
     Eigenvalues ---    0.02989   0.15848   0.15985   0.16000   0.16000
     Eigenvalues ---    0.16133   0.20835   0.24002   0.24952   0.34001
     Eigenvalues ---    0.35091   0.35240   0.35395   0.35611   0.35698
     Eigenvalues ---    0.37882   0.57546   0.711041000.000001000.00000
     Eigenvalues --- 1000.000001000.000001000.000001000.000001000.00000
     Eigenvalues --- 1000.000001000.000001000.00000
 RFO step:  Lambda=-2.89781839D-05 EMin= 1.64150447D-02
 Quartic linear search produced a step of  0.03781.
 Iteration  1 RMS(Cart)=  0.00434624 RMS(Int)=  0.00001026
 Iteration  2 RMS(Cart)=  0.00001180 RMS(Int)=  0.00000097
 Iteration  3 RMS(Cart)=  0.00000000 RMS(Int)=  0.00000097
 Iteration  1 RMS(Cart)=  0.00000069 RMS(Int)=  0.00000051
 ITry= 1 IFail=0 DXMaxC= 9.23D-03 DCOld= 1.00D+10 DXMaxT= 3.00D-01 DXLimC= 3.00D+00 Rises=F
 Variable       Old X    -DE/DX   Delta X   Delta X   Delta X     New X
                                 (Linear)    (Quad)   (Total)
    R1        2.50844   0.00128  -0.00040   0.00168   0.00128   2.50972
    R2        2.04563   0.00003  -0.00005   0.00000  -0.00006   2.04558
    R3        2.04583  -0.00002  -0.00004  -0.00013  -0.00017   2.04567
    R4        2.76971   0.00120  -0.00007   0.00335   0.00328   2.77299
    R5        2.68421  -0.00177  -0.00064  -0.00537  -0.00601   2.67820
    R6        2.52625   0.00114  -0.00043   0.00148   0.00105   2.52729
    R7        2.05523  -0.00004  -0.00010  -0.00026  -0.00035   2.05488
    R8        2.05239  -0.00001  -0.00003  -0.00007  -0.00010   2.05228
    R9        2.04958   0.00008  -0.00006   0.00016   0.00010   2.04968
    A1        2.11641   0.00004  -0.00004   0.00019   0.00015   2.11656
    A2        2.09380   0.00002  -0.00012  -0.00005  -0.00017   2.09363
    A3        2.07298  -0.00006   0.00016  -0.00014   0.00002   2.07299
    A4        2.27956  -0.00111  -0.00014  -0.00488  -0.00503   2.27453
    A5        2.05742   0.00090   0.00012   0.00345   0.00357   2.06100
    A6        1.94265   0.00034   0.00004   0.00169   0.00173   1.94439
    A7        2.15464  -0.00013  -0.00033  -0.00121  -0.00154   2.15310
    A8        2.01858  -0.00007   0.00016  -0.00018  -0.00003   2.01856
    A9        2.10818   0.00030   0.00019   0.00149   0.00169   2.10987
   A10        2.12264  -0.00012  -0.00010  -0.00090  -0.00099   2.12165
   A11        2.11530   0.00024  -0.00005   0.00147   0.00142   2.11672
   A12        2.04523  -0.00012   0.00015  -0.00056  -0.00041   2.04481
    D1        3.09953   0.00096  -0.00001   0.00369   0.00368   3.10321
    D2        0.05718  -0.00085  -0.00030  -0.00015  -0.00045   0.05673
    D3       -0.04536   0.00098   0.00007   0.00422   0.00430  -0.04106
    D4       -3.08770  -0.00084  -0.00021   0.00038   0.00017  -3.08753
    D5        1.04739  -0.00347   0.00000   0.00000   0.00000   1.04739
    D6       -2.15786  -0.00175   0.00035   0.00195   0.00230  -2.15556
    D7       -2.18834  -0.00171   0.00027   0.00375   0.00402  -2.18432
    D8        0.88959   0.00000   0.00062   0.00570   0.00632   0.89591
    D9       -0.00812   0.00092   0.00007   0.00183   0.00190  -0.00622
   D10        3.13960   0.00085   0.00007  -0.00074  -0.00066   3.13894
   D11       -3.08291  -0.00086  -0.00029  -0.00015  -0.00044  -3.08335
   D12        0.06481  -0.00094  -0.00029  -0.00272  -0.00301   0.06180
         Item               Value     Threshold  Converged?
 Maximum Force            0.001767     0.000450     NO 
 RMS     Force            0.000552     0.000300     NO 
 Maximum Displacement     0.009228     0.001800     NO 
 RMS     Displacement     0.004348     0.001200     NO 
 Predicted change in Energy=-1.477555D-05
 Lowest energy point so far.  Saving SCF results.
 GradGradGradGradGradGradGradGradGradGradGradGradGradGradGradGradGradGrad

 Leave Link  103 at Wed May 12 11:56:12 2021, MaxMem=  2147483648 cpu:         0.1
 (Enter /opt/cluster/programs/g09_d.01/g09/l202.exe)
                          Input orientation:                          
 ---------------------------------------------------------------------
 Center     Atomic      Atomic             Coordinates (Angstroms)
 Number     Number       Type             X           Y           Z
 ---------------------------------------------------------------------
      1          6           0       -1.041515   -1.254304    0.081555
      2          6           0       -0.467973   -0.056661    0.058768
      3          6           0        0.905504    0.344714    0.383936
      4          6           0        1.980708   -0.126650   -0.256651
      5          1           0       -2.089839   -1.379890   -0.157170
      6          1           0       -0.457647   -2.128409    0.340187
      7          9           0       -1.283519    1.068521   -0.219497
      8          1           0        1.003568    1.107650    1.152530
      9          1           0        1.890907   -0.849127   -1.062509
     10          1           0        2.981431    0.195433    0.010301
 ---------------------------------------------------------------------
                    Distance matrix (angstroms):
                    1          2          3          4          5
     1  C    0.000000
     2  C    1.328088   0.000000
     3  C    2.537553   1.467404   0.000000
     4  C    3.243427   2.469904   1.337386   0.000000
     5  H    1.082472   2.104285   3.498448   4.260266   0.000000
     6  H    1.082521   2.090800   2.824258   3.210737   1.863248
     7  F    2.354722   1.417244   2.383244   3.476348   2.578518
     8  H    3.302753   2.171950   1.087393   2.112840   4.179993
     9  H    3.173665   2.729392   2.118603   1.086022   4.116757
    10  H    4.276787   3.458943   2.114559   1.084641   5.312953
                    6          7          8          9         10
     6  H    0.000000
     7  F    3.348981   0.000000
     8  H    3.642407   2.667350   0.000000
     9  H    3.019905   3.803291   3.085894   0.000000
    10  H    4.163691   4.359460   2.459425   1.852368   0.000000
 Stoichiometry    C4H5F
 Framework group  C1[X(C4H5F)]
 Deg. of freedom    24
 Full point group                 C1      NOp   1
 RotChk:  IX=0 Diff= 2.40D-03
 Largest Abelian subgroup         C1      NOp   1
 Largest concise Abelian subgroup C1      NOp   1
                         Standard orientation:                         
 ---------------------------------------------------------------------
 Center     Atomic      Atomic             Coordinates (Angstroms)
 Number     Number       Type             X           Y           Z
 ---------------------------------------------------------------------
      1          6           0        1.041163    1.255548    0.083649
      2          6           0        0.468667    0.057373    0.062648
      3          6           0       -0.905724   -0.344032    0.383893
      4          6           0       -1.978844    0.124334   -0.262363
      5          1           0        2.090293    1.381190   -0.151481
      6          1           0        0.455614    2.130034    0.337142
      7          9           0        1.286167   -1.068066   -0.208758
      8          1           0       -1.006121   -1.104492    1.154637
      9          1           0       -1.886536    0.844204   -1.070267
     10          1           0       -2.980325   -0.197671    0.001828
 ---------------------------------------------------------------------
 Rotational constants (GHZ):      8.9756430      3.9404392      2.9322595
 Leave Link  202 at Wed May 12 11:56:12 2021, MaxMem=  2147483648 cpu:         0.0
 (Enter /opt/cluster/programs/g09_d.01/g09/l301.exe)
 Standard basis: 6-31+G (6D, 7F)
 Ernie: Thresh=  0.10000D-02 Tol=  0.10000D-05 Strict=F.
 There are    75 symmetry adapted cartesian basis functions of A   symmetry.
 There are    75 symmetry adapted basis functions of A   symmetry.
    75 basis functions,   150 primitive gaussians,    75 cartesian basis functions
    19 alpha electrons       19 beta electrons
       nuclear repulsion energy       156.5119038544 Hartrees.
 IExCor= 4639 DFT=T Ex+Corr=wB97XD ExCW=0 ScaHFX=  1.000000
 ScaDFX=  1.000000  1.000000  1.000000  1.000000 ScalE2=  1.000000  1.000000
 IRadAn=      0 IRanWt=     -1 IRanGd=            0 ICorTp=0 IEmpDi=121
  HFx wShort=  0.000000 wLong=  0.200000 cFull=  0.222036 cShort=  0.000000 cLong=  0.777964
  DFx wShort=  0.000000 wLong=  0.200000 cFull=  0.000000 cShort=  0.000000 cLong=  1.000000
 NAtoms=   10 NActive=   10 NUniq=   10 SFac= 1.00D+00 NAtFMM=   60 NAOKFM=F Big=F
 Integral buffers will be    131072 words long.
 Raffenetti 2 integral format.
 Two-electron integral symmetry is turned on.
 R6Disp:  Grimme-D2 Dispersion energy=       -0.0030684552 Hartrees.
 Nuclear repulsion after empirical dispersion term =      156.5088353992 Hartrees.
 Leave Link  301 at Wed May 12 11:56:12 2021, MaxMem=  2147483648 cpu:         0.3
 (Enter /opt/cluster/programs/g09_d.01/g09/l302.exe)
 NPDir=0 NMtPBC=     1 NCelOv=     1 NCel=       1 NClECP=     1 NCelD=      1
         NCelK=      1 NCelE2=     1 NClLst=     1 CellRange=     0.0.
 One-electron integrals computed using PRISM.
 NBasis=    75 RedAO= T EigKep=  6.44D-05  NBF=    75
 NBsUse=    75 1.00D-06 EigRej= -1.00D+00 NBFU=    75
 Precomputing XC quadrature grid using
 IXCGrd= 4 IRadAn=           0 IRanWt=          -1 IRanGd=           0 AccXCQ= 0.00D+00.
 Generated NRdTot=       0 NPtTot=           0 NUsed=           0 NTot=          32
 NSgBfM=    75    75    75    75    75 MxSgAt=    10 MxSgA2=    10.
 Leave Link  302 at Wed May 12 11:56:12 2021, MaxMem=  2147483648 cpu:         0.9
 (Enter /opt/cluster/programs/g09_d.01/g09/l303.exe)
 DipDrv:  MaxL=1.
 Leave Link  303 at Wed May 12 11:56:12 2021, MaxMem=  2147483648 cpu:         0.2
 (Enter /opt/cluster/programs/g09_d.01/g09/l401.exe)
 Initial guess from the checkpoint file:  "/home/unibas/boittier/RDKit_G2/B.pdb/SCAN_1_2_3_4_S_17_20.0/12_SCAN_1_2_3_4_F/B.pdb.chk"
 B after Tr=     0.000000    0.000000    0.000000
         Rot=    1.000000    0.000084    0.000147   -0.000348 Ang=   0.04 deg.
 Guess basis will be translated and rotated to current coordinates.
 JPrj=2 DoOrth=T DoCkMO=T.
 Leave Link  401 at Wed May 12 11:56:12 2021, MaxMem=  2147483648 cpu:         0.6
 (Enter /opt/cluster/programs/g09_d.01/g09/l502.exe)
 Closed shell SCF:
 Using DIIS extrapolation, IDIIS=  1040.
 Integral symmetry usage will be decided dynamically.
 Keep R1 ints in memory in canonical form, NReq=9056162.
 IVT=       36600 IEndB=       36600 NGot=  2147483648 MDV=  2139321699
 LenX=  2139321699 LenY=  2139315633
 Requested convergence on RMS density matrix=1.00D-08 within 128 cycles.
 Requested convergence on MAX density matrix=1.00D-06.
 Requested convergence on             energy=1.00D-06.
 No special actions if energy rises.
 FoFCou: FMM=F IPFlag=           0 FMFlag=           0 FMFlg1=           0
         NFxFlg=           0 DoJE=F BraDBF=F KetDBF=F FulRan=T
         wScrn=  0.000000 ICntrl=     600 IOpCl=  0 I1Cent=           0 NGrid=           0
         NMat0=    1 NMatS0=   2850 NMatT0=    0 NMatD0=    1 NMtDS0=    0 NMtDT0=    0
 Symmetry not used in FoFCou.

 Cycle   1  Pass 1  IDiag  1:
 E= -255.096665847021    
 DIIS: error= 2.52D-04 at cycle   1 NSaved=   1.
 NSaved= 1 IEnMin= 1 EnMin= -255.096665847021     IErMin= 1 ErrMin= 2.52D-04
 ErrMax= 2.52D-04  0.00D+00 EMaxC= 1.00D-01 BMatC= 1.38D-05 BMatP= 1.38D-05
 IDIUse=3 WtCom= 9.97D-01 WtEn= 2.52D-03
 Coeff-Com:  0.100D+01
 Coeff-En:   0.100D+01
 Coeff:      0.100D+01
 Gap=     0.587 Goal=   None    Shift=    0.000
 RMSDP=1.51D-04 MaxDP=2.02D-03              OVMax= 1.28D-03

 Cycle   2  Pass 1  IDiag  1:
 E= -255.096686667143     Delta-E=       -0.000020820123 Rises=F Damp=F
 DIIS: error= 1.48D-04 at cycle   2 NSaved=   2.
 NSaved= 2 IEnMin= 2 EnMin= -255.096686667143     IErMin= 2 ErrMin= 1.48D-04
 ErrMax= 1.48D-04  0.00D+00 EMaxC= 1.00D-01 BMatC= 2.17D-06 BMatP= 1.38D-05
 IDIUse=3 WtCom= 9.99D-01 WtEn= 1.48D-03
 Coeff-Com:  0.107D+00 0.893D+00
 Coeff-En:   0.000D+00 0.100D+01
 Coeff:      0.107D+00 0.893D+00
 Gap=     0.372 Goal=   None    Shift=    0.000
 RMSDP=4.55D-05 MaxDP=9.21D-04 DE=-2.08D-05 OVMax= 4.83D-04

 Cycle   3  Pass 1  IDiag  1:
 E= -255.096687892874     Delta-E=       -0.000001225730 Rises=F Damp=F
 DIIS: error= 1.36D-04 at cycle   3 NSaved=   3.
 NSaved= 3 IEnMin= 3 EnMin= -255.096687892874     IErMin= 3 ErrMin= 1.36D-04
 ErrMax= 1.36D-04  0.00D+00 EMaxC= 1.00D-01 BMatC= 1.74D-06 BMatP= 2.17D-06
 IDIUse=3 WtCom= 9.99D-01 WtEn= 1.36D-03
 Coeff-Com: -0.103D+00 0.497D+00 0.606D+00
 Coeff-En:   0.000D+00 0.211D+00 0.789D+00
 Coeff:     -0.103D+00 0.497D+00 0.606D+00
 Gap=     0.372 Goal=   None    Shift=    0.000
 RMSDP=2.71D-05 MaxDP=5.13D-04 DE=-1.23D-06 OVMax= 2.51D-04

 Cycle   4  Pass 1  IDiag  1:
 E= -255.096689172126     Delta-E=       -0.000001279252 Rises=F Damp=F
 DIIS: error= 1.36D-05 at cycle   4 NSaved=   4.
 NSaved= 4 IEnMin= 4 EnMin= -255.096689172126     IErMin= 4 ErrMin= 1.36D-05
 ErrMax= 1.36D-05  0.00D+00 EMaxC= 1.00D-01 BMatC= 1.29D-08 BMatP= 1.74D-06
 IDIUse=1 WtCom= 1.00D+00 WtEn= 0.00D+00
 Coeff-Com:  0.561D-02-0.924D-01-0.376D-01 0.112D+01
 Coeff:      0.561D-02-0.924D-01-0.376D-01 0.112D+01
 Gap=     0.372 Goal=   None    Shift=    0.000
 RMSDP=6.53D-06 MaxDP=7.19D-05 DE=-1.28D-06 OVMax= 9.75D-05

 Cycle   5  Pass 1  IDiag  1:
 E= -255.096689208962     Delta-E=       -0.000000036836 Rises=F Damp=F
 DIIS: error= 4.26D-06 at cycle   5 NSaved=   5.
 NSaved= 5 IEnMin= 5 EnMin= -255.096689208962     IErMin= 5 ErrMin= 4.26D-06
 ErrMax= 4.26D-06  0.00D+00 EMaxC= 1.00D-01 BMatC= 1.84D-09 BMatP= 1.29D-08
 IDIUse=1 WtCom= 1.00D+00 WtEn= 0.00D+00
 Coeff-Com:  0.833D-02-0.595D-01-0.515D-01 0.340D+00 0.763D+00
 Coeff:      0.833D-02-0.595D-01-0.515D-01 0.340D+00 0.763D+00
 Gap=     0.372 Goal=   None    Shift=    0.000
 RMSDP=1.75D-06 MaxDP=1.93D-05 DE=-3.68D-08 OVMax= 2.41D-05

 Cycle   6  Pass 1  IDiag  1:
 E= -255.096689212350     Delta-E=       -0.000000003389 Rises=F Damp=F
 DIIS: error= 1.42D-06 at cycle   6 NSaved=   6.
 NSaved= 6 IEnMin= 6 EnMin= -255.096689212350     IErMin= 6 ErrMin= 1.42D-06
 ErrMax= 1.42D-06  0.00D+00 EMaxC= 1.00D-01 BMatC= 1.77D-10 BMatP= 1.84D-09
 IDIUse=1 WtCom= 1.00D+00 WtEn= 0.00D+00
 Coeff-Com:  0.889D-03 0.118D-02-0.664D-02-0.857D-01 0.142D+00 0.948D+00
 Coeff:      0.889D-03 0.118D-02-0.664D-02-0.857D-01 0.142D+00 0.948D+00
 Gap=     0.372 Goal=   None    Shift=    0.000
 RMSDP=7.66D-07 MaxDP=1.15D-05 DE=-3.39D-09 OVMax= 1.14D-05

 Cycle   7  Pass 1  IDiag  1:
 E= -255.096689212773     Delta-E=       -0.000000000423 Rises=F Damp=F
 DIIS: error= 7.57D-07 at cycle   7 NSaved=   7.
 NSaved= 7 IEnMin= 7 EnMin= -255.096689212773     IErMin= 7 ErrMin= 7.57D-07
 ErrMax= 7.57D-07  0.00D+00 EMaxC= 1.00D-01 BMatC= 4.61D-11 BMatP= 1.77D-10
 IDIUse=1 WtCom= 1.00D+00 WtEn= 0.00D+00
 Coeff-Com: -0.408D-03 0.619D-02 0.171D-02-0.721D-01-0.224D-02 0.446D+00
 Coeff-Com:  0.621D+00
 Coeff:     -0.408D-03 0.619D-02 0.171D-02-0.721D-01-0.224D-02 0.446D+00
 Coeff:      0.621D+00
 Gap=     0.372 Goal=   None    Shift=    0.000
 RMSDP=1.87D-07 MaxDP=1.85D-06 DE=-4.23D-10 OVMax= 4.14D-06

 Cycle   8  Pass 1  IDiag  1:
 E= -255.096689212830     Delta-E=       -0.000000000057 Rises=F Damp=F
 DIIS: error= 1.18D-07 at cycle   8 NSaved=   8.
 NSaved= 8 IEnMin= 8 EnMin= -255.096689212830     IErMin= 8 ErrMin= 1.18D-07
 ErrMax= 1.18D-07  0.00D+00 EMaxC= 1.00D-01 BMatC= 1.78D-12 BMatP= 4.61D-11
 IDIUse=1 WtCom= 1.00D+00 WtEn= 0.00D+00
 Coeff-Com: -0.138D-03 0.574D-03 0.106D-02 0.156D-02-0.183D-01-0.623D-01
 Coeff-Com:  0.102D+00 0.975D+00
 Coeff:     -0.138D-03 0.574D-03 0.106D-02 0.156D-02-0.183D-01-0.623D-01
 Coeff:      0.102D+00 0.975D+00
 Gap=     0.372 Goal=   None    Shift=    0.000
 RMSDP=1.01D-07 MaxDP=1.42D-06 DE=-5.66D-11 OVMax= 1.30D-06

 Cycle   9  Pass 1  IDiag  1:
 E= -255.096689212837     Delta-E=       -0.000000000007 Rises=F Damp=F
 DIIS: error= 3.11D-08 at cycle   9 NSaved=   9.
 NSaved= 9 IEnMin= 9 EnMin= -255.096689212837     IErMin= 9 ErrMin= 3.11D-08
 ErrMax= 3.11D-08  0.00D+00 EMaxC= 1.00D-01 BMatC= 1.16D-13 BMatP= 1.78D-12
 IDIUse=1 WtCom= 1.00D+00 WtEn= 0.00D+00
 Coeff-Com: -0.946D-05-0.223D-03 0.115D-03 0.434D-02-0.344D-02-0.374D-01
 Coeff-Com: -0.208D-01 0.177D+00 0.880D+00
 Coeff:     -0.946D-05-0.223D-03 0.115D-03 0.434D-02-0.344D-02-0.374D-01
 Coeff:     -0.208D-01 0.177D+00 0.880D+00
 Gap=     0.372 Goal=   None    Shift=    0.000
 RMSDP=3.00D-08 MaxDP=4.37D-07 DE=-6.71D-12 OVMax= 3.70D-07

 Cycle  10  Pass 1  IDiag  1:
 E= -255.096689212837     Delta-E=       -0.000000000001 Rises=F Damp=F
 DIIS: error= 1.16D-08 at cycle  10 NSaved=  10.
 NSaved=10 IEnMin=10 EnMin= -255.096689212837     IErMin=10 ErrMin= 1.16D-08
 ErrMax= 1.16D-08  0.00D+00 EMaxC= 1.00D-01 BMatC= 2.12D-14 BMatP= 1.16D-13
 IDIUse=1 WtCom= 1.00D+00 WtEn= 0.00D+00
 Coeff-Com:  0.141D-04-0.146D-03-0.977D-04 0.137D-02 0.102D-02-0.539D-02
 Coeff-Com: -0.188D-01-0.502D-01 0.299D+00 0.773D+00
 Coeff:      0.141D-04-0.146D-03-0.977D-04 0.137D-02 0.102D-02-0.539D-02
 Coeff:     -0.188D-01-0.502D-01 0.299D+00 0.773D+00
 Gap=     0.372 Goal=   None    Shift=    0.000
 RMSDP=1.12D-08 MaxDP=1.55D-07 DE=-5.12D-13 OVMax= 1.63D-07

 Cycle  11  Pass 1  IDiag  1:
 E= -255.096689212839     Delta-E=       -0.000000000001 Rises=F Damp=F
 DIIS: error= 4.15D-09 at cycle  11 NSaved=  11.
 NSaved=11 IEnMin=11 EnMin= -255.096689212839     IErMin=11 ErrMin= 4.15D-09
 ErrMax= 4.15D-09  0.00D+00 EMaxC= 1.00D-01 BMatC= 2.31D-15 BMatP= 2.12D-14
 IDIUse=1 WtCom= 1.00D+00 WtEn= 0.00D+00
 Coeff-Com:  0.492D-05-0.203D-04-0.412D-04-0.282D-04 0.638D-03 0.193D-02
 Coeff-Com: -0.336D-02-0.336D-01-0.103D-01 0.223D+00 0.822D+00
 Coeff:      0.492D-05-0.203D-04-0.412D-04-0.282D-04 0.638D-03 0.193D-02
 Coeff:     -0.336D-02-0.336D-01-0.103D-01 0.223D+00 0.822D+00
 Gap=     0.372 Goal=   None    Shift=    0.000
 RMSDP=4.10D-09 MaxDP=6.42D-08 DE=-1.42D-12 OVMax= 4.21D-08

 SCF Done:  E(RwB97XD) =  -255.096689213     A.U. after   11 cycles
            NFock= 11  Conv=0.41D-08     -V/T= 2.0056
 KE= 2.536675475616D+02 PE=-9.106782658068D+02 EE= 2.454051936332D+02
 Leave Link  502 at Wed May 12 11:56:20 2021, MaxMem=  2147483648 cpu:        56.8
 (Enter /opt/cluster/programs/g09_d.01/g09/l701.exe)
 Compute integral first derivatives.
 ... and contract with generalized density number  0.
 R6Disp: Adding Grimme-D2 dispersion energy 1st derivatives to the gradient.
 Leave Link  701 at Wed May 12 11:56:20 2021, MaxMem=  2147483648 cpu:         0.7
 (Enter /opt/cluster/programs/g09_d.01/g09/l702.exe)
 L702 exits ... SP integral derivatives will be done elsewhere.
 Leave Link  702 at Wed May 12 11:56:20 2021, MaxMem=  2147483648 cpu:         0.2
 (Enter /opt/cluster/programs/g09_d.01/g09/l703.exe)
 Compute integral first derivatives, UseDBF=F ICtDFT=           0.
 Integral derivatives from FoFJK, PRISM(SPDF).
 Calling FoFJK, ICntrl=      2127 FMM=F ISym2X=0 I1Cent= 0 IOpClX= 0 NMat=1 NMatS=1 NMatT=0.
 FoFJK:  IHMeth= 1 ICntrl=    2127 DoSepK=T KAlg= 0 I1Cent=   0 FoldK=F
 IRaf=         1 NMat=   1 IRICut=       1 DoRegI=T DoRafI=F ISym2E= 0.
 FoFCou: FMM=F IPFlag=           0 FMFlag=      100000 FMFlg1=         800
         NFxFlg=           0 DoJE=F BraDBF=F KetDBF=F FulRan=T
         wScrn=  0.000000 ICntrl=    2527 IOpCl=  0 I1Cent=           0 NGrid=           0
         NMat0=    1 NMatS0=      1 NMatT0=    0 NMatD0=    1 NMtDS0=    0 NMtDT0=    0
 Symmetry not used in FoFCou.
 Leave Link  703 at Wed May 12 11:56:21 2021, MaxMem=  2147483648 cpu:         3.3
 (Enter /opt/cluster/programs/g09_d.01/g09/l716.exe)
 Dipole        =-6.72497234D-01 6.44754010D-01 1.72915757D-01
 ***** Axes restored to original set *****
 -------------------------------------------------------------------
 Center     Atomic                   Forces (Hartrees/Bohr)
 Number     Number              X              Y              Z
 -------------------------------------------------------------------
      1        6           0.001134298   -0.001138158   -0.003359632
      2        6          -0.002191018    0.000829938    0.006253280
      3        6           0.000385071    0.003204169   -0.005031655
      4        6           0.000428555   -0.002495763    0.002021354
      5        1          -0.000075170   -0.000056442   -0.000025257
      6        1          -0.000024085    0.000006742    0.000042336
      7        9           0.000259187   -0.000330550    0.000092686
      8        1           0.000017815    0.000079630    0.000031292
      9        1           0.000005014   -0.000053222   -0.000016035
     10        1           0.000060332   -0.000046344   -0.000008370
 -------------------------------------------------------------------
 Cartesian Forces:  Max     0.006253280 RMS     0.001869995
 Leave Link  716 at Wed May 12 11:56:21 2021, MaxMem=  2147483648 cpu:         0.2
 (Enter /opt/cluster/programs/g09_d.01/g09/l103.exe)

 GradGradGradGradGradGradGradGradGradGradGradGradGradGradGradGradGradGrad
 Berny optimization.
 Using GEDIIS/GDIIS optimizer.
 FormGI is forming the generalized inverse of G from B-inverse, IUseBI=4.
 Internal  Forces:  Max     0.003396924 RMS     0.000872171
 Search for a local minimum.
 Step number   3 out of a maximum of   43
 All quantities printed in internal units (Hartrees-Bohrs-Radians)
 RMS Force = .21107D-03 SwitMx=.10000D-02 MixMth= 2
 Mixed Optimization -- En-DIIS/RFO-DIIS
 Swapping is turned off.
 Update second derivatives using D2CorX and points    1    2    3
 DE= -1.95D-05 DEPred=-1.48D-05 R= 1.32D+00
[...]
 (Enter /opt/cluster/programs/g09_d.01/g09/l716.exe)
 Dipole        =-6.72034310D-01 6.41426636D-01 1.72900021D-01
 ***** Axes restored to original set *****
 -------------------------------------------------------------------
 Center     Atomic                   Forces (Hartrees/Bohr)
 Number     Number              X              Y              Z
 -------------------------------------------------------------------
      1        6           0.000947013   -0.000531416   -0.003441967
      2        6          -0.001331094   -0.000317572    0.006597030
      3        6           0.000135761    0.003336764   -0.005282341
      4        6           0.000255404   -0.002547620    0.002198233
      5        1          -0.000003575   -0.000018937    0.000010365
      6        1           0.000005149    0.000002028    0.000004886
      7        9          -0.000050728    0.000025675   -0.000029103
      8        1           0.000030747    0.000035024   -0.000022228
      9        1           0.000008134    0.000015876   -0.000028688
     10        1           0.000003188    0.000000178   -0.000006187
 -------------------------------------------------------------------
 Cartesian Forces:  Max     0.006597030 RMS     0.001905008
 Leave Link  716 at Wed May 12 11:56:25 2021, MaxMem=  2147483648 cpu:         0.2
 (Enter /opt/cluster/programs/g09_d.01/g09/l103.exe)

 GradGradGradGradGradGradGradGradGradGradGradGradGradGradGradGradGradGrad
 Berny optimization.
 Using GEDIIS/GDIIS optimizer.
 FormGI is forming the generalized inverse of G from B-inverse, IUseBI=4.
 Internal  Forces:  Max     0.003401171 RMS     0.000848772
 Search for a local minimum.
 Step number   4 out of a maximum of   43
 All quantities printed in internal units (Hartrees-Bohrs-Radians)
 RMS Force = .32612D-04 SwitMx=.10000D-02 MixMth= 2
 Mixed Optimization -- En-DIIS/RFO-DIIS
 Swapping is turned off.
 Update second derivatives using D2CorX and points    1    2    3    4
 DE= -3.46D-06 DEPred=-3.64D-06 R= 9.50D-01
 TightC=F SS=  1.41D+00  RLast= 7.45D-03 DXNew= 5.0454D-01 2.2350D-02
 Trust test= 9.50D-01 RLast= 7.45D-03 DXMaxT set to 3.00D-01
 ITU=  1  1  1  0
     Eigenvalues ---    0.01684   0.02111   0.02842   0.02913   0.02973
     Eigenvalues ---    0.02999   0.13668   0.15991   0.16001   0.16025
     Eigenvalues ---    0.16220   0.16632   0.22223   0.25105   0.34952
     Eigenvalues ---    0.35202   0.35337   0.35445   0.35621   0.35841
     Eigenvalues ---    0.37916   0.57755   0.661361000.000001000.00000
     Eigenvalues --- 1000.000001000.000001000.000001000.000001000.00000
     Eigenvalues --- 1000.000001000.000001000.00000
 En-DIIS/RFO-DIIS IScMMF=        0 using points:     4    3    2
 RFO step:  Lambda=-8.27772393D-07.
 NNeg= 0 NP= 3 Switch=  2.50D-03 Rises=F DC=  1.95D-05 SmlDif=  1.00D-05
 RMS Error=  0.8698699277D-04 NUsed= 3 EDIIS=F
 DidBck=F Rises=F RFO-DIIS coefs:    1.01550   -0.01192   -0.00358
 Iteration  1 RMS(Cart)=  0.00037609 RMS(Int)=  0.00000047
 Iteration  2 RMS(Cart)=  0.00000018 RMS(Int)=  0.00000043
 Iteration  1 RMS(Cart)=  0.00000019 RMS(Int)=  0.00000014
 ITry= 1 IFail=0 DXMaxC= 9.37D-04 DCOld= 1.00D+10 DXMaxT= 3.00D-01 DXLimC= 3.00D+00 Rises=F
 Variable       Old X    -DE/DX   Delta X   Delta X   Delta X     New X
                                 (Linear)    (Quad)   (Total)
    R1        2.51072   0.00004   0.00002   0.00006   0.00008   2.51080
    R2        2.04585   0.00000   0.00000   0.00001   0.00001   2.04586
    R3        2.04558   0.00001   0.00000   0.00001   0.00001   2.04559
    R4        2.77466  -0.00006   0.00004  -0.00016  -0.00013   2.77453
    R5        2.67531   0.00005  -0.00007   0.00010   0.00003   2.67534
    R6        2.52769   0.00006   0.00001   0.00009   0.00010   2.52779
    R7        2.05507   0.00001   0.00000   0.00004   0.00004   2.05511
    R8        2.05241   0.00000   0.00000   0.00001   0.00001   2.05242
    R9        2.04978   0.00000   0.00000   0.00001   0.00001   2.04979
    A1        2.11709   0.00004   0.00001   0.00024   0.00025   2.11733
    A2        2.09327  -0.00003  -0.00001  -0.00016  -0.00017   2.09310
    A3        2.07282  -0.00001   0.00000  -0.00008  -0.00008   2.07275
    A4        2.27011  -0.00004  -0.00009  -0.00032  -0.00041   2.26970
    A5        2.06344   0.00011   0.00005  -0.00001   0.00005   2.06349
    A6        1.94639   0.00005   0.00004   0.00034   0.00037   1.94676
    A7        2.15232   0.00007  -0.00002   0.00018   0.00016   2.15248
    A8        2.01893  -0.00002   0.00001   0.00008   0.00008   2.01902
    A9        2.11026   0.00004   0.00001  -0.00027  -0.00026   2.11000
   A10        2.12125   0.00002  -0.00001   0.00013   0.00012   2.12137
   A11        2.11731  -0.00001   0.00001  -0.00009  -0.00007   2.11723
   A12        2.04461  -0.00001   0.00000  -0.00004  -0.00004   2.04457
    D1        3.10444   0.00087   0.00003   0.00013   0.00016   3.10460
    D2        0.05743  -0.00087   0.00001  -0.00002  -0.00001   0.05743
    D3       -0.03926   0.00086   0.00004  -0.00025  -0.00021  -0.03947
    D4       -3.08626  -0.00088   0.00002  -0.00040  -0.00038  -3.08664
    D5        1.04739  -0.00340   0.00000   0.00000   0.00000   1.04739
    D6       -2.15578  -0.00175   0.00000  -0.00034  -0.00034  -2.15612
    D7       -2.18377  -0.00175   0.00002   0.00013   0.00015  -2.18362
    D8        0.89624  -0.00009   0.00003  -0.00021  -0.00018   0.89606
    D9       -0.00727   0.00090  -0.00001   0.00110   0.00109  -0.00618
   D10        3.13994   0.00086   0.00001  -0.00039  -0.00038   3.13956
   D11       -3.08417  -0.00083  -0.00001   0.00145   0.00143  -3.08274
   D12        0.06304  -0.00087   0.00001  -0.00005  -0.00004   0.06300
         Item               Value     Threshold  Converged?
 Maximum Force            0.000080     0.000450     YES
 RMS     Force            0.000033     0.000300     YES
 Maximum Displacement     0.000937     0.001800     YES
 RMS     Displacement     0.000376     0.001200     YES
 Predicted change in Energy=-1.214099D-07
 Optimization completed.
    -- Stationary point found.
                           ----------------------------
                           !   Optimized Parameters   !
                           ! (Angstroms and Degrees)  !
 --------------------------                            --------------------------
 ! Name  Definition              Value          Derivative Info.                !
 --------------------------------------------------------------------------------
 ! R1    R(1,2)                  1.3286         -DE/DX =    0.0                 !
 ! R2    R(1,5)                  1.0826         -DE/DX =    0.0                 !
 ! R3    R(1,6)                  1.0825         -DE/DX =    0.0                 !
 ! R4    R(2,3)                  1.4683         -DE/DX =   -0.0001              !
 ! R5    R(2,7)                  1.4157         -DE/DX =    0.0001              !
 ! R6    R(3,4)                  1.3376         -DE/DX =    0.0001              !
 ! R7    R(3,8)                  1.0875         -DE/DX =    0.0                 !
 ! R8    R(4,9)                  1.0861         -DE/DX =    0.0                 !
 ! R9    R(4,10)                 1.0847         -DE/DX =    0.0                 !
 ! A1    A(2,1,5)              121.3            -DE/DX =    0.0                 !
 ! A2    A(2,1,6)              119.9357         -DE/DX =    0.0                 !
 ! A3    A(5,1,6)              118.7641         -DE/DX =    0.0                 !
 ! A4    A(1,2,3)              130.0678         -DE/DX =    0.0                 !
 ! A5    A(1,2,7)              118.2264         -DE/DX =    0.0001              !
 ! A6    A(3,2,7)              111.52           -DE/DX =    0.0                 !
 ! A7    A(2,3,4)              123.319          -DE/DX =    0.0001              !
 ! A8    A(2,3,8)              115.6764         -DE/DX =    0.0                 !
 ! A9    A(4,3,8)              120.9092         -DE/DX =    0.0                 !
 ! A10   A(3,4,9)              121.5387         -DE/DX =    0.0                 !
 ! A11   A(3,4,10)             121.3128         -DE/DX =    0.0                 !
 ! A12   A(9,4,10)             117.1478         -DE/DX =    0.0                 !
 ! D1    D(5,1,2,3)            177.8713         -DE/DX =    0.0009              !
 ! D2    D(5,1,2,7)              3.2907         -DE/DX =   -0.0009              !
 ! D3    D(6,1,2,3)             -2.2492         -DE/DX =    0.0009              !
 ! D4    D(6,1,2,7)           -176.8298         -DE/DX =   -0.0009              !
 ! D5    D(1,2,3,4)             60.0111         -DE/DX =   -0.0034              !
 ! D6    D(1,2,3,8)           -123.5172         -DE/DX =   -0.0017              !
 ! D7    D(7,2,3,4)           -125.1209         -DE/DX =   -0.0017              !
 ! D8    D(7,2,3,8)             51.3508         -DE/DX =   -0.0001              !
 ! D9    D(2,3,4,9)             -0.4165         -DE/DX =    0.0009              !
 ! D10   D(2,3,4,10)           179.9052         -DE/DX =    0.0009              !
 ! D11   D(8,3,4,9)           -176.71           -DE/DX =   -0.0008              !
 ! D12   D(8,3,4,10)             3.6117         -DE/DX =   -0.0009              !
 --------------------------------------------------------------------------------
 Lowest energy point so far.  Saving SCF results.
 GradGradGradGradGradGradGradGradGradGradGradGradGradGradGradGradGradGrad

 Largest change from initial coordinates is atom    9       0.018 Angstoms.
 Leave Link  103 at Wed May 12 11:56:25 2021, MaxMem=  2147483648 cpu:         0.3
 (Enter /opt/cluster/programs/g09_d.01/g09/l202.exe)
                          Input orientation:                          
 ---------------------------------------------------------------------
 Center     Atomic      Atomic             Coordinates (Angstroms)
 Number     Number       Type             X           Y           Z
 ---------------------------------------------------------------------
      1          6           0       -1.040007   -1.253690    0.081061
      2          6           0       -0.469671   -0.053935    0.058151
      3          6           0        0.905032    0.345435    0.384585
      4          6           0        1.979423   -0.127274   -0.256809
      5          1           0       -2.087842   -1.382998   -0.158483
      6          1           0       -0.453697   -2.125646    0.341222
      7          9           0       -1.284731    1.069701   -0.219983
      8          1           0        1.004201    1.107530    1.154016
      9          1           0        1.887782   -0.849426   -1.062838
     10          1           0        2.981135    0.191579    0.010527
 ---------------------------------------------------------------------
                    Distance matrix (angstroms):
                    1          2          3          4          5
     1  C    0.000000
     2  C    1.328616   0.000000
     3  C    2.536239   1.468286   0.000000
     4  C    3.240360   2.470352   1.337594   0.000000
     5  H    1.082617   2.105188   3.498528   4.257835   0.000000
     6  H    1.082474   2.091021   2.820331   3.204872   1.863240
     7  F    2.355560   1.415711   2.384349   3.476896   2.581570
     8  H    3.302329   2.173066   1.087495   2.113345   4.181639
     9  H    3.169209   2.728920   2.118614   1.086087   4.111951
    10  H    4.273566   3.459856   2.115135   1.084695   5.310592
                    6          7          8          9         10
     6  H    0.000000
     7  F    3.349001   0.000000
     8  H    3.638615   2.669927   0.000000
     9  H    3.013742   3.802406   3.086233   0.000000
    10  H    4.156556   4.361404   2.460651   1.852357   0.000000
 Stoichiometry    C4H5F
 Framework group  C1[X(C4H5F)]
 Deg. of freedom    24
 Full point group                 C1      NOp   1
 RotChk:  IX=0 Diff= 1.11D-15
 Largest Abelian subgroup         C1      NOp   1
 Largest concise Abelian subgroup C1      NOp   1
                         Standard orientation:                         
 ---------------------------------------------------------------------
 Center     Atomic      Atomic             Coordinates (Angstroms)
 Number     Number       Type             X           Y           Z
 ---------------------------------------------------------------------
      1          6           0        1.037049    1.257319    0.084017
      2          6           0        0.469741    0.056104    0.062416
      3          6           0       -0.905344   -0.345629    0.384304
      4          6           0       -1.978177    0.122469   -0.263053
      5          1           0        2.085564    1.388458   -0.151522
      6          1           0        0.447524    2.128631    0.339020
      7          9           0        1.288702   -1.066380   -0.208823
      8          1           0       -1.005890   -1.105593    1.155660
      9          1           0       -1.884907    0.842360   -1.070915
     10          1           0       -2.980224   -0.198015    0.001056
 ---------------------------------------------------------------------
 Rotational constants (GHZ):      8.9726368      3.9413178      2.9329095
 Leave Link  202 at Wed May 12 11:56:25 2021, MaxMem=  2147483648 cpu:         0.0
 (Enter /opt/cluster/programs/g09_d.01/g09/l601.exe)
 Copying SCF densities to generalized density rwf, IOpCl= 0 IROHF=0.

 **********************************************************************

            Population analysis using the SCF density.

 **********************************************************************

 Orbital symmetries:
       Occupied  (A) (A) (A) (A) (A) (A) (A) (A) (A) (A) (A) (A)
                 (A) (A) (A) (A) (A) (A) (A)
       Virtual   (A) (A) (A) (A) (A) (A) (A) (A) (A) (A) (A) (A)
                 (A) (A) (A) (A) (A) (A) (A) (A) (A) (A) (A) (A)
                 (A) (A) (A) (A) (A) (A) (A) (A) (A) (A) (A) (A)
                 (A) (A) (A) (A) (A) (A) (A) (A) (A) (A) (A) (A)
                 (A) (A) (A) (A) (A) (A) (A) (A)
 The electronic state is 1-A.
 Alpha  occ. eigenvalues --  -24.82939 -10.40202 -10.33114 -10.32086 -10.30987
 Alpha  occ. eigenvalues --   -1.30840  -0.93068  -0.86016  -0.74163  -0.65310
 Alpha  occ. eigenvalues --   -0.61152  -0.57611  -0.56075  -0.52696  -0.50666
 Alpha  occ. eigenvalues --   -0.48497  -0.45300  -0.39270  -0.34293
 Alpha virt. eigenvalues --    0.02903   0.07052   0.07836   0.08543   0.09683
 Alpha virt. eigenvalues --    0.11207   0.12054   0.13303   0.13975   0.14811
 Alpha virt. eigenvalues --    0.16595   0.17446   0.18310   0.18908   0.19714
 Alpha virt. eigenvalues --    0.20024   0.22827   0.23925   0.25710   0.27802
 Alpha virt. eigenvalues --    0.29128   0.31326   0.32229   0.38906   0.41681
 Alpha virt. eigenvalues --    0.42712   0.45639   0.46221   0.47717   0.50372
 Alpha virt. eigenvalues --    0.51894   0.70520   0.71404   0.75066   0.77375
 Alpha virt. eigenvalues --    0.81165   0.82419   0.85210   0.89585   0.93356
 Alpha virt. eigenvalues --    0.97204   0.99982   1.04908   1.06704   1.13739
 Alpha virt. eigenvalues --    1.14397   1.15658   1.22606   1.25691   1.32215
 Alpha virt. eigenvalues --    1.39095   1.44339   1.67332   1.81659   1.85948
 Alpha virt. eigenvalues --    2.35758
          Condensed to atoms (all electrons):
               1          2          3          4          5          6
     1  C    6.350557  -0.152224  -0.405601   0.060121   0.397333   0.318225
     2  C   -0.152224   5.526660   0.314470   0.010994  -0.059100   0.007496
     3  C   -0.405601   0.314470   5.669036   0.335644   0.011398   0.005207
     4  C    0.060121   0.010994   0.335644   5.241725   0.000365   0.009109
     5  H    0.397333  -0.059100   0.011398   0.000365   0.455292  -0.019765
     6  H    0.318225   0.007496   0.005207   0.009109  -0.019765   0.463887
     7  F   -0.159763   0.284433  -0.137202  -0.018927  -0.002681   0.004082
     8  H    0.019526  -0.034932   0.307400   0.019759  -0.000083   0.000141
     9  H    0.010346   0.000823  -0.057600   0.390404  -0.000020   0.000109
    10  H    0.002142   0.008746  -0.038204   0.377076   0.000002  -0.000019
               7          8          9         10
     1  C   -0.159763   0.019526   0.010346   0.002142
     2  C    0.284433  -0.034932   0.000823   0.008746
     3  C   -0.137202   0.307400  -0.057600  -0.038204
     4  C   -0.018927   0.019759   0.390404   0.377076
     5  H   -0.002681  -0.000083  -0.000020   0.000002
     6  H    0.004082   0.000141   0.000109  -0.000019
     7  F    9.314524   0.000124   0.000417  -0.000276
     8  H    0.000124   0.458974   0.002579  -0.003096
     9  H    0.000417   0.002579   0.469910  -0.023267
    10  H   -0.000276  -0.003096  -0.023267   0.478012
 Mulliken charges:
               1
     1  C   -0.440662
     2  C    0.092635
     3  C   -0.004550
     4  C   -0.426270
     5  H    0.217260
     6  H    0.211528
     7  F   -0.284732
     8  H    0.229608
     9  H    0.206298
    10  H    0.198885
 Sum of Mulliken charges =   0.00000
 Mulliken charges with hydrogens summed into heavy atoms:
               1
     1  C   -0.011874
     2  C    0.092635
     3  C    0.225058
     4  C   -0.021087
     7  F   -0.284732
 Electronic spatial extent (au):  <R**2>=            431.6400
 Charge=              0.0000 electrons
 Dipole moment (field-independent basis, Debye):
    X=             -1.7081    Y=              1.6303    Z=              0.4395  Tot=              2.4019
 Quadrupole moment (field-independent basis, Debye-Ang):
   XX=            -27.8308   YY=            -29.8954   ZZ=            -30.6509
   XY=              3.0357   XZ=              0.2102   YZ=             -1.8986
 Traceless Quadrupole moment (field-independent basis, Debye-Ang):
   XX=              1.6283   YY=             -0.4364   ZZ=             -1.1919
   XY=              3.0357   XZ=              0.2102   YZ=             -1.8986
 Octapole moment (field-independent basis, Debye-Ang**2):
  XXX=              1.6740  YYY=             -2.0749  ZZZ=             -1.7059  XYY=              2.2744
  XXY=              1.5947  XXZ=             -1.7869  XZZ=              1.6221  YZZ=             -4.2886
  YYZ=              1.5551  XYZ=              1.7862
 Hexadecapole moment (field-independent basis, Debye-Ang**3):
 XXXX=           -312.4917 YYYY=           -149.7460 ZZZZ=            -52.8218 XXXY=              3.6612
 XXXZ=             -2.7579 YYYX=             -5.4993 YYYZ=              0.8404 ZZZX=             -1.9644
 ZZZY=             -2.2131 XXYY=            -85.5088 XXZZ=            -69.0697 YYZZ=            -34.9434
 XXYZ=             -5.9795 YYXZ=             -1.0215 ZZXY=             -4.6916
 N-N= 1.565110969626D+02 E-N=-9.106780243845D+02  KE= 2.536655658025D+02
 No NMR shielding tensors so no spin-rotation constants.
 Leave Link  601 at Wed May 12 11:56:26 2021, MaxMem=  2147483648 cpu:         0.6
 (Enter /opt/cluster/programs/g09_d.01/g09/l9999.exe)
 1\1\GINC-NODE11\FOpt\RwB97XD\6-31+G\C4H5F1\BOITTIER\12-May-2021\0\\#p 
 wB97XD/6-31+G Opt=ModRedun\\B.pdb\\0,1\C,-1.0400071343,-1.2536902781,0
 .0810611047\C,-0.4696706214,-0.0539349595,0.0581512671\C,0.9050316811,
 0.3454354228,0.38458534\C,1.979423376,-0.127273864,-0.256809379\H,-2.0
 878419542,-1.382998058,-0.1584830893\H,-0.4536965492,-2.1256458428,0.3
 412219642\F,-1.2847305359,1.0697010568,-0.2199825653\H,1.0042006069,1.
 1075295672,1.154015595\H,1.8877820105,-0.8494261722,-1.0628379838\H,2.
 9811351206,0.1915791275,0.0105267464\\Version=ES64L-G09RevD.01\State=1
 -A\HF=-255.0966927\RMSD=5.488e-09\RMSF=1.905e-03\Dipole=0.6697275,-0.6
 42527,0.1776987\Quadrupole=1.2228768,-0.326723,-0.8961538,2.2467696,-0
 .1508776,1.4196532\PG=C01 [X(C4H5F1)]\\@


 HE WHO LAUGHS LAST PROBABLY DIDN'T GET THE JOKE.
 Job cpu time:       0 days  0 hours  2 minutes  6.2 seconds.
 File lengths (MBytes):  RWF=      5 Int=      0 D2E=      0 Chk=      2 Scr=      1
 Normal termination of Gaussian 09 at Wed May 12 11:56:26 2021.
