B.pdb                                                                   
FOpt      RwB97XD                                                     6-31+G              
Number of atoms                            I               10
Info1-9                                    I   N=           9
          21          21           0           0           0         110
           2          18        -802
Charge                                     I                0
Multiplicity                               I                1
Number of electrons                        I               38
Number of alpha electrons                  I               19
Number of beta electrons                   I               19
Number of basis functions                  I               75
Number of independent functions            I               75
Number of point charges in /Mol/           I                0
Number of translation vectors              I                0
Atomic numbers                             I   N=          10
           6           6           6           6           1           1
           9           1           1           1
Nuclear charges                            R   N=          10
  6.00000000E+00  6.00000000E+00  6.00000000E+00  6.00000000E+00  1.00000000E+00
  1.00000000E+00  9.00000000E+00  1.00000000E+00  1.00000000E+00  1.00000000E+00
Current cartesian coordinates              R   N=          30
  1.95973801E+00  2.37598920E+00  1.58769017E-01  8.87682648E-01  1.06021985E-01
  1.17948507E-01 -1.71085232E+00 -6.53144404E-01  7.26230201E-01 -3.73821331E+00
  2.31432561E-01 -4.97098455E-01  3.94114409E+00  2.62380587E+00 -2.86335674E-01
  8.45697394E-01  4.02252968E+00  6.40655107E-01  2.43529461E+00 -2.01516655E+00
 -3.94617399E-01 -1.90085754E+00 -2.08926840E+00  2.18388155E+00 -3.56195787E+00
  1.59183034E+00 -2.02373646E+00 -5.63180781E+00 -3.74194586E-01  1.99645202E-03
Force Field                                I                0
Int Atom Types                             I   N=          10
           0           0           0           0           0           0
           0           0           0           0
MM charges                                 R   N=          10
  0.00000000E+00  0.00000000E+00  0.00000000E+00  0.00000000E+00  0.00000000E+00
  0.00000000E+00  0.00000000E+00  0.00000000E+00  0.00000000E+00  0.00000000E+00
Integer atomic weights                     I   N=          10
          12          12          12          12           1           1
          19           1           1           1
Real atomic weights                        R   N=          10
  1.20000000E+01  1.20000000E+01  1.20000000E+01  1.20000000E+01  1.00782504E+00
  1.00782504E+00  1.89984032E+01  1.00782504E+00  1.00782504E+00  1.00782504E+00
Atom fragment info                         I   N=          10
           0           0           0           0           0           0
           0           0           0           0
Atom residue num                           I   N=          10
           0           0           0           0           0           0
           0           0           0           0
Nuclear spins                              I   N=          10
           0           0           0           0           1           1
           1           1           1           1
Nuclear ZEff                               R   N=          10
 -3.60000000E+00 -3.60000000E+00 -3.60000000E+00 -3.60000000E+00 -1.00000000E+00
 -1.00000000E+00 -6.75000000E+00 -1.00000000E+00 -1.00000000E+00 -1.00000000E+00
Nuclear ZNuc                               R   N=          10
  6.00000000E+00  6.00000000E+00  6.00000000E+00  6.00000000E+00  1.00000000E+00
  1.00000000E+00  9.00000000E+00  1.00000000E+00  1.00000000E+00  1.00000000E+00
Nuclear QMom                               R   N=          10
  0.00000000E+00  0.00000000E+00  0.00000000E+00  0.00000000E+00  0.00000000E+00
  0.00000000E+00  0.00000000E+00  0.00000000E+00  0.00000000E+00  0.00000000E+00
Nuclear GFac                               R   N=          10
  0.00000000E+00  0.00000000E+00  0.00000000E+00  0.00000000E+00  2.79284600E+00
  2.79284600E+00  2.62886700E+00  2.79284600E+00  2.79284600E+00  2.79284600E+00
MicOpt                                     I   N=          10
          -1          -1          -1          -1          -1          -1
          -1          -1          -1          -1
Number of contracted shells                I               30
Number of primitive shells                 I               75
Pure/Cartesian d shells                    I                1
Pure/Cartesian f shells                    I                0
Highest angular momentum                   I                1
Largest degree of contraction              I                6
Shell types                                I   N=          30
           0          -1          -1          -1           0          -1
          -1          -1           0          -1          -1          -1
           0          -1          -1          -1           0           0
           0           0           0          -1          -1          -1
           0           0           0           0           0           0
Number of primitives per shell             I   N=          30
           6           3           1           1           6           3
           1           1           6           3           1           1
           6           3           1           1           3           1
           3           1           6           3           1           1
           3           1           3           1           3           1
Shell to atom map                          I   N=          30
           1           1           1           1           2           2
           2           2           3           3           3           3
           4           4           4           4           5           5
           6           6           7           7           7           7
           8           8           9           9          10          10
Primitive exponents                        R   N=          75
  3.04752488E+03  4.57369518E+02  1.03948685E+02  2.92101553E+01  9.28666296E+00
  3.16392696E+00  7.86827235E+00  1.88128854E+00  5.44249258E-01  1.68714478E-01
  4.38000000E-02  3.04752488E+03  4.57369518E+02  1.03948685E+02  2.92101553E+01
  9.28666296E+00  3.16392696E+00  7.86827235E+00  1.88128854E+00  5.44249258E-01
  1.68714478E-01  4.38000000E-02  3.04752488E+03  4.57369518E+02  1.03948685E+02
  2.92101553E+01  9.28666296E+00  3.16392696E+00  7.86827235E+00  1.88128854E+00
  5.44249258E-01  1.68714478E-01  4.38000000E-02  3.04752488E+03  4.57369518E+02
  1.03948685E+02  2.92101553E+01  9.28666296E+00  3.16392696E+00  7.86827235E+00
  1.88128854E+00  5.44249258E-01  1.68714478E-01  4.38000000E-02  1.87311370E+01
  2.82539436E+00  6.40121692E-01  1.61277759E-01  1.87311370E+01  2.82539436E+00
  6.40121692E-01  1.61277759E-01  7.00171309E+03  1.05136609E+03  2.39285690E+02
  6.73974453E+01  2.15199573E+01  7.40310130E+00  2.08479528E+01  4.80830834E+00
  1.34406986E+00  3.58151393E-01  1.07600000E-01  1.87311370E+01  2.82539436E+00
  6.40121692E-01  1.61277759E-01  1.87311370E+01  2.82539436E+00  6.40121692E-01
  1.61277759E-01  1.87311370E+01  2.82539436E+00  6.40121692E-01  1.61277759E-01
Contraction coefficients                   R   N=          75
  1.83473713E-03  1.40373228E-02  6.88426223E-02  2.32184443E-01  4.67941348E-01
  3.62311985E-01 -1.19332420E-01 -1.60854152E-01  1.14345644E+00  1.00000000E+00
  1.00000000E+00  1.83473713E-03  1.40373228E-02  6.88426223E-02  2.32184443E-01
  4.67941348E-01  3.62311985E-01 -1.19332420E-01 -1.60854152E-01  1.14345644E+00
  1.00000000E+00  1.00000000E+00  1.83473713E-03  1.40373228E-02  6.88426223E-02
  2.32184443E-01  4.67941348E-01  3.62311985E-01 -1.19332420E-01 -1.60854152E-01
  1.14345644E+00  1.00000000E+00  1.00000000E+00  1.83473713E-03  1.40373228E-02
  6.88426223E-02  2.32184443E-01  4.67941348E-01  3.62311985E-01 -1.19332420E-01
 -1.60854152E-01  1.14345644E+00  1.00000000E+00  1.00000000E+00  3.34946043E-02
  2.34726953E-01  8.13757326E-01  1.00000000E+00  3.34946043E-02  2.34726953E-01
  8.13757326E-01  1.00000000E+00  1.81961690E-03  1.39160796E-02  6.84053245E-02
  2.33185760E-01  4.71267439E-01  3.56618546E-01 -1.08506975E-01 -1.46451658E-01
  1.12868858E+00  1.00000000E+00  1.00000000E+00  3.34946043E-02  2.34726953E-01
  8.13757326E-01  1.00000000E+00  3.34946043E-02  2.34726953E-01  8.13757326E-01
  1.00000000E+00  3.34946043E-02  2.34726953E-01  8.13757326E-01  1.00000000E+00
P(S=P) Contraction coefficients            R   N=          75
  0.00000000E+00  0.00000000E+00  0.00000000E+00  0.00000000E+00  0.00000000E+00
  0.00000000E+00  6.89990666E-02  3.16423961E-01  7.44308291E-01  1.00000000E+00
  1.00000000E+00  0.00000000E+00  0.00000000E+00  0.00000000E+00  0.00000000E+00
  0.00000000E+00  0.00000000E+00  6.89990666E-02  3.16423961E-01  7.44308291E-01
  1.00000000E+00  1.00000000E+00  0.00000000E+00  0.00000000E+00  0.00000000E+00
  0.00000000E+00  0.00000000E+00  0.00000000E+00  6.89990666E-02  3.16423961E-01
  7.44308291E-01  1.00000000E+00  1.00000000E+00  0.00000000E+00  0.00000000E+00
  0.00000000E+00  0.00000000E+00  0.00000000E+00  0.00000000E+00  6.89990666E-02
  3.16423961E-01  7.44308291E-01  1.00000000E+00  1.00000000E+00  0.00000000E+00
  0.00000000E+00  0.00000000E+00  0.00000000E+00  0.00000000E+00  0.00000000E+00
  0.00000000E+00  0.00000000E+00  0.00000000E+00  0.00000000E+00  0.00000000E+00
  0.00000000E+00  0.00000000E+00  0.00000000E+00  7.16287242E-02  3.45912103E-01
  7.22469956E-01  1.00000000E+00  1.00000000E+00  0.00000000E+00  0.00000000E+00
  0.00000000E+00  0.00000000E+00  0.00000000E+00  0.00000000E+00  0.00000000E+00
  0.00000000E+00  0.00000000E+00  0.00000000E+00  0.00000000E+00  0.00000000E+00
Coordinates of each shell                  R   N=          90
  1.95973801E+00  2.37598920E+00  1.58769017E-01  1.95973801E+00  2.37598920E+00
  1.58769017E-01  1.95973801E+00  2.37598920E+00  1.58769017E-01  1.95973801E+00
  2.37598920E+00  1.58769017E-01  8.87682648E-01  1.06021985E-01  1.17948507E-01
  8.87682648E-01  1.06021985E-01  1.17948507E-01  8.87682648E-01  1.06021985E-01
  1.17948507E-01  8.87682648E-01  1.06021985E-01  1.17948507E-01 -1.71085232E+00
 -6.53144404E-01  7.26230201E-01 -1.71085232E+00 -6.53144404E-01  7.26230201E-01
 -1.71085232E+00 -6.53144404E-01  7.26230201E-01 -1.71085232E+00 -6.53144404E-01
  7.26230201E-01 -3.73821331E+00  2.31432561E-01 -4.97098455E-01 -3.73821331E+00
  2.31432561E-01 -4.97098455E-01 -3.73821331E+00  2.31432561E-01 -4.97098455E-01
 -3.73821331E+00  2.31432561E-01 -4.97098455E-01  3.94114409E+00  2.62380587E+00
 -2.86335674E-01  3.94114409E+00  2.62380587E+00 -2.86335674E-01  8.45697394E-01
  4.02252968E+00  6.40655107E-01  8.45697394E-01  4.02252968E+00  6.40655107E-01
  2.43529461E+00 -2.01516655E+00 -3.94617399E-01  2.43529461E+00 -2.01516655E+00
 -3.94617399E-01  2.43529461E+00 -2.01516655E+00 -3.94617399E-01  2.43529461E+00
 -2.01516655E+00 -3.94617399E-01 -1.90085754E+00 -2.08926840E+00  2.18388155E+00
 -1.90085754E+00 -2.08926840E+00  2.18388155E+00 -3.56195787E+00  1.59183034E+00
 -2.02373646E+00 -3.56195787E+00  1.59183034E+00 -2.02373646E+00 -5.63180781E+00
 -3.74194586E-01  1.99645202E-03 -5.63180781E+00 -3.74194586E-01  1.99645202E-03
Constraint Structure                       R   N=          30
  1.98682835E+00  2.37987526E+00  1.56032897E-01  8.81782050E-01  1.16520329E-01
  1.11938027E-01 -1.71341873E+00 -6.44762714E-01  7.17270220E-01 -3.76615052E+00
  2.35802965E-01 -4.87001222E-01  3.97297782E+00  2.60302494E+00 -2.86622222E-01
  8.97677578E-01  4.04646093E+00  6.31295239E-01  2.44009122E+00 -2.03189083E+00
 -3.89693554E-01 -1.89263508E+00 -2.10694015E+00  2.15406112E+00 -3.62179209E+00
  1.60972642E+00 -2.00593663E+00 -5.65129612E+00 -3.89869741E-01  2.50049556E-02
Num ILSW                                   I              100
ILSW                                       I   N=         100
           0           1           0           0           2           0
           0           0           0           0        4639          -1
           0           0           0           0           2           0
           0           0           0           0           1           0
           1           0           0           0           0           0
           0           0      100000           0          -1           0
           0           0           0           0           0           0
           0           0           0           1           0           0
           0           0           1           0           0           0
           0           0         121          41           0           0
           0           0          58           0           0           0
           0           0           0          10           0           0
           0           0           0           0           0           0
           0           0           0           0           0           0
           0           0           0           0           0           0
           0           0           0           0           0           0
           0           0           0           0
Num RLSW                                   I               41
RLSW                                       R   N=          41
  1.00000000E+00  1.00000000E+00  1.00000000E+00  1.00000000E+00  1.00000000E+00
  0.00000000E+00  2.00000000E-01  2.22036000E-01  0.00000000E+00  7.77964000E-01
  0.00000000E+00  2.00000000E-01  0.00000000E+00  0.00000000E+00  1.00000000E+00
  0.00000000E+00  0.00000000E+00  1.00000000E+00  0.00000000E+00  0.00000000E+00
  0.00000000E+00  0.00000000E+00  1.00000000E+00  0.00000000E+00  0.00000000E+00
  0.00000000E+00  0.00000000E+00  1.00000000E+00  0.00000000E+00  0.00000000E+00
  0.00000000E+00  0.00000000E+00  1.00000000E+00  0.00000000E+00  0.00000000E+00
  0.00000000E+00  0.00000000E+00  0.00000000E+00  1.00000000E+00  1.00000000E+00
  0.00000000E+00
MxBond                                     I                3
NBond                                      I   N=          10
           3           3           3           3           1           1
           1           1           1           1
IBond                                      I   N=          30
           2           5           6           1           3           7
           2           4           8           3           9          10
           1           0           0           1           0           0
           2           0           0           3           0           0
           4           0           0           4           0           0
RBond                                      R   N=          30
  2.00000000E+00  1.00000000E+00  1.00000000E+00  2.00000000E+00  1.00000000E+00
  1.00000000E+00  1.00000000E+00  2.00000000E+00  1.00000000E+00  2.00000000E+00
  1.00000000E+00  1.00000000E+00  1.00000000E+00  0.00000000E+00  0.00000000E+00
  1.00000000E+00  0.00000000E+00  0.00000000E+00  1.00000000E+00  0.00000000E+00
  0.00000000E+00  1.00000000E+00  0.00000000E+00  0.00000000E+00  1.00000000E+00
  0.00000000E+00  0.00000000E+00  1.00000000E+00  0.00000000E+00  0.00000000E+00
Virial Ratio                               R      2.005641786112148E+00
SCF Energy                                 R     -2.550966926687268E+02
Total Energy                               R     -2.550966926687268E+02
RMS Force                                  R      1.905008167072265E-03
RMS Density                                R      5.487544274486040E-09
External E-field                           R   N=          35
  0.00000000E+00  0.00000000E+00  0.00000000E+00  0.00000000E+00  0.00000000E+00
  0.00000000E+00  0.00000000E+00  0.00000000E+00  0.00000000E+00  0.00000000E+00
  0.00000000E+00  0.00000000E+00  0.00000000E+00  0.00000000E+00  0.00000000E+00
  0.00000000E+00  0.00000000E+00  0.00000000E+00  0.00000000E+00  0.00000000E+00
  0.00000000E+00  0.00000000E+00  0.00000000E+00  0.00000000E+00  0.00000000E+00
  0.00000000E+00  0.00000000E+00  0.00000000E+00  0.00000000E+00  0.00000000E+00
  0.00000000E+00  0.00000000E+00  0.00000000E+00  0.00000000E+00  0.00000000E+00
IOpCl                                      I                0
IROHF                                      I                0
Alpha Orbital Energies                     R   N=          75
 -2.48293898E+01 -1.04020177E+01 -1.03311447E+01 -1.03208561E+01 -1.03098743E+01
 -1.30840434E+00 -9.30681261E-01 -8.60160628E-01 -7.41630405E-01 -6.53101687E-01
 -6.11519942E-01 -5.76113497E-01 -5.60747272E-01 -5.26964509E-01 -5.06662707E-01
 -4.84971182E-01 -4.53001901E-01 -3.92702510E-01 -3.42925008E-01  2.90329894E-02
  7.05232358E-02  7.83602278E-02  8.54303824E-02  9.68296037E-02  1.12066783E-01
  1.20542108E-01  1.33034653E-01  1.39749275E-01  1.48110372E-01  1.65948280E-01
  1.74455892E-01  1.83101465E-01  1.89082506E-01  1.97141325E-01  2.00242641E-01
  2.28273955E-01  2.39252857E-01  2.57100992E-01  2.78019623E-01  2.91278868E-01
  3.13257673E-01  3.22287893E-01  3.89064466E-01  4.16813422E-01  4.27124753E-01
  4.56388366E-01  4.62208616E-01  4.77169823E-01  5.03716538E-01  5.18939868E-01
  7.05197747E-01  7.14038841E-01  7.50655378E-01  7.73752353E-01  8.11648931E-01
  8.24188443E-01  8.52098536E-01  8.95852352E-01  9.33560315E-01  9.72036517E-01
  9.99820183E-01  1.04908199E+00  1.06704030E+00  1.13738826E+00  1.14396932E+00
  1.15657701E+00  1.22606327E+00  1.25690556E+00  1.32215348E+00  1.39094645E+00
  1.44339225E+00  1.67332048E+00  1.81658598E+00  1.85948032E+00  2.35758475E+00
Alpha MO coefficients                      R   N=        5625
  5.68475105E-06 -1.25985796E-04  1.12652391E-04  4.16641541E-05 -2.37366266E-05
  8.80540161E-04 -2.69590919E-03  1.19563765E-03  6.43708096E-04  1.18583927E-02
 -1.23273901E-03 -2.95975792E-03  4.35711876E-04 -2.47562979E-05  3.67410991E-04
  2.88303120E-04 -4.59369542E-04 -1.32192105E-04  4.53638843E-04  2.53883631E-03
 -2.58823066E-03 -5.11552735E-04 -2.60425316E-02  3.58615405E-04  6.40023839E-04
 -1.46573012E-03 -6.24708251E-06 -2.30411706E-04 -2.73742437E-05  6.78450269E-06
  3.71570982E-05  1.51235576E-03 -6.34110699E-04  1.52125229E-03 -3.73612310E-04
 -3.85869348E-03  6.62912488E-03 -1.44658606E-03  2.29370979E-03 -3.55037405E-06
 -4.07775963E-05 -1.02183303E-04 -1.07027282E-06 -4.65980946E-05 -1.09828494E-03
  4.90150000E-05 -2.46315526E-06 -3.55034918E-04  1.46927781E-02  2.85370841E-03
 -1.48799018E-03  1.45751731E-03  3.14167881E-04  8.85303335E-04 -2.58926232E-04
 -1.61006457E-03  9.95027078E-01  2.75953793E-02 -7.42632315E-04  1.01791527E-03
  2.58091558E-04 -1.53773448E-02  1.23578945E-03 -1.71818123E-03 -4.36078403E-04
  8.80465937E-03 -8.34615917E-04  9.37392542E-04  2.24654376E-04  1.26931156E-04
  3.92297790E-04 -1.94241012E-07  1.28022887E-05  5.44038725E-05  1.76509718E-04
  4.77037035E-03 -1.16980552E-03  4.68836698E-04  7.62393363E-04 -9.41953684E-06
  8.67980180E-03 -3.12106606E-03 -2.89860294E-03  4.59565330E-04 -1.74484235E-02
  2.56712952E-03  4.46989278E-03 -7.99802276E-04  9.95498455E-01  3.63474698E-02
  7.20569328E-04 -8.64395239E-04 -1.15504995E-04 -3.56318182E-02  2.56986964E-04
 -4.48010596E-04 -6.80171714E-04  4.98886366E-02 -7.21178049E-03  9.57879079E-04
  4.19690588E-03  2.06091649E-03 -3.69322844E-04 -5.15268572E-04 -1.80841252E-04
  6.85654645E-05  4.38327699E-03  3.90380484E-03  1.28399256E-03  2.64410026E-05
 -5.00708722E-03 -1.52005466E-02  5.63783822E-04 -2.91591321E-03 -1.42238203E-04
 -5.81802353E-04 -1.85369717E-04  1.83179188E-05  4.20303087E-05  1.65836189E-03
  1.20582475E-03 -3.82468515E-04  4.49739611E-05 -2.64963426E-02 -4.67728754E-03
  2.66793383E-03 -3.06423853E-03 -4.94476193E-05  4.87061943E-04 -2.83885345E-04
 -1.15070504E-03  3.99868914E-05  6.77116565E-04 -3.19771893E-05  8.37616468E-05
  5.41497100E-06 -7.14843211E-04  4.20044871E-04 -7.48248832E-04 -9.30606046E-05
  6.71296293E-03 -2.48690893E-03  4.05486019E-03  8.82282891E-04 -1.48237191E-04
  9.89194216E-05 -2.52795182E-04  2.72970994E-04 -2.96182687E-05  1.01003657E-03
 -5.25188842E-04 -4.79062216E-04  1.30004283E-04  6.97537771E-05 -6.52703065E-05
  1.45014418E-03  9.00970604E-04 -1.01659479E-03 -5.40191070E-05 -2.39195135E-02
  2.53728033E-03  5.36890050E-03 -1.57445834E-03 -1.96771535E-03 -4.68194420E-04
  6.66758339E-04  2.29106569E-04 -1.70732080E-04  5.37523114E-03 -6.89856452E-03
 -3.74546794E-04  1.01708410E-03 -1.83450323E-03  9.87523838E-03  7.53842393E-03
  2.75570363E-03  9.94564714E-01  3.64822814E-02  1.97454570E-04  2.91066132E-04
 -4.07863760E-04 -3.60464458E-02 -1.60423799E-03 -3.44994364E-03  3.74798285E-03
  7.52205070E-02 -3.94593192E-03  8.81238527E-03 -1.24154928E-02  4.11293524E-02
  1.94068148E-04 -7.24862763E-04  3.24838605E-04 -4.26992326E-04  8.50524260E-03
  4.82204327E-03 -5.93043450E-04  1.13273317E-03 -4.75875554E-02 -9.61210921E-03
  3.48220064E-03 -4.64527461E-03 -1.32160532E-04 -7.98726177E-05 -3.84314029E-05
  4.21840222E-04 -3.77813219E-06 -2.08030213E-04  1.17751982E-04 -1.24423742E-04
 -4.98882276E-05  3.11844554E-04 -2.54611153E-04  7.28266654E-04  2.29009927E-04
  2.28118706E-03 -5.40565887E-04  5.29144163E-04 -3.77029952E-05 -6.48079648E-04
  2.60080448E-03 -3.55552078E-04 -8.42496606E-04 -1.30626874E-04  1.15423080E-03
 -5.05069969E-04 -1.34379282E-04 -7.87727912E-05 -1.81795174E-05  4.81815464E-05
  1.18117203E-04  1.57028671E-03  1.96879596E-04 -4.63128185E-04 -2.69118442E-02
  2.75302846E-03  5.45755243E-03 -8.45419635E-06  1.20104233E-04 -5.28500981E-04
  1.58895773E-04 -3.96502364E-05  3.85918625E-06  2.06753922E-03 -1.06934490E-03
  3.38266831E-04  6.63394738E-04 -1.35458261E-02  1.35565891E-02  1.15331359E-02
 -1.38385052E-03 -4.13701332E-02 -2.66950622E-03  9.19822591E-04 -4.89358033E-04
  6.39362771E-04  9.34298904E-03 -5.43680143E-03  1.95204994E-03 -3.00066280E-03
  1.38587962E-02  1.75797417E-02  7.49042341E-04 -1.73448044E-03  9.94480413E-01
  3.54130142E-02  4.43654569E-04 -1.38875320E-04  2.83678133E-04 -3.14126388E-02
 -3.53807190E-03  1.50624671E-03 -2.07892277E-03  2.78863131E-02  6.04023693E-03
 -3.35139443E-03  5.29808073E-03 -1.46194402E-04 -7.69448233E-04  4.82996358E-05
  6.27637575E-04 -2.50424120E-06 -2.09479115E-05 -1.91431123E-05 -1.59867017E-05
 -1.35341198E-05  1.43724384E-04  2.11043001E-05  1.29556033E-04  3.34652211E-05
  5.82424913E-04  6.39159455E-05 -2.39771641E-04  3.68576983E-05 -3.17407859E-05
 -5.88428699E-05 -6.16440769E-04  3.68595822E-03 -7.07264265E-04  4.10044233E-03
  9.95296415E-01  3.56614052E-02 -4.07329487E-04 -6.09866504E-04 -2.03812486E-05
 -3.26676431E-02  2.57745524E-03  4.48979697E-03 -1.40531646E-05  1.81321043E-02
 -1.10346624E-03 -6.42537701E-03 -9.07814617E-04 -5.05135138E-03 -1.51466852E-03
 -5.62462754E-04 -1.18702461E-03  1.15154276E-05  9.22337478E-03  3.59158795E-03
  7.00343568E-03  8.02341939E-05  1.92720143E-02 -1.40633901E-02 -4.08761607E-03
  3.89077807E-03  4.22669219E-04 -4.18743837E-04 -1.06721732E-04 -1.68806923E-04
  8.48073604E-05  2.31965810E-03  9.73934865E-04  3.81592580E-04 -1.29535391E-03
 -1.75911759E-02 -1.27204852E-02 -1.70516555E-03 -1.68428820E-03  5.22177229E-04
 -9.57583278E-05  8.07595331E-05  3.61937948E-06 -3.22725351E-05 -1.86714856E-05
 -1.62001333E-03 -3.03704338E-04  4.19553572E-04 -1.83305488E-02 -3.91217935E-03
  1.56747068E-03 -1.63951738E-03 -7.19794183E-04  3.91301313E-03 -5.98232155E-04
  3.91457723E-03 -2.11676340E-06 -1.66799415E-04  7.09486531E-05 -1.13317834E-04
 -1.76764620E-05  2.33360477E-04 -4.84043227E-04  2.36427684E-04  7.09477117E-05
  3.68031801E-04  1.69761983E-04 -3.66454752E-04  9.04606829E-05 -8.13337292E-06
  8.06531480E-04  6.17027465E-05  3.55040208E-04 -1.43888798E-04 -7.69707048E-04
 -9.77181961E-03  1.93766233E-02 -3.09804164E-03 -1.63178186E-02 -1.06507094E-03
 -4.45987986E-03  3.14252583E-02 -1.18823095E-02 -7.68037130E-03 -1.19340734E-01
  1.80342132E-02  2.55430862E-02 -1.95385124E-03 -5.89813194E-02  1.15470721E-01
  5.61155566E-02 -7.53351690E-02 -1.74238923E-02  3.03690627E-02 -3.53472232E-02
  3.57292126E-02  9.28269803E-03  2.12720852E-01 -8.98704314E-03  1.57525304E-02
  7.46760154E-03 -8.88223554E-03  1.75005297E-02  1.37083852E-02 -9.82652174E-04
 -3.64724931E-03 -7.20016733E-03  4.94959518E-03 -1.74595706E-02  1.68124627E-03
 -4.84848424E-02 -2.64264692E-02 -2.19213958E-03 -2.34100867E-03 -1.00579243E-03
  3.30024713E-03  2.76409553E-03 -4.75808909E-04  6.16869201E-04  9.32671839E-03
 -3.61706796E-03 -3.62691671E-04  4.45019641E-03 -2.87212336E-02 -6.62055667E-03
  4.25076171E-03 -2.07323443E-03  8.62831962E-04 -1.19663798E-02  3.35301253E-03
  1.67785928E-02 -2.25714051E-01  4.78733301E-01 -5.67254060E-02  7.72325451E-02
  1.94840533E-02  5.44543842E-01 -4.48920575E-02  6.13957462E-02  1.57048304E-02
 -1.32772646E-02  8.55513202E-03 -9.98286040E-03 -2.37801767E-03  1.69741134E-03
 -3.48051552E-03  1.07910319E-03 -1.31052830E-03 -2.18002940E-04 -5.01624700E-03
 -8.63644160E-02  1.66678806E-01 -4.60476384E-02 -6.35898690E-02  1.83477328E-03
  1.21115876E-01  5.04157615E-05 -8.58869254E-03 -1.58599060E-03  8.72484472E-02
 -6.05683066E-03 -2.21488086E-02  2.49203328E-03 -1.21681659E-01  2.44254338E-01
 -5.97430092E-02  6.06639405E-02  2.03851637E-02  1.75333821E-01 -2.66086283E-02
 -4.56008876E-03  3.33293581E-03 -5.18377791E-02 -2.75616042E-02 -1.78334811E-02
 -5.69576869E-03 -1.38920088E-01  2.70732982E-01  5.09093609E-03  4.51447582E-02
 -4.41544313E-02  1.76662440E-01 -1.49389341E-03  1.08410070E-03  2.76846018E-03
 -1.19181191E-01  8.16173871E-03 -1.81792551E-02  2.21403906E-02 -9.87622256E-02
  1.90389920E-01  7.32644225E-02 -2.27078765E-02  3.61916681E-02  1.33343211E-01
  6.69595044E-03  2.47120538E-03 -3.71203388E-04  8.38920331E-02  1.86899434E-02
 -4.38074883E-03  7.64709775E-03  3.55552717E-02 -2.64725011E-04  4.50435760E-02
  1.09445713E-02  4.56696989E-02 -1.03021583E-01 -3.63025147E-02  4.23933863E-02
  1.17017828E-02 -1.27401484E-01 -1.51393638E-02  2.02212266E-02  4.81273824E-03
 -1.88667985E-02  8.67683412E-03 -4.65729481E-03 -8.10537174E-04  6.44771163E-02
  5.64495513E-03  4.87494404E-02  4.93320604E-03  4.39046110E-02  5.93226733E-03
 -1.40433201E-01  2.71488513E-01 -3.10863445E-02 -7.90060416E-02 -1.71313977E-03
  2.17024005E-01 -3.28739178E-03 -6.51575669E-04 -5.69689891E-04 -1.08529143E-01
  7.15425760E-03  2.20324048E-02  2.41510017E-03 -8.71241136E-02  1.81219649E-01
  1.04341674E-01  1.40953218E-01  6.41335163E-04  1.18864072E-01  2.36380499E-02
  9.75004005E-03  3.37215055E-03 -7.53810376E-02  6.48115457E-02  5.68516916E-02
 -1.22995584E-02  8.63831195E-02 -1.70849882E-01  1.06570560E-01 -5.68999482E-03
  3.54183624E-02 -1.17861980E-01  1.21229157E-02  1.77168319E-02 -9.92674083E-03
  1.06469637E-01  8.00181203E-02  2.05667130E-03 -7.77430335E-03  1.15473858E-01
 -2.23941689E-01 -4.75078586E-02  3.02263729E-02 -3.63196248E-02 -1.91891365E-01
 -7.16509546E-03 -1.60968270E-03 -5.86436329E-05  7.66459386E-02  9.65973370E-03
 -9.20986441E-03  1.54889707E-02  8.01175360E-02  1.52835209E-02  7.71260975E-02
  1.07664421E-02  2.91672290E-02 -6.63718331E-02 -5.08353679E-03  6.68821003E-02
  8.78669786E-03 -8.60025759E-02 -2.79957753E-03  3.37986884E-02  4.19105395E-03
 -1.56603176E-02  3.77530232E-03 -4.06978085E-03 -2.34841496E-03 -5.11054412E-02
 -2.51296771E-03 -6.09078158E-02 -6.53416788E-03 -6.84551654E-02 -1.60915856E-02
 -8.75495454E-02  1.70665930E-01  3.40624791E-02  2.96139190E-02 -1.16468424E-02
  1.51380221E-01  1.08597716E-02  1.55678133E-02 -3.14365098E-03 -3.55148219E-02
 -6.21051762E-04  1.27316926E-02 -3.10935267E-03  7.04830483E-02 -1.51388581E-01
  1.51668201E-01  1.54090410E-01 -4.40843808E-02 -1.44903004E-01  4.14664783E-02
  4.52853585E-02 -1.26877429E-02  5.87780985E-02  1.47957542E-02  8.86296041E-04
  8.79615073E-03  7.14964679E-02 -1.46603257E-01 -2.03087639E-01  4.41052028E-02
 -4.86567797E-02 -1.29436383E-01 -4.12298602E-02  2.32372556E-02 -2.16895801E-02
  1.34713937E-01 -5.61209317E-02  2.01583248E-02 -2.61507935E-02 -1.18604795E-01
  2.35990927E-01 -5.96680846E-02  1.72712786E-02 -1.75807522E-02  2.15479453E-01
 -2.63037760E-02  5.83484465E-03 -6.01091557E-03 -1.51304677E-01 -2.76421118E-02
  1.43745194E-02 -1.97425761E-02  8.70184059E-02  3.11125022E-02  7.33928475E-02
  2.52735088E-02 -3.16589291E-02  7.29937233E-02  1.32018971E-01 -4.92052470E-02
 -4.25827805E-02  9.58941144E-02  7.20322124E-02 -2.37686455E-02 -2.31616772E-02
  3.18245248E-02 -4.31149619E-03  6.17316721E-03  1.23881022E-03 -7.71457849E-02
 -2.10798086E-02  1.05377926E-01  4.04473455E-02  1.14991339E-01  3.98691819E-02
  6.18122187E-02 -1.21255844E-01 -1.17067874E-02 -1.69195508E-01 -2.79907356E-02
 -1.55097133E-01  1.69823441E-02 -5.32601513E-02 -1.44617568E-02 -1.58742024E-01
  2.02214360E-02  1.75690656E-02 -3.64386712E-04 -7.71354237E-02  1.71513483E-01
  1.25001515E-01 -7.75001806E-02 -6.34053052E-02  1.73370840E-01  1.89589247E-02
 -1.07554189E-02 -1.42244959E-02  1.70985143E-01  3.22874545E-03  6.80202730E-02
  1.54639933E-03  7.55449431E-02 -1.51578361E-01  4.93798490E-02  6.03887647E-02
 -8.83310224E-02 -1.68133732E-01  3.48931507E-03  2.28657059E-02 -4.18810760E-02
  1.10742889E-02  4.37391184E-03 -1.27131144E-02 -1.02600071E-02 -5.39826669E-02
  1.09421342E-01 -8.80631421E-02  7.56781929E-02 -1.05538713E-01  1.20599093E-01
 -3.36431131E-02  2.24148605E-02 -3.33314871E-02 -2.40840201E-02 -1.63817521E-02
  5.81964064E-03 -1.84007996E-03 -7.46632829E-02 -4.08114692E-02 -1.25536951E-01
 -5.30273868E-02  4.50793707E-02 -1.06405449E-01 -1.59369012E-01  2.80621963E-01
  3.71225890E-02 -1.30546963E-01 -9.21913406E-02  1.66083979E-01  2.10635109E-02
 -5.46683026E-02  1.38782879E-03 -4.03954254E-03 -1.04270962E-03 -1.25205619E-01
 -5.04964118E-02  1.10319872E-01  5.05860516E-02  6.93177352E-02  2.83399998E-02