 Entering Gaussian System, Link 0=/opt/cluster/programs/g09_d.01/g09//g09
 Input=/home/unibas/boittier/RDKit_G2/N.pdb/SCAN_1_2_6_8_S_17_20.0/0_SCAN_1_2_6_8_F/0_SCAN_N.pdb.com
 Output=/scratch/boittier/0_SCAN_N.pdb/0_SCAN_N.pdb.out
 Initial command:
 /opt/cluster/programs/g09_d.01/g09/l1.exe "/scratch/boittier/0_SCAN_N.pdb/Gau-182561.inp" -scrdir="/scratch/boittier/0_SCAN_N.pdb/"
 Entering Link 1 = /opt/cluster/programs/g09_d.01/g09/l1.exe PID=    182565.
  
 Copyright (c) 1988,1990,1992,1993,1995,1998,2003,2009,2013,
            Gaussian, Inc.  All Rights Reserved.
  
 This is part of the Gaussian(R) 09 program.  It is based on
 the Gaussian(R) 03 system (copyright 2003, Gaussian, Inc.),
 the Gaussian(R) 98 system (copyright 1998, Gaussian, Inc.),
 the Gaussian(R) 94 system (copyright 1995, Gaussian, Inc.),
 the Gaussian 92(TM) system (copyright 1992, Gaussian, Inc.),
 the Gaussian 90(TM) system (copyright 1990, Gaussian, Inc.),
 the Gaussian 88(TM) system (copyright 1988, Gaussian, Inc.),
 the Gaussian 86(TM) system (copyright 1986, Carnegie Mellon
 University), and the Gaussian 82(TM) system (copyright 1983,
 Carnegie Mellon University). Gaussian is a federally registered
 trademark of Gaussian, Inc.
  
 This software contains proprietary and confidential information,
 including trade secrets, belonging to Gaussian, Inc.
  
 This software is provided under written license and may be
 used, copied, transmitted, or stored only in accord with that
 written license.
  
 The following legend is applicable only to US Government
 contracts under FAR:
  
                    RESTRICTED RIGHTS LEGEND
  
 Use, reproduction and disclosure by the US Government is
 subject to restrictions as set forth in subparagraphs (a)
 and (c) of the Commercial Computer Software - Restricted
 Rights clause in FAR 52.227-19.
  
 Gaussian, Inc.
 340 Quinnipiac St., Bldg. 40, Wallingford CT 06492
  
  
 ---------------------------------------------------------------
 Warning -- This program may not be used in any manner that
 competes with the business of Gaussian, Inc. or will provide
 assistance to any competitor of Gaussian, Inc.  The licensee
 of this program is prohibited from giving any competitor of
 Gaussian, Inc. access to this program.  By using this program,
 the user acknowledges that Gaussian, Inc. is engaged in the
 business of creating and licensing software in the field of
 computational chemistry and represents and warrants to the
 licensee that it is not a competitor of Gaussian, Inc. and that
 it will not use this program in any manner prohibited above.
 ---------------------------------------------------------------
  

 Cite this work as:
 Gaussian 09, Revision D.01,
 M. J. Frisch, G. W. Trucks, H. B. Schlegel, G. E. Scuseria, 
 M. A. Robb, J. R. Cheeseman, G. Scalmani, V. Barone, B. Mennucci, 
 G. A. Petersson, H. Nakatsuji, M. Caricato, X. Li, H. P. Hratchian, 
 A. F. Izmaylov, J. Bloino, G. Zheng, J. L. Sonnenberg, M. Hada, 
 M. Ehara, K. Toyota, R. Fukuda, J. Hasegawa, M. Ishida, T. Nakajima, 
 Y. Honda, O. Kitao, H. Nakai, T. Vreven, J. A. Montgomery, Jr., 
 J. E. Peralta, F. Ogliaro, M. Bearpark, J. J. Heyd, E. Brothers, 
 K. N. Kudin, V. N. Staroverov, T. Keith, R. Kobayashi, J. Normand, 
 K. Raghavachari, A. Rendell, J. C. Burant, S. S. Iyengar, J. Tomasi, 
 M. Cossi, N. Rega, J. M. Millam, M. Klene, J. E. Knox, J. B. Cross, 
 V. Bakken, C. Adamo, J. Jaramillo, R. Gomperts, R. E. Stratmann, 
 O. Yazyev, A. J. Austin, R. Cammi, C. Pomelli, J. W. Ochterski, 
 R. L. Martin, K. Morokuma, V. G. Zakrzewski, G. A. Voth, 
 P. Salvador, J. J. Dannenberg, S. Dapprich, A. D. Daniels, 
 O. Farkas, J. B. Foresman, J. V. Ortiz, J. Cioslowski, 
 and D. J. Fox, Gaussian, Inc., Wallingford CT, 2013.
 
 ******************************************
 Gaussian 09:  ES64L-G09RevD.01 24-Apr-2013
                26-May-2021 
 ******************************************
 %chk=/home/unibas/boittier/RDKit_G2/N.pdb/SCAN_1_2_6_8_S_17_20.0/0_SCAN_1_2_6_8_
 F/N.pdb.chk
 %nproc=8
 Will use up to    8 processors via shared memory.
 %mem=16GB
 -----------------------------
 #p wB97XD/6-31+G Opt=ModRedun
 -----------------------------
 1/14=-1,18=120,19=15,26=3,38=1/1,3;
 2/9=110,12=2,17=6,18=5,40=1/2;
 3/5=1,6=6,7=10,11=2,16=1,25=1,30=1,71=1,74=-58/1,2,3;
 4//1;
 5/5=2,38=5/2;
 6/7=2,8=2,9=2,10=2,28=1/1;
 7//1,2,3,16;
 1/14=-1,18=20,19=15,26=3/3(2);
 2/9=110/2;
 99//99;
 2/9=110/2;
 3/5=1,6=6,7=10,11=2,16=1,25=1,30=1,71=1,74=-58/1,2,3;
 4/5=5,16=3,69=1/1;
 5/5=2,38=5/2;
 7//1,2,3,16;
 1/14=-1,18=20,19=15,26=3/3(-5);
 2/9=110/2;
 6/7=2,8=2,9=2,10=2,19=2,28=1/1;
 99/9=1/99;
 Leave Link    1 at Wed May 26 09:20:45 2021, MaxMem=  2147483648 cpu:         0.2
 (Enter /opt/cluster/programs/g09_d.01/g09/l101.exe)
 -----
 N.pdb
 -----
 Symbolic Z-matrix:
 Charge =  0 Multiplicity = 1
 C                     2.08746   1.13994  -0.03725 
 C                     1.48845  -0.22024   0.17849 
 H                     1.42466   1.76344  -0.64646 
 H                     3.0537    1.04049  -0.5326 
 H                     2.21957   1.65129   0.92351 
 C                     0.13771  -0.30545   0.8961 
 O                     2.05917  -1.26032  -0.15698 
 C                    -1.04142  -0.00392   0.01171 
 H                     0.10291   0.39474   1.73546 
 H                     0.01507  -1.32358   1.27167 
 F                    -1.04493   1.31817  -0.43944 
 F                    -2.24031  -0.19005   0.69168 
 F                    -1.08392  -0.80655  -1.1178 
 
 The following ModRedundant input section has been read:
 D       1       2       6       8 F                                           
 
 NAtoms=     13 NQM=       13 NQMF=       0 NMMI=      0 NMMIF=      0
                NMic=       0 NMicF=      0.
                    Isotopes and Nuclear Properties:
 (Nuclear quadrupole moments (NQMom) in fm**2, nuclear magnetic moments (NMagM)
  in nuclear magnetons)

  Atom         1           2           3           4           5           6           7           8           9          10
 IAtWgt=          12          12           1           1           1          12          16          12           1           1
 AtmWgt=  12.0000000  12.0000000   1.0078250   1.0078250   1.0078250  12.0000000  15.9949146  12.0000000   1.0078250   1.0078250
 NucSpn=           0           0           1           1           1           0           0           0           1           1
 AtZEff=   0.0000000   0.0000000   0.0000000   0.0000000   0.0000000   0.0000000   0.0000000   0.0000000   0.0000000   0.0000000
 NQMom=    0.0000000   0.0000000   0.0000000   0.0000000   0.0000000   0.0000000   0.0000000   0.0000000   0.0000000   0.0000000
 NMagM=    0.0000000   0.0000000   2.7928460   2.7928460   2.7928460   0.0000000   0.0000000   0.0000000   2.7928460   2.7928460
 AtZNuc=   6.0000000   6.0000000   1.0000000   1.0000000   1.0000000   6.0000000   8.0000000   6.0000000   1.0000000   1.0000000

  Atom        11          12          13
 IAtWgt=          19          19          19
 AtmWgt=  18.9984033  18.9984033  18.9984033
 NucSpn=           1           1           1
 AtZEff=   0.0000000   0.0000000   0.0000000
 NQMom=    0.0000000   0.0000000   0.0000000
 NMagM=    2.6288670   2.6288670   2.6288670
 AtZNuc=   9.0000000   9.0000000   9.0000000
 Leave Link  101 at Wed May 26 09:20:47 2021, MaxMem=  2147483648 cpu:         4.2
 (Enter /opt/cluster/programs/g09_d.01/g09/l103.exe)

 GradGradGradGradGradGradGradGradGradGradGradGradGradGradGradGradGradGrad
 Berny optimization.
 Initialization pass.
                           ----------------------------
                           !    Initial Parameters    !
                           ! (Angstroms and Degrees)  !
 --------------------------                            --------------------------
 ! Name  Definition              Value          Derivative Info.                !
 --------------------------------------------------------------------------------
 ! R1    R(1,2)                  1.5018         estimate D2E/DX2                !
 ! R2    R(1,3)                  1.0951         estimate D2E/DX2                !
 ! R3    R(1,4)                  1.0904         estimate D2E/DX2                !
 ! R4    R(1,5)                  1.0963         estimate D2E/DX2                !
 ! R5    R(2,6)                  1.5319         estimate D2E/DX2                !
 ! R6    R(2,7)                  1.2329         estimate D2E/DX2                !
 ! R7    R(6,8)                  1.5045         estimate D2E/DX2                !
 ! R8    R(6,9)                  1.0936         estimate D2E/DX2                !
 ! R9    R(6,10)                 1.0921         estimate D2E/DX2                !
 ! R10   R(8,11)                 1.3969         estimate D2E/DX2                !
 ! R11   R(8,12)                 1.3908         estimate D2E/DX2                !
 ! R12   R(8,13)                 1.3863         estimate D2E/DX2                !
 ! A1    A(2,1,3)              110.7425         estimate D2E/DX2                !
 ! A2    A(2,1,4)              109.6397         estimate D2E/DX2                !
 ! A3    A(2,1,5)              110.1574         estimate D2E/DX2                !
 ! A4    A(3,1,4)              109.6062         estimate D2E/DX2                !
 ! A5    A(3,1,5)              107.1511         estimate D2E/DX2                !
 ! A6    A(4,1,5)              109.5043         estimate D2E/DX2                !
 ! A7    A(1,2,6)              117.9925         estimate D2E/DX2                !
 ! A8    A(1,2,7)              122.7056         estimate D2E/DX2                !
 ! A9    A(6,2,7)              119.256          estimate D2E/DX2                !
 ! A10   A(2,6,8)              113.8628         estimate D2E/DX2                !
 ! A11   A(2,6,9)              110.6089         estimate D2E/DX2                !
 ! A12   A(2,6,10)             108.1781         estimate D2E/DX2                !
 ! A13   A(8,6,9)              107.3323         estimate D2E/DX2                !
 ! A14   A(8,6,10)             107.5169         estimate D2E/DX2                !
 ! A15   A(9,6,10)             109.2301         estimate D2E/DX2                !
 ! A16   A(6,8,11)             112.4265         estimate D2E/DX2                !
 ! A17   A(6,8,12)             111.1851         estimate D2E/DX2                !
 ! A18   A(6,8,13)             112.7644         estimate D2E/DX2                !
 ! A19   A(11,8,12)            106.4026         estimate D2E/DX2                !
 ! A20   A(11,8,13)            106.5437         estimate D2E/DX2                !
 ! A21   A(12,8,13)            107.1232         estimate D2E/DX2                !
 ! D1    D(3,1,2,6)            -60.4197         estimate D2E/DX2                !
 ! D2    D(3,1,2,7)            122.0656         estimate D2E/DX2                !
 ! D3    D(4,1,2,6)            178.5076         estimate D2E/DX2                !
 ! D4    D(4,1,2,7)              0.9928         estimate D2E/DX2                !
 ! D5    D(5,1,2,6)             57.9349         estimate D2E/DX2                !
 ! D6    D(5,1,2,7)           -119.5798         estimate D2E/DX2                !
 ! D7    D(1,2,6,8)             79.7833         Frozen                          !
 ! D8    D(1,2,6,9)            -41.173          estimate D2E/DX2                !
 ! D9    D(1,2,6,10)          -160.7667         estimate D2E/DX2                !
 ! D10   D(7,2,6,8)           -102.6136         estimate D2E/DX2                !
 ! D11   D(7,2,6,9)            136.4301         estimate D2E/DX2                !
 ! D12   D(7,2,6,10)            16.8364         estimate D2E/DX2                !
 ! D13   D(2,6,8,11)           -65.0912         estimate D2E/DX2                !
 ! D14   D(2,6,8,12)           175.7265         estimate D2E/DX2                !
 ! D15   D(2,6,8,13)            55.3897         estimate D2E/DX2                !
 ! D16   D(9,6,8,11)            57.6775         estimate D2E/DX2                !
 ! D17   D(9,6,8,12)           -61.5047         estimate D2E/DX2                !
 ! D18   D(9,6,8,13)           178.1585         estimate D2E/DX2                !
 ! D19   D(10,6,8,11)          175.0845         estimate D2E/DX2                !
 ! D20   D(10,6,8,12)           55.9023         estimate D2E/DX2                !
 ! D21   D(10,6,8,13)          -64.4345         estimate D2E/DX2                !
 --------------------------------------------------------------------------------
 Trust Radius=3.00D-01 FncErr=1.00D-07 GrdErr=1.00D-06
 Number of steps in this run=     64 maximum allowed number of steps=    100.
 GradGradGradGradGradGradGradGradGradGradGradGradGradGradGradGradGradGrad

 Leave Link  103 at Wed May 26 09:20:47 2021, MaxMem=  2147483648 cpu:         0.1
 (Enter /opt/cluster/programs/g09_d.01/g09/l202.exe)
                          Input orientation:                          
 ---------------------------------------------------------------------
 Center     Atomic      Atomic             Coordinates (Angstroms)
 Number     Number       Type             X           Y           Z
 ---------------------------------------------------------------------
      1          6           0        2.087463    1.139941   -0.037246
      2          6           0        1.488448   -0.220242    0.178487
      3          1           0        1.424659    1.763440   -0.646459
      4          1           0        3.053701    1.040486   -0.532598
      5          1           0        2.219571    1.651285    0.923509
      6          6           0        0.137713   -0.305445    0.896097
      7          8           0        2.059172   -1.260316   -0.156976
      8          6           0       -1.041420   -0.003915    0.011707
      9          1           0        0.102910    0.394740    1.735459
     10          1           0        0.015067   -1.323576    1.271668
     11          9           0       -1.044933    1.318171   -0.439437
     12          9           0       -2.240312   -0.190052    0.691679
     13          9           0       -1.083923   -0.806551   -1.117802
 ---------------------------------------------------------------------
                    Distance matrix (angstroms):
                    1          2          3          4          5
     1  C    0.000000
     2  C    1.501818   0.000000
     3  H    1.095080   2.149325   0.000000
     4  H    1.090358   2.131923   1.785890   0.000000
     5  H    1.096346   2.142945   1.763310   1.785804   0.000000
     6  C    2.600345   1.531897   2.883747   3.515066   2.857215
     7  O    2.403408   1.232889   3.128147   2.534535   3.109758
     8  C    3.331773   2.544572   3.104557   4.261110   3.768970
     9  H    2.763378   2.173035   3.048589   3.777332   2.591992
    10  H    3.475197   2.140851   3.898183   4.251760   3.718985
    11  F    3.163136   3.027633   2.517937   4.109086   3.553248
    12  F    4.585831   3.764031   4.363342   5.571324   4.830613
    13  F    3.874806   2.939595   3.622154   4.568801   4.595757
                    6          7          8          9         10
     6  C    0.000000
     7  O    2.390135   0.000000
     8  C    1.504467   3.349727   0.000000
     9  H    1.093617   3.185511   2.107069   0.000000
    10  H    1.092102   2.494672   2.108358   1.781973   0.000000
    11  F    2.412143   4.045225   1.396945   2.626869   3.321191
    12  F    2.389583   4.511235   1.390809   2.630997   2.589980
    13  F    2.408172   3.317851   1.386298   3.315535   2.680422
                   11         12         13
    11  F    0.000000
    12  F    2.232284   0.000000
    13  F    2.230727   2.234173   0.000000
 Stoichiometry    C4H5F3O
 Framework group  C1[X(C4H5F3O)]
 Deg. of freedom    33
 Full point group                 C1      NOp   1
 Largest Abelian subgroup         C1      NOp   1
 Largest concise Abelian subgroup C1      NOp   1
                         Standard orientation:                         
 ---------------------------------------------------------------------
 Center     Atomic      Atomic             Coordinates (Angstroms)
 Number     Number       Type             X           Y           Z
 ---------------------------------------------------------------------
      1          6           0        2.087463    1.139941   -0.037246
      2          6           0        1.488448   -0.220242    0.178487
      3          1           0        1.424659    1.763440   -0.646459
      4          1           0        3.053701    1.040486   -0.532598
      5          1           0        2.219571    1.651285    0.923509
      6          6           0        0.137713   -0.305445    0.896097
      7          8           0        2.059172   -1.260316   -0.156976
      8          6           0       -1.041420   -0.003915    0.011707
      9          1           0        0.102910    0.394740    1.735459
     10          1           0        0.015067   -1.323576    1.271668
     11          9           0       -1.044933    1.318171   -0.439437
     12          9           0       -2.240312   -0.190052    0.691679
     13          9           0       -1.083923   -0.806551   -1.117802
 ---------------------------------------------------------------------
 Rotational constants (GHZ):      3.3646974      1.3761446      1.2284275
 Leave Link  202 at Wed May 26 09:20:47 2021, MaxMem=  2147483648 cpu:         0.0
 (Enter /opt/cluster/programs/g09_d.01/g09/l301.exe)
 Standard basis: 6-31+G (6D, 7F)
 Ernie: Thresh=  0.10000D-02 Tol=  0.10000D-05 Strict=F.
 There are   114 symmetry adapted cartesian basis functions of A   symmetry.
 There are   114 symmetry adapted basis functions of A   symmetry.
   114 basis functions,   228 primitive gaussians,   114 cartesian basis functions
    32 alpha electrons       32 beta electrons
       nuclear repulsion energy       404.3797073384 Hartrees.
 IExCor= 4639 DFT=T Ex+Corr=wB97XD ExCW=0 ScaHFX=  1.000000
 ScaDFX=  1.000000  1.000000  1.000000  1.000000 ScalE2=  1.000000  1.000000
 IRadAn=      0 IRanWt=     -1 IRanGd=            0 ICorTp=0 IEmpDi=121
  HFx wShort=  0.000000 wLong=  0.200000 cFull=  0.222036 cShort=  0.000000 cLong=  0.777964
  DFx wShort=  0.000000 wLong=  0.200000 cFull=  0.000000 cShort=  0.000000 cLong=  1.000000
 NAtoms=   13 NActive=   13 NUniq=   13 SFac= 1.00D+00 NAtFMM=   60 NAOKFM=F Big=F
 Integral buffers will be    131072 words long.
 Raffenetti 2 integral format.
 Two-electron integral symmetry is turned on.
 R6Disp:  Grimme-D2 Dispersion energy=       -0.0060326651 Hartrees.
 Nuclear repulsion after empirical dispersion term =      404.3736746733 Hartrees.
 Leave Link  301 at Wed May 26 09:20:47 2021, MaxMem=  2147483648 cpu:         0.3
 (Enter /opt/cluster/programs/g09_d.01/g09/l302.exe)
 NPDir=0 NMtPBC=     1 NCelOv=     1 NCel=       1 NClECP=     1 NCelD=      1
         NCelK=      1 NCelE2=     1 NClLst=     1 CellRange=     0.0.
 One-electron integrals computed using PRISM.
 NBasis=   114 RedAO= T EigKep=  9.66D-05  NBF=   114
 NBsUse=   114 1.00D-06 EigRej= -1.00D+00 NBFU=   114
 Precomputing XC quadrature grid using
 IXCGrd= 4 IRadAn=           0 IRanWt=          -1 IRanGd=           0 AccXCQ= 0.00D+00.
 Generated NRdTot=       0 NPtTot=           0 NUsed=           0 NTot=          32
 NSgBfM=   114   114   114   114   114 MxSgAt=    13 MxSgA2=    13.
 Leave Link  302 at Wed May 26 09:20:47 2021, MaxMem=  2147483648 cpu:         1.0
 (Enter /opt/cluster/programs/g09_d.01/g09/l303.exe)
 DipDrv:  MaxL=1.
 Leave Link  303 at Wed May 26 09:20:47 2021, MaxMem=  2147483648 cpu:         0.3
 (Enter /opt/cluster/programs/g09_d.01/g09/l401.exe)
 ExpMin= 4.38D-02 ExpMax= 7.00D+03 ExpMxC= 1.05D+03 IAcc=2 IRadAn=         4 AccDes= 0.00D+00
 Harris functional with IExCor= 4639 and IRadAn=       4 diagonalized for initial guess.
 HarFok:  IExCor= 4639 AccDes= 0.00D+00 IRadAn=         4 IDoV= 1 UseB2=F ITyADJ=14
 ICtDFT=  3500011 ScaDFX=  1.000000  1.000000  1.000000  1.000000
 FoFCou: FMM=F IPFlag=           0 FMFlag=      100000 FMFlg1=           0
         NFxFlg=           0 DoJE=T BraDBF=F KetDBF=T FulRan=T
         wScrn=  0.000000 ICntrl=     500 IOpCl=  0 I1Cent=   200000004 NGrid=           0
         NMat0=    1 NMatS0=      1 NMatT0=    0 NMatD0=    1 NMtDS0=    0 NMtDT0=    0
 Petite list used in FoFCou.
 Harris En= -511.190879585651    
 JPrj=0 DoOrth=F DoCkMO=F.
 Leave Link  401 at Wed May 26 09:20:47 2021, MaxMem=  2147483648 cpu:         2.1
 (Enter /opt/cluster/programs/g09_d.01/g09/l502.exe)
 Closed shell SCF:
 Using DIIS extrapolation, IDIIS=  1040.
 Integral symmetry usage will be decided dynamically.
 Keep R1 ints in memory in canonical form, NReq=43969700.
 IVT=       59316 IEndB=       59316 NGot=  2147483648 MDV=  2104449753
 LenX=  2104449753 LenY=  2104436316
 Requested convergence on RMS density matrix=1.00D-08 within 128 cycles.
 Requested convergence on MAX density matrix=1.00D-06.
 Requested convergence on             energy=1.00D-06.
 No special actions if energy rises.
 FoFCou: FMM=F IPFlag=           0 FMFlag=           0 FMFlg1=           0
         NFxFlg=           0 DoJE=F BraDBF=F KetDBF=F FulRan=T
         wScrn=  0.000000 ICntrl=     600 IOpCl=  0 I1Cent=           0 NGrid=           0
         NMat0=    1 NMatS0=   6555 NMatT0=    0 NMatD0=    1 NMtDS0=    0 NMtDT0=    0
 Symmetry not used in FoFCou.

 Cycle   1  Pass 1  IDiag  1:
 E= -529.579077476305    
 DIIS: error= 6.97D-02 at cycle   1 NSaved=   1.
 NSaved= 1 IEnMin= 1 EnMin= -529.579077476305     IErMin= 1 ErrMin= 6.97D-02
 ErrMax= 6.97D-02  0.00D+00 EMaxC= 1.00D-01 BMatC= 5.32D-01 BMatP= 5.32D-01
 IDIUse=3 WtCom= 3.03D-01 WtEn= 6.97D-01
 Coeff-Com:  0.100D+01
 Coeff-En:   0.100D+01
 Coeff:      0.100D+01
 Gap=     0.416 Goal=   None    Shift=    0.000
 GapD=    0.416 DampG=2.000 DampE=0.500 DampFc=1.0000 IDamp=-1.
 RMSDP=2.06D-02 MaxDP=8.50D-01              OVMax= 1.32D-01

 Cycle   2  Pass 1  IDiag  1:
 E= -529.730459879281     Delta-E=       -0.151382402976 Rises=F Damp=F
 DIIS: error= 5.84D-02 at cycle   2 NSaved=   2.
 NSaved= 2 IEnMin= 2 EnMin= -529.730459879281     IErMin= 2 ErrMin= 5.84D-02
 ErrMax= 5.84D-02  0.00D+00 EMaxC= 1.00D-01 BMatC= 3.18D-01 BMatP= 5.32D-01
 IDIUse=3 WtCom= 4.16D-01 WtEn= 5.84D-01
 Coeff-Com:  0.430D+00 0.570D+00
 Coeff-En:   0.324D+00 0.676D+00
 Coeff:      0.368D+00 0.632D+00
 Gap=     0.537 Goal=   None    Shift=    0.000
 RMSDP=4.06D-03 MaxDP=7.58D-02 DE=-1.51D-01 OVMax= 5.82D-02

 Cycle   3  Pass 1  IDiag  1:
 E= -529.909018685068     Delta-E=       -0.178558805787 Rises=F Damp=F
 DIIS: error= 1.36D-02 at cycle   3 NSaved=   3.
 NSaved= 3 IEnMin= 3 EnMin= -529.909018685068     IErMin= 3 ErrMin= 1.36D-02
 ErrMax= 1.36D-02  0.00D+00 EMaxC= 1.00D-01 BMatC= 2.46D-02 BMatP= 3.18D-01
 IDIUse=3 WtCom= 8.64D-01 WtEn= 1.36D-01
 Coeff-Com:  0.969D-01 0.261D+00 0.642D+00
 Coeff-En:   0.000D+00 0.000D+00 0.100D+01
 Coeff:      0.837D-01 0.226D+00 0.691D+00
 Gap=     0.385 Goal=   None    Shift=    0.000
 RMSDP=4.03D-03 MaxDP=1.39D-01 DE=-1.79D-01 OVMax= 3.38D-02

 Cycle   4  Pass 1  IDiag  1:
 E= -529.923047592760     Delta-E=       -0.014028907692 Rises=F Damp=F
 DIIS: error= 4.34D-03 at cycle   4 NSaved=   4.
 NSaved= 4 IEnMin= 4 EnMin= -529.923047592760     IErMin= 4 ErrMin= 4.34D-03
 ErrMax= 4.34D-03  0.00D+00 EMaxC= 1.00D-01 BMatC= 3.96D-03 BMatP= 2.46D-02
 IDIUse=3 WtCom= 9.57D-01 WtEn= 4.34D-02
 Coeff-Com: -0.525D-02 0.252D-01 0.333D+00 0.647D+00
 Coeff-En:   0.000D+00 0.000D+00 0.109D+00 0.891D+00
 Coeff:     -0.503D-02 0.241D-01 0.323D+00 0.658D+00
 Gap=     0.375 Goal=   None    Shift=    0.000
 RMSDP=8.22D-04 MaxDP=1.25D-02 DE=-1.40D-02 OVMax= 1.79D-02

 Cycle   5  Pass 1  IDiag  1:
 E= -529.925829080712     Delta-E=       -0.002781487952 Rises=F Damp=F
 DIIS: error= 1.24D-03 at cycle   5 NSaved=   5.
 NSaved= 5 IEnMin= 5 EnMin= -529.925829080712     IErMin= 5 ErrMin= 1.24D-03
 ErrMax= 1.24D-03  0.00D+00 EMaxC= 1.00D-01 BMatC= 2.94D-04 BMatP= 3.96D-03
 IDIUse=3 WtCom= 9.88D-01 WtEn= 1.24D-02
 Coeff-Com: -0.904D-02-0.270D-02 0.152D+00 0.378D+00 0.481D+00
 Coeff-En:   0.000D+00 0.000D+00 0.000D+00 0.000D+00 0.100D+01
 Coeff:     -0.893D-02-0.266D-02 0.151D+00 0.374D+00 0.487D+00
 Gap=     0.378 Goal=   None    Shift=    0.000
 RMSDP=6.65D-04 MaxDP=2.56D-02 DE=-2.78D-03 OVMax= 4.78D-03

 Cycle   6  Pass 1  IDiag  1:
 E= -529.926042573364     Delta-E=       -0.000213492652 Rises=F Damp=F
 DIIS: error= 2.02D-04 at cycle   6 NSaved=   6.
 NSaved= 6 IEnMin= 6 EnMin= -529.926042573364     IErMin= 6 ErrMin= 2.02D-04
 ErrMax= 2.02D-04  0.00D+00 EMaxC= 1.00D-01 BMatC= 6.95D-06 BMatP= 2.94D-04
 IDIUse=3 WtCom= 9.98D-01 WtEn= 2.02D-03
 Coeff-Com: -0.107D-02-0.461D-02-0.933D-02-0.127D-02 0.115D+00 0.901D+00
 Coeff-En:   0.000D+00 0.000D+00 0.000D+00 0.000D+00 0.000D+00 0.100D+01
 Coeff:     -0.107D-02-0.460D-02-0.931D-02-0.127D-02 0.115D+00 0.901D+00
 Gap=     0.378 Goal=   None    Shift=    0.000
 RMSDP=1.72D-04 MaxDP=5.98D-03 DE=-2.13D-04 OVMax= 1.46D-03

 Cycle   7  Pass 1  IDiag  1:
 E= -529.926051259647     Delta-E=       -0.000008686283 Rises=F Damp=F
 DIIS: error= 5.66D-05 at cycle   7 NSaved=   7.
 NSaved= 7 IEnMin= 7 EnMin= -529.926051259647     IErMin= 7 ErrMin= 5.66D-05
 ErrMax= 5.66D-05  0.00D+00 EMaxC= 1.00D-01 BMatC= 6.68D-07 BMatP= 6.95D-06
 IDIUse=1 WtCom= 1.00D+00 WtEn= 0.00D+00
 Coeff-Com:  0.413D-03-0.160D-02-0.173D-01-0.332D-01-0.106D-01 0.303D+00
 Coeff-Com:  0.759D+00
 Coeff:      0.413D-03-0.160D-02-0.173D-01-0.332D-01-0.106D-01 0.303D+00
 Coeff:      0.759D+00
 Gap=     0.378 Goal=   None    Shift=    0.000
 RMSDP=6.17D-05 MaxDP=2.21D-03 DE=-8.69D-06 OVMax= 3.71D-04

 Cycle   8  Pass 1  IDiag  1:
 E= -529.926052186404     Delta-E=       -0.000000926757 Rises=F Damp=F
 DIIS: error= 1.86D-05 at cycle   8 NSaved=   8.
 NSaved= 8 IEnMin= 8 EnMin= -529.926052186404     IErMin= 8 ErrMin= 1.86D-05
 ErrMax= 1.86D-05  0.00D+00 EMaxC= 1.00D-01 BMatC= 2.75D-08 BMatP= 6.68D-07
 IDIUse=1 WtCom= 1.00D+00 WtEn= 0.00D+00
 Coeff-Com:  0.890D-04 0.178D-03-0.534D-03-0.146D-02-0.120D-01-0.377D-01
 Coeff-Com:  0.538D-01 0.998D+00
 Coeff:      0.890D-04 0.178D-03-0.534D-03-0.146D-02-0.120D-01-0.377D-01
 Coeff:      0.538D-01 0.998D+00
 Gap=     0.378 Goal=   None    Shift=    0.000
 RMSDP=1.61D-05 MaxDP=5.22D-04 DE=-9.27D-07 OVMax= 1.96D-04

 Cycle   9  Pass 1  IDiag  1:
 E= -529.926052256127     Delta-E=       -0.000000069723 Rises=F Damp=F
 DIIS: error= 8.09D-06 at cycle   9 NSaved=   9.
 NSaved= 9 IEnMin= 9 EnMin= -529.926052256127     IErMin= 9 ErrMin= 8.09D-06
 ErrMax= 8.09D-06  0.00D+00 EMaxC= 1.00D-01 BMatC= 6.21D-09 BMatP= 2.75D-08
 IDIUse=1 WtCom= 1.00D+00 WtEn= 0.00D+00
 Coeff-Com:  0.283D-06 0.207D-03 0.127D-02 0.239D-02-0.414D-02-0.394D-01
 Coeff-Com: -0.396D-01 0.381D+00 0.698D+00
 Coeff:      0.283D-06 0.207D-03 0.127D-02 0.239D-02-0.414D-02-0.394D-01
 Coeff:     -0.396D-01 0.381D+00 0.698D+00
 Gap=     0.378 Goal=   None    Shift=    0.000
 RMSDP=2.67D-06 MaxDP=6.07D-05 DE=-6.97D-08 OVMax= 7.56D-05

 Cycle  10  Pass 1  IDiag  1:
 E= -529.926052267962     Delta-E=       -0.000000011835 Rises=F Damp=F
 DIIS: error= 4.85D-06 at cycle  10 NSaved=  10.
 NSaved=10 IEnMin=10 EnMin= -529.926052267962     IErMin=10 ErrMin= 4.85D-06
 ErrMax= 4.85D-06  0.00D+00 EMaxC= 1.00D-01 BMatC= 1.37D-09 BMatP= 6.21D-09
 IDIUse=1 WtCom= 1.00D+00 WtEn= 0.00D+00
 Coeff-Com: -0.235D-04 0.307D-04 0.637D-03 0.139D-02 0.172D-02-0.372D-02
 Coeff-Com: -0.293D-01-0.141D+00 0.263D+00 0.907D+00
 Coeff:     -0.235D-04 0.307D-04 0.637D-03 0.139D-02 0.172D-02-0.372D-02
 Coeff:     -0.293D-01-0.141D+00 0.263D+00 0.907D+00
 Gap=     0.378 Goal=   None    Shift=    0.000
 RMSDP=1.75D-06 MaxDP=3.16D-05 DE=-1.18D-08 OVMax= 7.01D-05

 Cycle  11  Pass 1  IDiag  1:
 E= -529.926052272986     Delta-E=       -0.000000005024 Rises=F Damp=F
 DIIS: error= 2.04D-06 at cycle  11 NSaved=  11.
 NSaved=11 IEnMin=11 EnMin= -529.926052272986     IErMin=11 ErrMin= 2.04D-06
 ErrMax= 2.04D-06  0.00D+00 EMaxC= 1.00D-01 BMatC= 1.25D-10 BMatP= 1.37D-09
 IDIUse=1 WtCom= 1.00D+00 WtEn= 0.00D+00
 Coeff-Com:  0.272D-05-0.343D-04-0.255D-03-0.499D-03 0.536D-03 0.655D-02
 Coeff-Com:  0.725D-02-0.502D-01-0.128D+00-0.774D-01 0.124D+01
 Coeff:      0.272D-05-0.343D-04-0.255D-03-0.499D-03 0.536D-03 0.655D-02
 Coeff:      0.725D-02-0.502D-01-0.128D+00-0.774D-01 0.124D+01
 Gap=     0.378 Goal=   None    Shift=    0.000
 RMSDP=9.27D-07 MaxDP=1.85D-05 DE=-5.02D-09 OVMax= 4.22D-05

 Cycle  12  Pass 1  IDiag  1:
 E= -529.926052274061     Delta-E=       -0.000000001075 Rises=F Damp=F
 DIIS: error= 5.59D-07 at cycle  12 NSaved=  12.
 NSaved=12 IEnMin=12 EnMin= -529.926052274061     IErMin=12 ErrMin= 5.59D-07
 ErrMax= 5.59D-07  0.00D+00 EMaxC= 1.00D-01 BMatC= 2.52D-11 BMatP= 1.25D-10
 IDIUse=1 WtCom= 1.00D+00 WtEn= 0.00D+00
 Coeff-Com:  0.313D-05-0.144D-04-0.150D-03-0.318D-03-0.568D-04 0.201D-02
 Coeff-Com:  0.584D-02 0.107D-01-0.715D-01-0.164D+00 0.332D+00 0.886D+00
 Coeff:      0.313D-05-0.144D-04-0.150D-03-0.318D-03-0.568D-04 0.201D-02
 Coeff:      0.584D-02 0.107D-01-0.715D-01-0.164D+00 0.332D+00 0.886D+00
 Gap=     0.378 Goal=   None    Shift=    0.000
 RMSDP=2.89D-07 MaxDP=5.39D-06 DE=-1.07D-09 OVMax= 1.23D-05

 Cycle  13  Pass 1  IDiag  1:
 E= -529.926052274155     Delta-E=       -0.000000000094 Rises=F Damp=F
 DIIS: error= 1.47D-07 at cycle  13 NSaved=  13.
 NSaved=13 IEnMin=13 EnMin= -529.926052274155     IErMin=13 ErrMin= 1.47D-07
 ErrMax= 1.47D-07  0.00D+00 EMaxC= 1.00D-01 BMatC= 2.00D-12 BMatP= 2.52D-11
 IDIUse=1 WtCom= 1.00D+00 WtEn= 0.00D+00
 Coeff-Com: -0.370D-06 0.378D-05 0.309D-04 0.541D-04-0.403D-04-0.884D-03
 Coeff-Com: -0.852D-03 0.699D-02 0.151D-01 0.777D-02-0.159D+00-0.158D-01
 Coeff-Com:  0.115D+01
 Coeff:     -0.370D-06 0.378D-05 0.309D-04 0.541D-04-0.403D-04-0.884D-03
 Coeff:     -0.852D-03 0.699D-02 0.151D-01 0.777D-02-0.159D+00-0.158D-01
 Coeff:      0.115D+01
 Gap=     0.378 Goal=   None    Shift=    0.000
 RMSDP=1.11D-07 MaxDP=1.84D-06 DE=-9.41D-11 OVMax= 3.90D-06

 Cycle  14  Pass 1  IDiag  1:
 E= -529.926052274172     Delta-E=       -0.000000000017 Rises=F Damp=F
 DIIS: error= 1.64D-08 at cycle  14 NSaved=  14.
 NSaved=14 IEnMin=14 EnMin= -529.926052274172     IErMin=14 ErrMin= 1.64D-08
 ErrMax= 1.64D-08  0.00D+00 EMaxC= 1.00D-01 BMatC= 5.29D-14 BMatP= 2.00D-12
 IDIUse=1 WtCom= 1.00D+00 WtEn= 0.00D+00
 Coeff-Com: -0.560D-07 0.166D-06 0.175D-05 0.395D-05 0.135D-04 0.124D-04
 Coeff-Com: -0.498D-04-0.971D-03 0.223D-03 0.442D-02 0.616D-02-0.296D-01
 Coeff-Com: -0.107D+00 0.113D+01
 Coeff:     -0.560D-07 0.166D-06 0.175D-05 0.395D-05 0.135D-04 0.124D-04
 Coeff:     -0.498D-04-0.971D-03 0.223D-03 0.442D-02 0.616D-02-0.296D-01
 Coeff:     -0.107D+00 0.113D+01
 Gap=     0.378 Goal=   None    Shift=    0.000
 RMSDP=1.97D-08 MaxDP=6.42D-07 DE=-1.68D-11 OVMax= 2.97D-07

 Cycle  15  Pass 1  IDiag  1:
 E= -529.926052274174     Delta-E=       -0.000000000002 Rises=F Damp=F
 DIIS: error= 3.48D-09 at cycle  15 NSaved=  15.
 NSaved=15 IEnMin=15 EnMin= -529.926052274174     IErMin=15 ErrMin= 3.48D-09
 ErrMax= 3.48D-09  0.00D+00 EMaxC= 1.00D-01 BMatC= 2.51D-15 BMatP= 5.29D-14
 IDIUse=1 WtCom= 1.00D+00 WtEn= 0.00D+00
 Coeff-Com:  0.719D-08-0.818D-07-0.787D-06-0.129D-05 0.416D-05 0.289D-04
 Coeff-Com:  0.261D-04-0.408D-03-0.414D-03 0.439D-03 0.628D-02-0.501D-02
 Coeff-Com: -0.516D-01 0.166D+00 0.885D+00
 Coeff:      0.719D-08-0.818D-07-0.787D-06-0.129D-05 0.416D-05 0.289D-04
 Coeff:      0.261D-04-0.408D-03-0.414D-03 0.439D-03 0.628D-02-0.501D-02
 Coeff:     -0.516D-01 0.166D+00 0.885D+00
 Gap=     0.378 Goal=   None    Shift=    0.000
 RMSDP=2.64D-09 MaxDP=9.72D-08 DE=-1.82D-12 OVMax= 2.05D-08

 SCF Done:  E(RwB97XD) =  -529.926052274     A.U. after   15 cycles
            NFock= 15  Conv=0.26D-08     -V/T= 2.0052
 KE= 5.271878215046D+02 PE=-2.059094437741D+03 EE= 5.976068892892D+02
 Leave Link  502 at Wed May 26 09:20:51 2021, MaxMem=  2147483648 cpu:        31.6
 (Enter /opt/cluster/programs/g09_d.01/g09/l601.exe)
 Copying SCF densities to generalized density rwf, IOpCl= 0 IROHF=0.

 **********************************************************************

            Population analysis using the SCF density.

 **********************************************************************

 Orbital symmetries:
       Occupied  (A) (A) (A) (A) (A) (A) (A) (A) (A) (A) (A) (A)
                 (A) (A) (A) (A) (A) (A) (A) (A) (A) (A) (A) (A)
                 (A) (A) (A) (A) (A) (A) (A) (A)
       Virtual   (A) (A) (A) (A) (A) (A) (A) (A) (A) (A) (A) (A)
                 (A) (A) (A) (A) (A) (A) (A) (A) (A) (A) (A) (A)
                 (A) (A) (A) (A) (A) (A) (A) (A) (A) (A) (A) (A)
                 (A) (A) (A) (A) (A) (A) (A) (A) (A) (A) (A) (A)
                 (A) (A) (A) (A) (A) (A) (A) (A) (A) (A) (A) (A)
                 (A) (A) (A) (A) (A) (A) (A) (A) (A) (A) (A) (A)
                 (A) (A) (A) (A) (A) (A) (A) (A) (A) (A)
 The electronic state is 1-A.
 Alpha  occ. eigenvalues --  -24.89037 -24.88909 -24.88866 -19.30508 -10.59516
 Alpha  occ. eigenvalues --  -10.43861 -10.36303 -10.32242  -1.43825  -1.35310
 Alpha  occ. eigenvalues --   -1.35268  -1.19589  -0.95182  -0.87444  -0.79846
 Alpha  occ. eigenvalues --   -0.71007  -0.70155  -0.69071  -0.64118  -0.59469
 Alpha  occ. eigenvalues --   -0.58462  -0.57359  -0.56745  -0.55660  -0.54158
 Alpha  occ. eigenvalues --   -0.53564  -0.52455  -0.51331  -0.51038  -0.49651
 Alpha  occ. eigenvalues --   -0.46420  -0.36990
 Alpha virt. eigenvalues --    0.00832   0.05653   0.07848   0.09224   0.10074
 Alpha virt. eigenvalues --    0.10744   0.11165   0.12422   0.12531   0.12984
 Alpha virt. eigenvalues --    0.14680   0.15937   0.16307   0.16509   0.17316
 Alpha virt. eigenvalues --    0.18228   0.18394   0.19457   0.22048   0.23076
 Alpha virt. eigenvalues --    0.26151   0.26408   0.27603   0.29660   0.30608
 Alpha virt. eigenvalues --    0.33095   0.33443   0.35422   0.36809   0.38205
 Alpha virt. eigenvalues --    0.38477   0.38698   0.39925   0.41268   0.41418
 Alpha virt. eigenvalues --    0.43273   0.43515   0.44142   0.44809   0.44969
 Alpha virt. eigenvalues --    0.46115   0.49975   0.52124   0.54057   0.54561
 Alpha virt. eigenvalues --    0.67903   0.73985   0.75672   0.76821   0.79773
 Alpha virt. eigenvalues --    0.82254   0.85346   0.87510   0.88794   0.90472
 Alpha virt. eigenvalues --    0.97912   1.00027   1.10813   1.16291   1.17996
 Alpha virt. eigenvalues --    1.21862   1.22606   1.29033   1.34517   1.35406
 Alpha virt. eigenvalues --    1.41766   1.45816   1.47899   1.55948   1.61111
 Alpha virt. eigenvalues --    1.67357   1.68868   1.72252   1.74035   1.81078
 Alpha virt. eigenvalues --    1.83059   1.84024   1.85468   1.99490   2.30072
 Alpha virt. eigenvalues --    2.32198   2.67929
          Condensed to atoms (all electrons):
               1          2          3          4          5          6
     1  C    8.051364  -0.461562   0.325346   0.342671   0.322607  -1.930213
     2  C   -0.461562   5.955954  -0.018867  -0.022320  -0.013003  -0.439169
     3  H    0.325346  -0.018867   0.450426  -0.018071  -0.022710   0.009672
     4  H    0.342671  -0.022320  -0.018071   0.444170  -0.020132   0.027399
     5  H    0.322607  -0.013003  -0.022710  -0.020132   0.474636   0.033891
     6  C   -1.930213  -0.439169   0.009672   0.027399   0.033891   8.994612
     7  O   -0.130559   0.505321   0.005206  -0.005128   0.000864  -0.241823
     8  C    0.074572   0.043064   0.009005   0.000441  -0.011061  -0.047062
     9  H    0.039939  -0.003930  -0.000324  -0.000027  -0.000529   0.287701
    10  H    0.018591   0.016434  -0.000041  -0.000090  -0.000060   0.301473
    11  F    0.038174  -0.000461   0.003268  -0.000002  -0.001482  -0.182904
    12  F   -0.007047  -0.008040   0.000149   0.000021   0.000022  -0.121040
    13  F    0.017092   0.049089  -0.000918  -0.000012   0.000095  -0.157961
               7          8          9         10         11         12
     1  C   -0.130559   0.074572   0.039939   0.018591   0.038174  -0.007047
     2  C    0.505321   0.043064  -0.003930   0.016434  -0.000461  -0.008040
     3  H    0.005206   0.009005  -0.000324  -0.000041   0.003268   0.000149
     4  H   -0.005128   0.000441  -0.000027  -0.000090  -0.000002   0.000021
     5  H    0.000864  -0.011061  -0.000529  -0.000060  -0.001482   0.000022
     6  C   -0.241823  -0.047062   0.287701   0.301473  -0.182904  -0.121040
     7  O    8.262785  -0.020013   0.003951  -0.001629  -0.000084  -0.000808
     8  C   -0.020013   5.161153  -0.033908  -0.029677   0.122511   0.158550
     9  H    0.003951  -0.033908   0.458004  -0.019252  -0.006277  -0.004660
    10  H   -0.001629  -0.029677  -0.019252   0.417946   0.008141  -0.001375
    11  F   -0.000084   0.122511  -0.006277   0.008141   9.329790  -0.051936
    12  F   -0.000808   0.158550  -0.004660  -0.001375  -0.051936   9.296709
    13  F    0.006893   0.077454   0.009539  -0.004783  -0.057297  -0.060797
              13
     1  C    0.017092
     2  C    0.049089
     3  H   -0.000918
     4  H   -0.000012
     5  H    0.000095
     6  C   -0.157961
     7  O    0.006893
     8  C    0.077454
     9  H    0.009539
    10  H   -0.004783
    11  F   -0.057297
    12  F   -0.060797
    13  F    9.302248
 Mulliken charges:
               1
     1  C   -0.700977
     2  C    0.397493
     3  H    0.257860
     4  H    0.251081
     5  H    0.236863
     6  C   -0.534577
     7  O   -0.384977
     8  C    0.494972
     9  H    0.269773
    10  H    0.294321
    11  F   -0.201441
    12  F   -0.199748
    13  F   -0.180642
 Sum of Mulliken charges =   0.00000
 Mulliken charges with hydrogens summed into heavy atoms:
               1
     1  C    0.044827
     2  C    0.397493
     6  C    0.029517
     7  O   -0.384977
     8  C    0.494972
    11  F   -0.201441
    12  F   -0.199748
    13  F   -0.180642
 Electronic spatial extent (au):  <R**2>=            973.7058
 Charge=              0.0000 electrons
 Dipole moment (field-independent basis, Debye):
    X=              1.0979    Y=              2.2779    Z=              2.4223  Tot=              3.5017
 Quadrupole moment (field-independent basis, Debye-Ang):
   XX=            -51.9842   YY=            -48.7184   ZZ=            -44.0347
   XY=              6.9941   XZ=              1.3099   YZ=             -1.3203
 Traceless Quadrupole moment (field-independent basis, Debye-Ang):
   XX=             -3.7384   YY=             -0.4727   ZZ=              4.2111
   XY=              6.9941   XZ=              1.3099   YZ=             -1.3203
 Octapole moment (field-independent basis, Debye-Ang**2):
  XXX=            -19.1335  YYY=              2.6263  ZZZ=             -1.2423  XYY=            -11.0521
  XXY=             15.3873  XXZ=             -2.4852  XZZ=             -3.8212  YZZ=              1.3343
  YYZ=              1.9411  XYZ=             -1.1967
 Hexadecapole moment (field-independent basis, Debye-Ang**3):
 XXXX=           -742.5380 YYYY=           -255.4676 ZZZZ=           -144.2931 XXXY=             26.9057
 XXXZ=              9.0580 YYYX=              9.6922 YYYZ=             -1.3116 ZZZX=              0.7781
 ZZZY=              2.3217 XXYY=           -175.2470 XXZZ=           -144.5707 YYZZ=            -62.6667
 XXYZ=             -2.3019 YYXZ=              0.3574 ZZXY=             -1.3561
 N-N= 4.043736746733D+02 E-N=-2.059094437781D+03  KE= 5.271878215046D+02
 No NMR shielding tensors so no spin-rotation constants.
 Leave Link  601 at Wed May 26 09:20:52 2021, MaxMem=  2147483648 cpu:         0.6
 (Enter /opt/cluster/programs/g09_d.01/g09/l701.exe)
 Compute integral first derivatives.
 ... and contract with generalized density number  0.
 R6Disp: Adding Grimme-D2 dispersion energy 1st derivatives to the gradient.
 Leave Link  701 at Wed May 26 09:20:52 2021, MaxMem=  2147483648 cpu:         0.6
 (Enter /opt/cluster/programs/g09_d.01/g09/l702.exe)
 L702 exits ... SP integral derivatives will be done elsewhere.
 Leave Link  702 at Wed May 26 09:20:52 2021, MaxMem=  2147483648 cpu:         0.2
 (Enter /opt/cluster/programs/g09_d.01/g09/l703.exe)
 Compute integral first derivatives, UseDBF=F ICtDFT=           0.
 Integral derivatives from FoFJK, PRISM(SPDF).
 Calling FoFJK, ICntrl=      2127 FMM=F ISym2X=0 I1Cent= 0 IOpClX= 0 NMat=1 NMatS=1 NMatT=0.
 FoFJK:  IHMeth= 1 ICntrl=    2127 DoSepK=T KAlg= 0 I1Cent=   0 FoldK=F
 IRaf=         1 NMat=   1 IRICut=       1 DoRegI=T DoRafI=F ISym2E= 0.
 FoFCou: FMM=F IPFlag=           0 FMFlag=      100000 FMFlg1=         800
         NFxFlg=           0 DoJE=F BraDBF=F KetDBF=F FulRan=T
         wScrn=  0.000000 ICntrl=    2527 IOpCl=  0 I1Cent=           0 NGrid=           0
         NMat0=    1 NMatS0=      1 NMatT0=    0 NMatD0=    1 NMtDS0=    0 NMtDT0=    0
 Symmetry not used in FoFCou.
 Leave Link  703 at Wed May 26 09:20:53 2021, MaxMem=  2147483648 cpu:         8.5
 (Enter /opt/cluster/programs/g09_d.01/g09/l716.exe)
 Dipole        = 4.31950037D-01 8.96189696D-01 9.52996845D-01
 ***** Axes restored to original set *****
 -------------------------------------------------------------------
 Center     Atomic                   Forces (Hartrees/Bohr)
 Number     Number              X              Y              Z
 -------------------------------------------------------------------
      1        6          -0.000437146    0.000064505   -0.000819581
      2        6           0.000669789    0.000232266    0.001263392
      3        1           0.000011213   -0.000005153    0.000008458
      4        1           0.000007960   -0.000010013    0.000005692
      5        1           0.000010584   -0.000007238    0.000006373
      6        6          -0.000282868   -0.001162076   -0.000663815
      7        8          -0.000010039    0.000004279   -0.000003361
      8        6           0.000004428    0.000818682    0.000219336
      9        1           0.000003631   -0.000003199    0.000007155
     10        1          -0.000003939    0.000000973   -0.000006984
     11        9           0.000001079    0.000019648   -0.000004077
     12        9           0.000029265    0.000027784   -0.000021585
     13        9          -0.000003956    0.000019542    0.000008997
 -------------------------------------------------------------------
 Cartesian Forces:  Max     0.001263392 RMS     0.000377543
 Leave Link  716 at Wed May 26 09:20:53 2021, MaxMem=  2147483648 cpu:         0.2
 (Enter /opt/cluster/programs/g09_d.01/g09/l103.exe)

 GradGradGradGradGradGradGradGradGradGradGradGradGradGradGradGradGradGrad
 Berny optimization.
 FormGI is forming the generalized inverse of G from B-inverse, IUseBI=4.
 Internal  Forces:  Max     0.000884757 RMS     0.000193606
 Search for a local minimum.
 Step number   1 out of a maximum of   64
 All quantities printed in internal units (Hartrees-Bohrs-Radians)
 RMS Force = .86319D-05 SwitMx=.10000D-02 MixMth= 2
 Mixed Optimization -- En-DIIS/RFO-DIIS
 Second derivative matrix not updated -- first step.
 ITU=  0
     Eigenvalues ---    0.00485   0.00707   0.00742   0.03043   0.05630
     Eigenvalues ---    0.07347   0.07420   0.08271   0.08529   0.09360
     Eigenvalues ---    0.11762   0.16000   0.16000   0.16000   0.22079
     Eigenvalues ---    0.24971   0.25000   0.25000   0.25000   0.25000
     Eigenvalues ---    0.29249   0.31913   0.32187   0.34089   0.34232
     Eigenvalues ---    0.34398   0.34571   0.34771   0.46131   0.47178
     Eigenvalues ---    0.47969   0.898931000.000001000.000001000.00000
     Eigenvalues --- 1000.000001000.000001000.000001000.000001000.00000
     Eigenvalues --- 1000.000001000.000001000.000001000.000001000.00000
     Eigenvalues --- 1000.000001000.000001000.000001000.000001000.00000
     Eigenvalues --- 1000.000001000.000001000.000001000.00000
 RFO step:  Lambda=-2.21262854D-08 EMin= 4.84503330D-03
 Linear search not attempted -- first point.
 Iteration  1 RMS(Cart)=  0.00019846 RMS(Int)=  0.00000002
 Iteration  2 RMS(Cart)=  0.00000003 RMS(Int)=  0.00000000
 Iteration  1 RMS(Cart)=  0.00000000 RMS(Int)=  0.00000000
 ITry= 1 IFail=0 DXMaxC= 6.24D-04 DCOld= 1.00D+10 DXMaxT= 3.00D-01 DXLimC= 3.00D+00 Rises=F
 Variable       Old X    -DE/DX   Delta X   Delta X   Delta X     New X
                                 (Linear)    (Quad)   (Total)
    R1        2.83802   0.00001   0.00000   0.00002   0.00002   2.83805
    R2        2.06940  -0.00001   0.00000  -0.00002  -0.00002   2.06938
    R3        2.06048   0.00000   0.00000   0.00001   0.00001   2.06048
    R4        2.07179   0.00000   0.00000   0.00001   0.00001   2.07181
    R5        2.89487   0.00002   0.00000   0.00006   0.00006   2.89492
    R6        2.32982  -0.00001   0.00000  -0.00001  -0.00001   2.32981
    R7        2.84303   0.00002   0.00000   0.00008   0.00008   2.84311
    R8        2.06664   0.00000   0.00000   0.00001   0.00001   2.06665
    R9        2.06377   0.00000   0.00000  -0.00001  -0.00001   2.06377
   R10        2.63984   0.00001   0.00000   0.00003   0.00003   2.63987
   R11        2.62825  -0.00004   0.00000  -0.00008  -0.00008   2.62817
   R12        2.61972  -0.00001   0.00000  -0.00003  -0.00003   2.61969
    A1        1.93282   0.00000   0.00000   0.00003   0.00003   1.93286
    A2        1.91357   0.00000   0.00000  -0.00002  -0.00002   1.91356
    A3        1.92261   0.00000   0.00000  -0.00001  -0.00001   1.92260
    A4        1.91299   0.00000   0.00000   0.00003   0.00003   1.91302
    A5        1.87014   0.00000   0.00000   0.00001   0.00001   1.87015
    A6        1.91121   0.00000   0.00000  -0.00005  -0.00005   1.91116
    A7        2.05936   0.00001   0.00000   0.00003   0.00003   2.05939
    A8        2.14162   0.00001   0.00000  -0.00002  -0.00002   2.14159
    A9        2.08141  -0.00001   0.00000   0.00000   0.00000   2.08141
   A10        1.98728   0.00001   0.00000   0.00008   0.00008   1.98736
   A11        1.93049   0.00001   0.00000  -0.00004  -0.00004   1.93045
   A12        1.88806  -0.00001   0.00000  -0.00004  -0.00004   1.88803
   A13        1.87330  -0.00037   0.00000   0.00005   0.00005   1.87335
   A14        1.87652   0.00038   0.00000  -0.00003  -0.00003   1.87649
   A15        1.90642   0.00000   0.00000  -0.00003  -0.00003   1.90640
   A16        1.96221   0.00000   0.00000   0.00000   0.00000   1.96221
   A17        1.94055   0.00001   0.00000   0.00004   0.00004   1.94059
   A18        1.96811   0.00000   0.00000   0.00001   0.00001   1.96812
   A19        1.85708  -0.00001   0.00000  -0.00006  -0.00006   1.85701
   A20        1.85954   0.00000   0.00000  -0.00002  -0.00002   1.85951
   A21        1.86965   0.00000   0.00000   0.00003   0.00003   1.86968
    D1       -1.05452   0.00019   0.00000   0.00012   0.00012  -1.05441
    D2        2.13045  -0.00019   0.00000  -0.00013  -0.00013   2.13032
    D3        3.11554   0.00019   0.00000   0.00007   0.00007   3.11561
    D4        0.01733  -0.00019   0.00000  -0.00018  -0.00018   0.01715
    D5        1.01116   0.00019   0.00000   0.00014   0.00014   1.01130
    D6       -2.08706  -0.00019   0.00000  -0.00010  -0.00010  -2.08716
    D7        1.39248  -0.00088   0.00000   0.00000   0.00000   1.39248
    D8       -0.71860  -0.00041   0.00000  -0.00009  -0.00009  -0.71869
    D9       -2.80591  -0.00041   0.00000  -0.00001  -0.00001  -2.80592
   D10       -1.79095  -0.00052   0.00000   0.00023   0.00023  -1.79071
   D11        2.38115  -0.00004   0.00000   0.00014   0.00014   2.38130
   D12        0.29385  -0.00004   0.00000   0.00022   0.00022   0.29407
   D13       -1.13606   0.00017   0.00000   0.00032   0.00032  -1.13573
   D14        3.06701   0.00018   0.00000   0.00038   0.00038   3.06738
   D15        0.96673   0.00017   0.00000   0.00030   0.00030   0.96703
   D16        1.00666  -0.00009   0.00000   0.00036   0.00036   1.00703
   D17       -1.07346  -0.00008   0.00000   0.00041   0.00041  -1.07305
   D18        3.10945  -0.00009   0.00000   0.00034   0.00034   3.10979
   D19        3.05580  -0.00008   0.00000   0.00034   0.00034   3.05614
   D20        0.97568  -0.00008   0.00000   0.00039   0.00039   0.97607
   D21       -1.12459  -0.00008   0.00000   0.00032   0.00032  -1.12428
         Item               Value     Threshold  Converged?
 Maximum Force            0.000039     0.000450     YES
 RMS     Force            0.000009     0.000300     YES
 Maximum Displacement     0.000624     0.001800     YES
 RMS     Displacement     0.000198     0.001200     YES
 Predicted change in Energy=-1.106199D-08
 Optimization completed.
    -- Stationary point found.
                           ----------------------------
                           !   Optimized Parameters   !
                           ! (Angstroms and Degrees)  !
 --------------------------                            --------------------------
 ! Name  Definition              Value          Derivative Info.                !
 --------------------------------------------------------------------------------
 ! R1    R(1,2)                  1.5018         -DE/DX =    0.0                 !
 ! R2    R(1,3)                  1.0951         -DE/DX =    0.0                 !
 ! R3    R(1,4)                  1.0904         -DE/DX =    0.0                 !
 ! R4    R(1,5)                  1.0963         -DE/DX =    0.0                 !
 ! R5    R(2,6)                  1.5319         -DE/DX =    0.0                 !
 ! R6    R(2,7)                  1.2329         -DE/DX =    0.0                 !
 ! R7    R(6,8)                  1.5045         -DE/DX =    0.0                 !
 ! R8    R(6,9)                  1.0936         -DE/DX =    0.0                 !
 ! R9    R(6,10)                 1.0921         -DE/DX =    0.0                 !
 ! R10   R(8,11)                 1.3969         -DE/DX =    0.0                 !
 ! R11   R(8,12)                 1.3908         -DE/DX =    0.0                 !
 ! R12   R(8,13)                 1.3863         -DE/DX =    0.0                 !
 ! A1    A(2,1,3)              110.7425         -DE/DX =    0.0                 !
 ! A2    A(2,1,4)              109.6397         -DE/DX =    0.0                 !
 ! A3    A(2,1,5)              110.1574         -DE/DX =    0.0                 !
 ! A4    A(3,1,4)              109.6062         -DE/DX =    0.0                 !
 ! A5    A(3,1,5)              107.1511         -DE/DX =    0.0                 !
 ! A6    A(4,1,5)              109.5043         -DE/DX =    0.0                 !
 ! A7    A(1,2,6)              117.9925         -DE/DX =    0.0                 !
 ! A8    A(1,2,7)              122.7056         -DE/DX =    0.0                 !
 ! A9    A(6,2,7)              119.256          -DE/DX =    0.0                 !
 ! A10   A(2,6,8)              113.8628         -DE/DX =    0.0                 !
 ! A11   A(2,6,9)              110.6089         -DE/DX =    0.0                 !
 ! A12   A(2,6,10)             108.1781         -DE/DX =    0.0                 !
 ! A13   A(8,6,9)              107.3323         -DE/DX =   -0.0004              !
 ! A14   A(8,6,10)             107.5169         -DE/DX =    0.0004              !
 ! A15   A(9,6,10)             109.2301         -DE/DX =    0.0                 !
 ! A16   A(6,8,11)             112.4265         -DE/DX =    0.0                 !
 ! A17   A(6,8,12)             111.1851         -DE/DX =    0.0                 !
 ! A18   A(6,8,13)             112.7644         -DE/DX =    0.0                 !
 ! A19   A(11,8,12)            106.4026         -DE/DX =    0.0                 !
 ! A20   A(11,8,13)            106.5437         -DE/DX =    0.0                 !
 ! A21   A(12,8,13)            107.1232         -DE/DX =    0.0                 !
 ! D1    D(3,1,2,6)            -60.4197         -DE/DX =    0.0002              !
 ! D2    D(3,1,2,7)            122.0656         -DE/DX =   -0.0002              !
 ! D3    D(4,1,2,6)            178.5076         -DE/DX =    0.0002              !
 ! D4    D(4,1,2,7)              0.9928         -DE/DX =   -0.0002              !
 ! D5    D(5,1,2,6)             57.9349         -DE/DX =    0.0002              !
 ! D6    D(5,1,2,7)           -119.5798         -DE/DX =   -0.0002              !
 ! D7    D(1,2,6,8)             79.7833         -DE/DX =   -0.0009              !
 ! D8    D(1,2,6,9)            -41.173          -DE/DX =   -0.0004              !
 ! D9    D(1,2,6,10)          -160.7667         -DE/DX =   -0.0004              !
 ! D10   D(7,2,6,8)           -102.6136         -DE/DX =   -0.0005              !
 ! D11   D(7,2,6,9)            136.4301         -DE/DX =    0.0                 !
 ! D12   D(7,2,6,10)            16.8364         -DE/DX =    0.0                 !
 ! D13   D(2,6,8,11)           -65.0912         -DE/DX =    0.0002              !
 ! D14   D(2,6,8,12)           175.7265         -DE/DX =    0.0002              !
 ! D15   D(2,6,8,13)            55.3897         -DE/DX =    0.0002              !
 ! D16   D(9,6,8,11)            57.6775         -DE/DX =   -0.0001              !
 ! D17   D(9,6,8,12)           -61.5047         -DE/DX =   -0.0001              !
 ! D18   D(9,6,8,13)           178.1585         -DE/DX =   -0.0001              !
 ! D19   D(10,6,8,11)          175.0845         -DE/DX =   -0.0001              !
 ! D20   D(10,6,8,12)           55.9023         -DE/DX =   -0.0001              !
 ! D21   D(10,6,8,13)          -64.4345         -DE/DX =   -0.0001              !
 --------------------------------------------------------------------------------
 Lowest energy point so far.  Saving SCF results.
 GradGradGradGradGradGradGradGradGradGradGradGradGradGradGradGradGradGrad

 Largest change from initial coordinates is atom   12       0.000 Angstoms.
 Leave Link  103 at Wed May 26 09:20:53 2021, MaxMem=  2147483648 cpu:         0.1
 (Enter /opt/cluster/programs/g09_d.01/g09/l202.exe)
                          Input orientation:                          
 ---------------------------------------------------------------------
 Center     Atomic      Atomic             Coordinates (Angstroms)
 Number     Number       Type             X           Y           Z
 ---------------------------------------------------------------------
      1          6           0        2.087463    1.139941   -0.037246
      2          6           0        1.488448   -0.220242    0.178487
      3          1           0        1.424659    1.763440   -0.646459
      4          1           0        3.053701    1.040486   -0.532598
      5          1           0        2.219571    1.651285    0.923509
      6          6           0        0.137713   -0.305445    0.896097
      7          8           0        2.059172   -1.260316   -0.156976
      8          6           0       -1.041420   -0.003915    0.011707
      9          1           0        0.102910    0.394740    1.735459
     10          1           0        0.015067   -1.323576    1.271668
     11          9           0       -1.044933    1.318171   -0.439437
     12          9           0       -2.240312   -0.190052    0.691679
     13          9           0       -1.083923   -0.806551   -1.117802
 ---------------------------------------------------------------------
                    Distance matrix (angstroms):
                    1          2          3          4          5
     1  C    0.000000
     2  C    1.501818   0.000000
     3  H    1.095080   2.149325   0.000000
     4  H    1.090358   2.131923   1.785890   0.000000
     5  H    1.096346   2.142945   1.763310   1.785804   0.000000
     6  C    2.600345   1.531897   2.883747   3.515066   2.857215
     7  O    2.403408   1.232889   3.128147   2.534535   3.109758
     8  C    3.331773   2.544572   3.104557   4.261110   3.768970
     9  H    2.763378   2.173035   3.048589   3.777332   2.591992
    10  H    3.475197   2.140851   3.898183   4.251760   3.718985
    11  F    3.163136   3.027633   2.517937   4.109086   3.553248
    12  F    4.585831   3.764031   4.363342   5.571324   4.830613
    13  F    3.874806   2.939595   3.622154   4.568801   4.595757
                    6          7          8          9         10
     6  C    0.000000
     7  O    2.390135   0.000000
     8  C    1.504467   3.349727   0.000000
     9  H    1.093617   3.185511   2.107069   0.000000
    10  H    1.092102   2.494672   2.108358   1.781973   0.000000
    11  F    2.412143   4.045225   1.396945   2.626869   3.321191
    12  F    2.389583   4.511235   1.390809   2.630997   2.589980
    13  F    2.408172   3.317851   1.386298   3.315535   2.680422
                   11         12         13
    11  F    0.000000
    12  F    2.232284   0.000000
    13  F    2.230727   2.234173   0.000000
 Stoichiometry    C4H5F3O
 Framework group  C1[X(C4H5F3O)]
 Deg. of freedom    33
 Full point group                 C1      NOp   1
 RotChk:  IX=0 Diff= 6.83D-16
 Largest Abelian subgroup         C1      NOp   1
 Largest concise Abelian subgroup C1      NOp   1
                         Standard orientation:                         
 ---------------------------------------------------------------------
 Center     Atomic      Atomic             Coordinates (Angstroms)
 Number     Number       Type             X           Y           Z
 ---------------------------------------------------------------------
      1          6           0        2.087463    1.139941   -0.037246
      2          6           0        1.488448   -0.220242    0.178487
      3          1           0        1.424659    1.763440   -0.646459
      4          1           0        3.053701    1.040486   -0.532598
      5          1           0        2.219571    1.651285    0.923509
      6          6           0        0.137713   -0.305445    0.896097
      7          8           0        2.059172   -1.260316   -0.156976
      8          6           0       -1.041420   -0.003915    0.011707
      9          1           0        0.102910    0.394740    1.735459
     10          1           0        0.015067   -1.323576    1.271668
     11          9           0       -1.044933    1.318171   -0.439437
     12          9           0       -2.240312   -0.190052    0.691679
     13          9           0       -1.083923   -0.806551   -1.117802
 ---------------------------------------------------------------------
 Rotational constants (GHZ):      3.3646974      1.3761446      1.2284275
 Leave Link  202 at Wed May 26 09:20:53 2021, MaxMem=  2147483648 cpu:         0.0
 (Enter /opt/cluster/programs/g09_d.01/g09/l9999.exe)
 1\1\GINC-NODE06\FOpt\RwB97XD\6-31+G\C4H5F3O1\BOITTIER\26-May-2021\0\\#
 p wB97XD/6-31+G Opt=ModRedun\\N.pdb\\0,1\C,2.087463,1.139941,-0.037246
 \C,1.488448,-0.220242,0.178487\H,1.424659,1.76344,-0.646459\H,3.053701
 ,1.040486,-0.532598\H,2.219571,1.651285,0.923509\C,0.137713,-0.305445,
 0.896097\O,2.059172,-1.260316,-0.156976\C,-1.04142,-0.003915,0.011707\
 H,0.10291,0.39474,1.735459\H,0.015067,-1.323576,1.271668\F,-1.044933,1
 .318171,-0.439437\F,-2.240312,-0.190052,0.691679\F,-1.083923,-0.806551
 ,-1.117802\\Version=ES64L-G09RevD.01\State=1-A\HF=-529.9260523\RMSD=2.
 636e-09\RMSF=3.775e-04\Dipole=0.43195,0.8961897,0.9529968\Quadrupole=-
 2.7794194,-0.3514074,3.1308268,5.1999217,0.9738939,-0.9816237\PG=C01 [
 X(C4H5F3O1)]\\@


 What some people mistake for the high cost
 of living is really the cost of living high.
                              -- Doug Larson
 Job cpu time:       0 days  0 hours  0 minutes 50.4 seconds.
 File lengths (MBytes):  RWF=      7 Int=      0 D2E=      0 Chk=      3 Scr=      1
 Normal termination of Gaussian 09 at Wed May 26 09:20:53 2021.
