 Entering Gaussian System, Link 0=/opt/cluster/programs/g09_d.01/g09//g09
 Input=/home/unibas/boittier/RDKit_G2/O.pdb/SCAN_1_2_6_8_S_17_20.0/5_SCAN_1_2_6_8_F/5_SCAN_O.pdb.com
 Output=/scratch/boittier/5_SCAN_O.pdb/5_SCAN_O.pdb.out
 Initial command:
 /opt/cluster/programs/g09_d.01/g09/l1.exe "/scratch/boittier/5_SCAN_O.pdb/Gau-162531.inp" -scrdir="/scratch/boittier/5_SCAN_O.pdb/"
 Entering Link 1 = /opt/cluster/programs/g09_d.01/g09/l1.exe PID=    162532.
  
 Copyright (c) 1988,1990,1992,1993,1995,1998,2003,2009,2013,
            Gaussian, Inc.  All Rights Reserved.
  
 This is part of the Gaussian(R) 09 program.  It is based on
 the Gaussian(R) 03 system (copyright 2003, Gaussian, Inc.),
 the Gaussian(R) 98 system (copyright 1998, Gaussian, Inc.),
 the Gaussian(R) 94 system (copyright 1995, Gaussian, Inc.),
 the Gaussian 92(TM) system (copyright 1992, Gaussian, Inc.),
 the Gaussian 90(TM) system (copyright 1990, Gaussian, Inc.),
 the Gaussian 88(TM) system (copyright 1988, Gaussian, Inc.),
 the Gaussian 86(TM) system (copyright 1986, Carnegie Mellon
 University), and the Gaussian 82(TM) system (copyright 1983,
 Carnegie Mellon University). Gaussian is a federally registered
 trademark of Gaussian, Inc.
  
 This software contains proprietary and confidential information,
 including trade secrets, belonging to Gaussian, Inc.
  
 This software is provided under written license and may be
 used, copied, transmitted, or stored only in accord with that
 written license.
  
 The following legend is applicable only to US Government
 contracts under FAR:
  
                    RESTRICTED RIGHTS LEGEND
  
 Use, reproduction and disclosure by the US Government is
 subject to restrictions as set forth in subparagraphs (a)
 and (c) of the Commercial Computer Software - Restricted
 Rights clause in FAR 52.227-19.
  
 Gaussian, Inc.
 340 Quinnipiac St., Bldg. 40, Wallingford CT 06492
  
  
 ---------------------------------------------------------------
 Warning -- This program may not be used in any manner that
 competes with the business of Gaussian, Inc. or will provide
 assistance to any competitor of Gaussian, Inc.  The licensee
 of this program is prohibited from giving any competitor of
 Gaussian, Inc. access to this program.  By using this program,
 the user acknowledges that Gaussian, Inc. is engaged in the
 business of creating and licensing software in the field of
 computational chemistry and represents and warrants to the
 licensee that it is not a competitor of Gaussian, Inc. and that
 it will not use this program in any manner prohibited above.
 ---------------------------------------------------------------
  

 Cite this work as:
 Gaussian 09, Revision D.01,
 M. J. Frisch, G. W. Trucks, H. B. Schlegel, G. E. Scuseria, 
 M. A. Robb, J. R. Cheeseman, G. Scalmani, V. Barone, B. Mennucci, 
 G. A. Petersson, H. Nakatsuji, M. Caricato, X. Li, H. P. Hratchian, 
 A. F. Izmaylov, J. Bloino, G. Zheng, J. L. Sonnenberg, M. Hada, 
 M. Ehara, K. Toyota, R. Fukuda, J. Hasegawa, M. Ishida, T. Nakajima, 
 Y. Honda, O. Kitao, H. Nakai, T. Vreven, J. A. Montgomery, Jr., 
 J. E. Peralta, F. Ogliaro, M. Bearpark, J. J. Heyd, E. Brothers, 
 K. N. Kudin, V. N. Staroverov, T. Keith, R. Kobayashi, J. Normand, 
 K. Raghavachari, A. Rendell, J. C. Burant, S. S. Iyengar, J. Tomasi, 
 M. Cossi, N. Rega, J. M. Millam, M. Klene, J. E. Knox, J. B. Cross, 
 V. Bakken, C. Adamo, J. Jaramillo, R. Gomperts, R. E. Stratmann, 
 O. Yazyev, A. J. Austin, R. Cammi, C. Pomelli, J. W. Ochterski, 
 R. L. Martin, K. Morokuma, V. G. Zakrzewski, G. A. Voth, 
 P. Salvador, J. J. Dannenberg, S. Dapprich, A. D. Daniels, 
 O. Farkas, J. B. Foresman, J. V. Ortiz, J. Cioslowski, 
 and D. J. Fox, Gaussian, Inc., Wallingford CT, 2013.
 
 ******************************************
 Gaussian 09:  ES64L-G09RevD.01 24-Apr-2013
                26-May-2021 
 ******************************************
 %chk=/home/unibas/boittier/RDKit_G2/O.pdb/SCAN_1_2_6_8_S_17_20.0/5_SCAN_1_2_6_8_
 F/O.pdb.chk
 %nproc=8
 Will use up to    8 processors via shared memory.
 %mem=16GB
 -----------------------------
 #p wB97XD/6-31+G Opt=ModRedun
 -----------------------------
 1/14=-1,18=120,19=15,26=3,38=1/1,3;
 2/9=110,12=2,17=6,18=5,40=1/2;
 3/5=1,6=6,7=10,11=2,16=1,25=1,30=1,71=1,74=-58/1,2,3;
 4//1;
 5/5=2,38=5/2;
 6/7=2,8=2,9=2,10=2,28=1/1;
 7//1,2,3,16;
 1/14=-1,18=20,19=15,26=3/3(2);
 2/9=110/2;
 99//99;
 2/9=110/2;
 3/5=1,6=6,7=10,11=2,16=1,25=1,30=1,71=1,74=-58/1,2,3;
 4/5=5,16=3,69=1/1;
 5/5=2,38=5/2;
 7//1,2,3,16;
 1/14=-1,18=20,19=15,26=3/3(-5);
 2/9=110/2;
 6/7=2,8=2,9=2,10=2,19=2,28=1/1;
 99/9=1/99;
 Leave Link    1 at Wed May 26 09:01:13 2021, MaxMem=  2147483648 cpu:         0.2
 (Enter /opt/cluster/programs/g09_d.01/g09/l101.exe)
 -----
 O.pdb
 -----
 Symbolic Z-matrix:
 Charge =  0 Multiplicity = 1
 C                     1.19024  -1.14839  -0.04736 
 C                     0.55372   0.2071    0.06283 
 H                     1.31662  -1.56405   0.95761 
 H                     2.16182  -1.06738  -0.53409 
 H                     0.55382  -1.83898  -0.60927 
 O                    -0.73569   0.19486   0.59236 
 O                     1.11036   1.2654   -0.18774 
 C                    -1.84944  -0.14778  -0.28425 
 H                    -1.93515   0.59158  -1.08515 
 H                    -2.73276  -0.11568   0.34914 
 H                    -1.7288   -1.15313  -0.70261 
 
 The following ModRedundant input section has been read:
 D       1       2       6       8 F                                           
 
 NAtoms=     11 NQM=       11 NQMF=       0 NMMI=      0 NMMIF=      0
                NMic=       0 NMicF=      0.
                    Isotopes and Nuclear Properties:
 (Nuclear quadrupole moments (NQMom) in fm**2, nuclear magnetic moments (NMagM)
  in nuclear magnetons)

  Atom         1           2           3           4           5           6           7           8           9          10
 IAtWgt=          12          12           1           1           1          16          16          12           1           1
 AtmWgt=  12.0000000  12.0000000   1.0078250   1.0078250   1.0078250  15.9949146  15.9949146  12.0000000   1.0078250   1.0078250
 NucSpn=           0           0           1           1           1           0           0           0           1           1
 AtZEff=   0.0000000   0.0000000   0.0000000   0.0000000   0.0000000   0.0000000   0.0000000   0.0000000   0.0000000   0.0000000
 NQMom=    0.0000000   0.0000000   0.0000000   0.0000000   0.0000000   0.0000000   0.0000000   0.0000000   0.0000000   0.0000000
 NMagM=    0.0000000   0.0000000   2.7928460   2.7928460   2.7928460   0.0000000   0.0000000   0.0000000   2.7928460   2.7928460
 AtZNuc=   6.0000000   6.0000000   1.0000000   1.0000000   1.0000000   8.0000000   8.0000000   6.0000000   1.0000000   1.0000000

  Atom        11
 IAtWgt=           1
 AtmWgt=   1.0078250
 NucSpn=           1
 AtZEff=   0.0000000
 NQMom=    0.0000000
 NMagM=    2.7928460
 AtZNuc=   1.0000000
 Leave Link  101 at Wed May 26 09:01:14 2021, MaxMem=  2147483648 cpu:         4.2
 (Enter /opt/cluster/programs/g09_d.01/g09/l103.exe)

 GradGradGradGradGradGradGradGradGradGradGradGradGradGradGradGradGradGrad
 Berny optimization.
 Initialization pass.
                           ----------------------------
                           !    Initial Parameters    !
                           ! (Angstroms and Degrees)  !
 --------------------------                            --------------------------
 ! Name  Definition              Value          Derivative Info.                !
 --------------------------------------------------------------------------------
 ! R1    R(1,2)                  1.5016         estimate D2E/DX2                !
 ! R2    R(1,3)                  1.0949         estimate D2E/DX2                !
 ! R3    R(1,4)                  1.0897         estimate D2E/DX2                !
 ! R4    R(1,5)                  1.0944         estimate D2E/DX2                !
 ! R5    R(2,6)                  1.394          estimate D2E/DX2                !
 ! R6    R(2,7)                  1.2217         estimate D2E/DX2                !
 ! R7    R(6,8)                  1.4582         estimate D2E/DX2                !
 ! R8    R(8,9)                  1.0934         estimate D2E/DX2                !
 ! R9    R(8,10)                 1.0874         estimate D2E/DX2                !
 ! R10   R(8,11)                 1.0956         estimate D2E/DX2                !
 ! A1    A(2,1,3)              108.9224         estimate D2E/DX2                !
 ! A2    A(2,1,4)              110.0978         estimate D2E/DX2                !
 ! A3    A(2,1,5)              111.15           estimate D2E/DX2                !
 ! A4    A(3,1,4)              109.5911         estimate D2E/DX2                !
 ! A5    A(3,1,5)              107.3886         estimate D2E/DX2                !
 ! A6    A(4,1,5)              109.6376         estimate D2E/DX2                !
 ! A7    A(1,2,6)              114.3345         estimate D2E/DX2                !
 ! A8    A(1,2,7)              125.0141         estimate D2E/DX2                !
 ! A9    A(6,2,7)              120.4614         estimate D2E/DX2                !
 ! A10   A(2,6,8)              118.6984         estimate D2E/DX2                !
 ! A11   A(6,8,9)              109.9587         estimate D2E/DX2                !
 ! A12   A(6,8,10)             105.2683         estimate D2E/DX2                !
 ! A13   A(6,8,11)             111.1668         estimate D2E/DX2                !
 ! A14   A(9,8,10)             110.0609         estimate D2E/DX2                !
 ! A15   A(9,8,11)             110.4537         estimate D2E/DX2                !
 ! A16   A(10,8,11)            109.8134         estimate D2E/DX2                !
 ! D1    D(3,1,2,6)            -63.9231         estimate D2E/DX2                !
 ! D2    D(3,1,2,7)            111.064          estimate D2E/DX2                !
 ! D3    D(4,1,2,6)            175.8862         estimate D2E/DX2                !
 ! D4    D(4,1,2,7)             -9.1267         estimate D2E/DX2                !
 ! D5    D(5,1,2,6)             54.2            estimate D2E/DX2                !
 ! D6    D(5,1,2,7)           -130.8129         estimate D2E/DX2                !
 ! D7    D(1,2,6,8)            -80.6146         Frozen                          !
 ! D8    D(7,2,6,8)            104.1479         estimate D2E/DX2                !
 ! D9    D(2,6,8,9)            -62.8992         estimate D2E/DX2                !
 ! D10   D(2,6,8,10)           178.5836         estimate D2E/DX2                !
 ! D11   D(2,6,8,11)            59.7363         estimate D2E/DX2                !
 --------------------------------------------------------------------------------
 Trust Radius=3.00D-01 FncErr=1.00D-07 GrdErr=1.00D-06
 Number of steps in this run=     47 maximum allowed number of steps=    100.
 GradGradGradGradGradGradGradGradGradGradGradGradGradGradGradGradGradGrad

 Leave Link  103 at Wed May 26 09:01:14 2021, MaxMem=  2147483648 cpu:         0.1
 (Enter /opt/cluster/programs/g09_d.01/g09/l202.exe)
                          Input orientation:                          
 ---------------------------------------------------------------------
 Center     Atomic      Atomic             Coordinates (Angstroms)
 Number     Number       Type             X           Y           Z
 ---------------------------------------------------------------------
      1          6           0        1.190237   -1.148392   -0.047359
      2          6           0        0.553716    0.207101    0.062832
      3          1           0        1.316615   -1.564047    0.957608
      4          1           0        2.161820   -1.067377   -0.534092
      5          1           0        0.553820   -1.838982   -0.609267
      6          8           0       -0.735687    0.194860    0.592363
      7          8           0        1.110356    1.265401   -0.187736
      8          6           0       -1.849435   -0.147784   -0.284249
      9          1           0       -1.935153    0.591578   -1.085150
     10          1           0       -2.732760   -0.115681    0.349141
     11          1           0       -1.728798   -1.153134   -0.702605
 ---------------------------------------------------------------------
                    Distance matrix (angstroms):
                    1          2          3          4          5
     1  C    0.000000
     2  C    1.501553   0.000000
     3  H    1.094851   2.125936   0.000000
     4  H    1.089700   2.136963   1.784999   0.000000
     5  H    1.094386   2.153642   1.764240   1.785130   0.000000
     6  O    2.433671   1.393956   2.727472   3.355248   2.691330
     7  O    2.419191   1.221733   3.059433   2.582129   3.181920
     8  C    3.208884   2.453883   3.684004   4.122892   2.956590
     9  H    3.724590   2.767698   4.403814   4.454322   3.511278
    10  H    4.075980   3.314677   4.343436   5.063866   3.832743
    11  H    2.991678   2.765141   3.492806   3.895210   2.385256
                    6          7          8          9         10
     6  O    0.000000
     7  O    2.272111   0.000000
     8  C    1.458180   3.281276   0.000000
     9  H    2.100037   3.245692   1.093365   0.000000
    10  H    2.035655   4.118879   1.087417   1.787060   0.000000
    11  H    2.116672   3.764996   1.095584   1.798039   1.786174
                   11
    11  H    0.000000
 Stoichiometry    C3H6O2
 Framework group  C1[X(C3H6O2)]
 Deg. of freedom    27
 Full point group                 C1      NOp   1
 Largest Abelian subgroup         C1      NOp   1
 Largest concise Abelian subgroup C1      NOp   1
                         Standard orientation:                         
 ---------------------------------------------------------------------
 Center     Atomic      Atomic             Coordinates (Angstroms)
 Number     Number       Type             X           Y           Z
 ---------------------------------------------------------------------
      1          6           0       -1.190237    1.148392   -0.047359
      2          6           0       -0.553716   -0.207101    0.062832
      3          1           0       -1.316615    1.564047    0.957608
      4          1           0       -2.161820    1.067377   -0.534092
      5          1           0       -0.553820    1.838982   -0.609267
      6          8           0        0.735687   -0.194860    0.592363
      7          8           0       -1.110356   -1.265401   -0.187736
      8          6           0        1.849435    0.147784   -0.284249
      9          1           0        1.935153   -0.591578   -1.085150
     10          1           0        2.732760    0.115681    0.349141
     11          1           0        1.728798    1.153134   -0.702605
 ---------------------------------------------------------------------
 Rotational constants (GHZ):      8.2228077      4.1441402      3.1128330
 Leave Link  202 at Wed May 26 09:01:14 2021, MaxMem=  2147483648 cpu:         0.0
 (Enter /opt/cluster/programs/g09_d.01/g09/l301.exe)
 Standard basis: 6-31+G (6D, 7F)
 Ernie: Thresh=  0.10000D-02 Tol=  0.10000D-05 Strict=F.
 There are    77 symmetry adapted cartesian basis functions of A   symmetry.
 There are    77 symmetry adapted basis functions of A   symmetry.
    77 basis functions,   154 primitive gaussians,    77 cartesian basis functions
    20 alpha electrons       20 beta electrons
       nuclear repulsion energy       178.2800568572 Hartrees.
 IExCor= 4639 DFT=T Ex+Corr=wB97XD ExCW=0 ScaHFX=  1.000000
 ScaDFX=  1.000000  1.000000  1.000000  1.000000 ScalE2=  1.000000  1.000000
 IRadAn=      0 IRanWt=     -1 IRanGd=            0 ICorTp=0 IEmpDi=121
  HFx wShort=  0.000000 wLong=  0.200000 cFull=  0.222036 cShort=  0.000000 cLong=  0.777964
  DFx wShort=  0.000000 wLong=  0.200000 cFull=  0.000000 cShort=  0.000000 cLong=  1.000000
 NAtoms=   11 NActive=   11 NUniq=   11 SFac= 1.00D+00 NAtFMM=   60 NAOKFM=F Big=F
 Integral buffers will be    131072 words long.
 Raffenetti 2 integral format.
 Two-electron integral symmetry is turned on.
 R6Disp:  Grimme-D2 Dispersion energy=       -0.0035970198 Hartrees.
 Nuclear repulsion after empirical dispersion term =      178.2764598374 Hartrees.
 Leave Link  301 at Wed May 26 09:01:14 2021, MaxMem=  2147483648 cpu:         0.3
 (Enter /opt/cluster/programs/g09_d.01/g09/l302.exe)
 NPDir=0 NMtPBC=     1 NCelOv=     1 NCel=       1 NClECP=     1 NCelD=      1
         NCelK=      1 NCelE2=     1 NClLst=     1 CellRange=     0.0.
 One-electron integrals computed using PRISM.
 NBasis=    77 RedAO= T EigKep=  1.93D-04  NBF=    77
 NBsUse=    77 1.00D-06 EigRej= -1.00D+00 NBFU=    77
 Precomputing XC quadrature grid using
 IXCGrd= 4 IRadAn=           0 IRanWt=          -1 IRanGd=           0 AccXCQ= 0.00D+00.
 Generated NRdTot=       0 NPtTot=           0 NUsed=           0 NTot=          32
 NSgBfM=    77    77    77    77    77 MxSgAt=    11 MxSgA2=    11.
 Leave Link  302 at Wed May 26 09:01:14 2021, MaxMem=  2147483648 cpu:         0.9
 (Enter /opt/cluster/programs/g09_d.01/g09/l303.exe)
 DipDrv:  MaxL=1.
 Leave Link  303 at Wed May 26 09:01:14 2021, MaxMem=  2147483648 cpu:         0.2
 (Enter /opt/cluster/programs/g09_d.01/g09/l401.exe)
 ExpMin= 4.38D-02 ExpMax= 5.48D+03 ExpMxC= 8.25D+02 IAcc=2 IRadAn=         4 AccDes= 0.00D+00
 Harris functional with IExCor= 4639 and IRadAn=       4 diagonalized for initial guess.
 HarFok:  IExCor= 4639 AccDes= 0.00D+00 IRadAn=         4 IDoV= 1 UseB2=F ITyADJ=14
 ICtDFT=  3500011 ScaDFX=  1.000000  1.000000  1.000000  1.000000
 FoFCou: FMM=F IPFlag=           0 FMFlag=      100000 FMFlg1=           0
         NFxFlg=           0 DoJE=T BraDBF=F KetDBF=T FulRan=T
         wScrn=  0.000000 ICntrl=     500 IOpCl=  0 I1Cent=   200000004 NGrid=           0
         NMat0=    1 NMatS0=      1 NMatT0=    0 NMatD0=    1 NMtDS0=    0 NMtDT0=    0
 Petite list used in FoFCou.
 Harris En= -257.352970839218    
 JPrj=0 DoOrth=F DoCkMO=F.
 Leave Link  401 at Wed May 26 09:01:14 2021, MaxMem=  2147483648 cpu:         1.4
 (Enter /opt/cluster/programs/g09_d.01/g09/l502.exe)
 Closed shell SCF:
 Using DIIS extrapolation, IDIIS=  1040.
 Integral symmetry usage will be decided dynamically.
 Keep R1 ints in memory in canonical form, NReq=9956864.
 IVT=       37546 IEndB=       37546 NGot=  2147483648 MDV=  2138425091
 LenX=  2138425091 LenY=  2138418721
 Requested convergence on RMS density matrix=1.00D-08 within 128 cycles.
 Requested convergence on MAX density matrix=1.00D-06.
 Requested convergence on             energy=1.00D-06.
 No special actions if energy rises.
 FoFCou: FMM=F IPFlag=           0 FMFlag=           0 FMFlg1=           0
         NFxFlg=           0 DoJE=F BraDBF=F KetDBF=F FulRan=T
         wScrn=  0.000000 ICntrl=     600 IOpCl=  0 I1Cent=           0 NGrid=           0
         NMat0=    1 NMatS0=   3003 NMatT0=    0 NMatD0=    1 NMtDS0=    0 NMtDT0=    0
 Symmetry not used in FoFCou.

 Cycle   1  Pass 1  IDiag  1:
 E= -268.112734028445    
 DIIS: error= 2.26D-02 at cycle   1 NSaved=   1.
 NSaved= 1 IEnMin= 1 EnMin= -268.112734028445     IErMin= 1 ErrMin= 2.26D-02
 ErrMax= 2.26D-02  0.00D+00 EMaxC= 1.00D-01 BMatC= 1.35D-01 BMatP= 1.35D-01
 IDIUse=3 WtCom= 7.74D-01 WtEn= 2.26D-01
 Coeff-Com:  0.100D+01
 Coeff-En:   0.100D+01
 Coeff:      0.100D+01
 Gap=     0.531 Goal=   None    Shift=    0.000
 GapD=    0.531 DampG=2.000 DampE=0.500 DampFc=1.0000 IDamp=-1.
 RMSDP=9.48D-03 MaxDP=1.76D-01              OVMax= 9.12D-02

 Cycle   2  Pass 1  IDiag  1:
 E= -268.140609003189     Delta-E=       -0.027874974744 Rises=F Damp=F
 DIIS: error= 2.51D-02 at cycle   2 NSaved=   2.
 NSaved= 2 IEnMin= 2 EnMin= -268.140609003189     IErMin= 1 ErrMin= 2.26D-02
 ErrMax= 2.51D-02  0.00D+00 EMaxC= 1.00D-01 BMatC= 7.40D-02 BMatP= 1.35D-01
 IDIUse=3 WtCom= 7.49D-01 WtEn= 2.51D-01
 Coeff-Com:  0.413D+00 0.587D+00
 Coeff-En:   0.382D+00 0.618D+00
 Coeff:      0.405D+00 0.595D+00
 Gap=     0.419 Goal=   None    Shift=    0.000
 RMSDP=4.35D-03 MaxDP=6.85D-02 DE=-2.79D-02 OVMax= 5.76D-02

 Cycle   3  Pass 1  IDiag  1:
 E= -268.193372224910     Delta-E=       -0.052763221721 Rises=F Damp=F
 DIIS: error= 9.47D-03 at cycle   3 NSaved=   3.
 NSaved= 3 IEnMin= 3 EnMin= -268.193372224910     IErMin= 3 ErrMin= 9.47D-03
 ErrMax= 9.47D-03  0.00D+00 EMaxC= 1.00D-01 BMatC= 8.25D-03 BMatP= 7.40D-02
 IDIUse=3 WtCom= 9.05D-01 WtEn= 9.47D-02
 Coeff-Com:  0.830D-01 0.268D+00 0.649D+00
 Coeff-En:   0.000D+00 0.000D+00 0.100D+01
 Coeff:      0.751D-01 0.243D+00 0.682D+00
 Gap=     0.428 Goal=   None    Shift=    0.000
 RMSDP=1.45D-03 MaxDP=2.09D-02 DE=-5.28D-02 OVMax= 2.88D-02

 Cycle   4  Pass 1  IDiag  1:
 E= -268.198365564343     Delta-E=       -0.004993339433 Rises=F Damp=F
 DIIS: error= 4.20D-03 at cycle   4 NSaved=   4.
 NSaved= 4 IEnMin= 4 EnMin= -268.198365564343     IErMin= 4 ErrMin= 4.20D-03
 ErrMax= 4.20D-03  0.00D+00 EMaxC= 1.00D-01 BMatC= 1.52D-03 BMatP= 8.25D-03
 IDIUse=3 WtCom= 9.58D-01 WtEn= 4.20D-02
 Coeff-Com: -0.330D-02 0.609D-01 0.363D+00 0.580D+00
 Coeff-En:   0.000D+00 0.000D+00 0.126D+00 0.874D+00
 Coeff:     -0.316D-02 0.583D-01 0.353D+00 0.592D+00
 Gap=     0.409 Goal=   None    Shift=    0.000
 RMSDP=7.45D-04 MaxDP=1.10D-02 DE=-4.99D-03 OVMax= 1.07D-02

 Cycle   5  Pass 1  IDiag  1:
 E= -268.199443859352     Delta-E=       -0.001078295009 Rises=F Damp=F
 DIIS: error= 1.04D-03 at cycle   5 NSaved=   5.
 NSaved= 5 IEnMin= 5 EnMin= -268.199443859352     IErMin= 5 ErrMin= 1.04D-03
 ErrMax= 1.04D-03  0.00D+00 EMaxC= 1.00D-01 BMatC= 9.88D-05 BMatP= 1.52D-03
 IDIUse=3 WtCom= 9.90D-01 WtEn= 1.04D-02
 Coeff-Com: -0.532D-02 0.155D-01 0.154D+00 0.325D+00 0.511D+00
 Coeff-En:   0.000D+00 0.000D+00 0.000D+00 0.000D+00 0.100D+01
 Coeff:     -0.527D-02 0.154D-01 0.152D+00 0.321D+00 0.516D+00
 Gap=     0.406 Goal=   None    Shift=    0.000
 RMSDP=1.40D-04 MaxDP=2.28D-03 DE=-1.08D-03 OVMax= 2.60D-03

 Cycle   6  Pass 1  IDiag  1:
 E= -268.199522189666     Delta-E=       -0.000078330313 Rises=F Damp=F
 DIIS: error= 1.19D-04 at cycle   6 NSaved=   6.
 NSaved= 6 IEnMin= 6 EnMin= -268.199522189666     IErMin= 6 ErrMin= 1.19D-04
 ErrMax= 1.19D-04  0.00D+00 EMaxC= 1.00D-01 BMatC= 2.56D-06 BMatP= 9.88D-05
 IDIUse=3 WtCom= 9.99D-01 WtEn= 1.19D-03
 Coeff-Com: -0.387D-03-0.795D-02-0.264D-01-0.299D-01 0.897D-01 0.975D+00
 Coeff-En:   0.000D+00 0.000D+00 0.000D+00 0.000D+00 0.000D+00 0.100D+01
 Coeff:     -0.386D-03-0.794D-02-0.264D-01-0.299D-01 0.896D-01 0.975D+00
 Gap=     0.406 Goal=   None    Shift=    0.000
 RMSDP=1.42D-04 MaxDP=2.95D-03 DE=-7.83D-05 OVMax= 7.15D-04

 Cycle   7  Pass 1  IDiag  1:
 E= -268.199525981506     Delta-E=       -0.000003791840 Rises=F Damp=F
 DIIS: error= 3.98D-05 at cycle   7 NSaved=   7.
 NSaved= 7 IEnMin= 7 EnMin= -268.199525981506     IErMin= 7 ErrMin= 3.98D-05
 ErrMax= 3.98D-05  0.00D+00 EMaxC= 1.00D-01 BMatC= 2.12D-07 BMatP= 2.56D-06
 IDIUse=1 WtCom= 1.00D+00 WtEn= 0.00D+00
 Coeff-Com:  0.367D-03-0.377D-02-0.198D-01-0.342D-01 0.450D-04 0.300D+00
 Coeff-Com:  0.757D+00
 Coeff:      0.367D-03-0.377D-02-0.198D-01-0.342D-01 0.450D-04 0.300D+00
 Coeff:      0.757D+00
 Gap=     0.406 Goal=   None    Shift=    0.000
 RMSDP=2.49D-05 MaxDP=4.56D-04 DE=-3.79D-06 OVMax= 1.74D-04

 Cycle   8  Pass 1  IDiag  1:
 E= -268.199526308168     Delta-E=       -0.000000326662 Rises=F Damp=F
 DIIS: error= 9.89D-06 at cycle   8 NSaved=   8.
 NSaved= 8 IEnMin= 8 EnMin= -268.199526308168     IErMin= 8 ErrMin= 9.89D-06
 ErrMax= 9.89D-06  0.00D+00 EMaxC= 1.00D-01 BMatC= 1.13D-08 BMatP= 2.12D-07
 IDIUse=1 WtCom= 1.00D+00 WtEn= 0.00D+00
 Coeff-Com:  0.645D-05 0.694D-03 0.238D-02 0.218D-02-0.355D-02-0.970D-01
 Coeff-Com: -0.359D-02 0.110D+01
 Coeff:      0.645D-05 0.694D-03 0.238D-02 0.218D-02-0.355D-02-0.970D-01
 Coeff:     -0.359D-02 0.110D+01
 Gap=     0.406 Goal=   None    Shift=    0.000
 RMSDP=6.89D-06 MaxDP=6.55D-05 DE=-3.27D-07 OVMax= 8.72D-05

 Cycle   9  Pass 1  IDiag  1:
 E= -268.199526336070     Delta-E=       -0.000000027901 Rises=F Damp=F
 DIIS: error= 1.98D-06 at cycle   9 NSaved=   9.
 NSaved= 9 IEnMin= 9 EnMin= -268.199526336070     IErMin= 9 ErrMin= 1.98D-06
 ErrMax= 1.98D-06  0.00D+00 EMaxC= 1.00D-01 BMatC= 3.65D-10 BMatP= 1.13D-08
 IDIUse=1 WtCom= 1.00D+00 WtEn= 0.00D+00
 Coeff-Com: -0.152D-04 0.151D-03 0.857D-03 0.151D-02 0.123D-02-0.935D-02
 Coeff-Com: -0.351D-01-0.699D-01 0.111D+01
 Coeff:     -0.152D-04 0.151D-03 0.857D-03 0.151D-02 0.123D-02-0.935D-02
 Coeff:     -0.351D-01-0.699D-01 0.111D+01
 Gap=     0.406 Goal=   None    Shift=    0.000
 RMSDP=2.11D-06 MaxDP=3.51D-05 DE=-2.79D-08 OVMax= 2.58D-05

 Cycle  10  Pass 1  IDiag  1:
 E= -268.199526337346     Delta-E=       -0.000000001276 Rises=F Damp=F
 DIIS: error= 6.40D-07 at cycle  10 NSaved=  10.
 NSaved=10 IEnMin=10 EnMin= -268.199526337346     IErMin=10 ErrMin= 6.40D-07
 ErrMax= 6.40D-07  0.00D+00 EMaxC= 1.00D-01 BMatC= 2.42D-11 BMatP= 3.65D-10
 IDIUse=1 WtCom= 1.00D+00 WtEn= 0.00D+00
 Coeff-Com:  0.292D-07-0.347D-04-0.123D-03-0.138D-03 0.348D-03 0.481D-02
 Coeff-Com:  0.771D-05-0.527D-01-0.691D-03 0.105D+01
 Coeff:      0.292D-07-0.347D-04-0.123D-03-0.138D-03 0.348D-03 0.481D-02
 Coeff:      0.771D-05-0.527D-01-0.691D-03 0.105D+01
 Gap=     0.406 Goal=   None    Shift=    0.000
 RMSDP=5.58D-07 MaxDP=1.04D-05 DE=-1.28D-09 OVMax= 8.35D-06

 Cycle  11  Pass 1  IDiag  1:
 E= -268.199526337438     Delta-E=       -0.000000000092 Rises=F Damp=F
 DIIS: error= 2.34D-07 at cycle  11 NSaved=  11.
 NSaved=11 IEnMin=11 EnMin= -268.199526337438     IErMin=11 ErrMin= 2.34D-07
 ErrMax= 2.34D-07  0.00D+00 EMaxC= 1.00D-01 BMatC= 4.98D-12 BMatP= 2.42D-11
 IDIUse=1 WtCom= 1.00D+00 WtEn= 0.00D+00
 Coeff-Com:  0.146D-05-0.264D-04-0.127D-03-0.203D-03-0.249D-04 0.243D-02
 Coeff-Com:  0.354D-02-0.840D-02-0.119D+00 0.332D+00 0.790D+00
 Coeff:      0.146D-05-0.264D-04-0.127D-03-0.203D-03-0.249D-04 0.243D-02
 Coeff:      0.354D-02-0.840D-02-0.119D+00 0.332D+00 0.790D+00
 Gap=     0.406 Goal=   None    Shift=    0.000
 RMSDP=1.13D-07 MaxDP=1.67D-06 DE=-9.19D-11 OVMax= 2.86D-06

 Cycle  12  Pass 1  IDiag  1:
 E= -268.199526337450     Delta-E=       -0.000000000012 Rises=F Damp=F
 DIIS: error= 9.60D-08 at cycle  12 NSaved=  12.
 NSaved=12 IEnMin=12 EnMin= -268.199526337450     IErMin=12 ErrMin= 9.60D-08
 ErrMax= 9.60D-08  0.00D+00 EMaxC= 1.00D-01 BMatC= 3.57D-13 BMatP= 4.98D-12
 IDIUse=1 WtCom= 1.00D+00 WtEn= 0.00D+00
 Coeff-Com: -0.141D-06 0.704D-05 0.272D-04 0.347D-04-0.711D-04-0.882D-03
 Coeff-Com: -0.354D-03 0.833D-02 0.102D-01-0.180D+00-0.729D-01 0.124D+01
 Coeff:     -0.141D-06 0.704D-05 0.272D-04 0.347D-04-0.711D-04-0.882D-03
 Coeff:     -0.354D-03 0.833D-02 0.102D-01-0.180D+00-0.729D-01 0.124D+01
 Gap=     0.406 Goal=   None    Shift=    0.000
 RMSDP=3.98D-08 MaxDP=4.75D-07 DE=-1.23D-11 OVMax= 1.66D-06

 Cycle  13  Pass 1  IDiag  1:
 E= -268.199526337452     Delta-E=       -0.000000000002 Rises=F Damp=F
 DIIS: error= 1.57D-08 at cycle  13 NSaved=  13.
 NSaved=13 IEnMin=13 EnMin= -268.199526337452     IErMin=13 ErrMin= 1.57D-08
 ErrMax= 1.57D-08  0.00D+00 EMaxC= 1.00D-01 BMatC= 1.32D-14 BMatP= 3.57D-13
 IDIUse=1 WtCom= 1.00D+00 WtEn= 0.00D+00
 Coeff-Com: -0.426D-07-0.120D-06 0.127D-05 0.414D-05 0.110D-04 0.754D-04
 Coeff-Com: -0.982D-04-0.128D-02 0.364D-02 0.208D-01-0.220D-01-0.254D+00
 Coeff-Com:  0.125D+01
 Coeff:     -0.426D-07-0.120D-06 0.127D-05 0.414D-05 0.110D-04 0.754D-04
 Coeff:     -0.982D-04-0.128D-02 0.364D-02 0.208D-01-0.220D-01-0.254D+00
 Coeff:      0.125D+01
 Gap=     0.406 Goal=   None    Shift=    0.000
 RMSDP=1.15D-08 MaxDP=1.74D-07 DE=-1.82D-12 OVMax= 2.56D-07

 Cycle  14  Pass 1  IDiag  1:
 E= -268.199526337450     Delta-E=        0.000000000002 Rises=F Damp=F
 DIIS: error= 2.98D-09 at cycle  14 NSaved=  14.
 NSaved=14 IEnMin=13 EnMin= -268.199526337452     IErMin=14 ErrMin= 2.98D-09
 ErrMax= 2.98D-09  0.00D+00 EMaxC= 1.00D-01 BMatC= 4.86D-16 BMatP= 1.32D-14
 IDIUse=1 WtCom= 1.00D+00 WtEn= 0.00D+00
 Coeff-Com:  0.152D-07-0.110D-06-0.100D-05-0.176D-05-0.172D-05 0.685D-06
 Coeff-Com:  0.376D-04 0.125D-03-0.126D-02-0.621D-03 0.815D-02 0.357D-01
 Coeff-Com: -0.361D+00 0.132D+01
 Coeff:      0.152D-07-0.110D-06-0.100D-05-0.176D-05-0.172D-05 0.685D-06
 Coeff:      0.376D-04 0.125D-03-0.126D-02-0.621D-03 0.815D-02 0.357D-01
 Coeff:     -0.361D+00 0.132D+01
 Gap=     0.406 Goal=   None    Shift=    0.000
 RMSDP=1.86D-09 MaxDP=2.07D-08 DE= 2.16D-12 OVMax= 4.53D-08

 SCF Done:  E(RwB97XD) =  -268.199526337     A.U. after   14 cycles
            NFock= 14  Conv=0.19D-08     -V/T= 2.0057
 KE= 2.666686448007D+02 PE=-9.840735237057D+02 EE= 2.709288927302D+02
 Leave Link  502 at Wed May 26 09:01:16 2021, MaxMem=  2147483648 cpu:        15.4
 (Enter /opt/cluster/programs/g09_d.01/g09/l601.exe)
 Copying SCF densities to generalized density rwf, IOpCl= 0 IROHF=0.

 **********************************************************************

            Population analysis using the SCF density.

 **********************************************************************

 Orbital symmetries:
       Occupied  (A) (A) (A) (A) (A) (A) (A) (A) (A) (A) (A) (A)
                 (A) (A) (A) (A) (A) (A) (A) (A)
       Virtual   (A) (A) (A) (A) (A) (A) (A) (A) (A) (A) (A) (A)
                 (A) (A) (A) (A) (A) (A) (A) (A) (A) (A) (A) (A)
                 (A) (A) (A) (A) (A) (A) (A) (A) (A) (A) (A) (A)
                 (A) (A) (A) (A) (A) (A) (A) (A) (A) (A) (A) (A)
                 (A) (A) (A) (A) (A) (A) (A) (A) (A)
 The electronic state is 1-A.
 Alpha  occ. eigenvalues --  -19.30550 -19.28697 -10.45546 -10.36696 -10.31769
 Alpha  occ. eigenvalues --   -1.21492  -1.13813  -0.87422  -0.82593  -0.66682
 Alpha  occ. eigenvalues --   -0.59902  -0.58392  -0.57487  -0.53453  -0.52300
 Alpha  occ. eigenvalues --   -0.50925  -0.47388  -0.42677  -0.38172  -0.36617
 Alpha virt. eigenvalues --    0.03998   0.06562   0.07830   0.09735   0.09938
 Alpha virt. eigenvalues --    0.11407   0.12455   0.12992   0.14680   0.14810
 Alpha virt. eigenvalues --    0.16261   0.17145   0.19528   0.22667   0.23609
 Alpha virt. eigenvalues --    0.26923   0.27641   0.28134   0.29795   0.32605
 Alpha virt. eigenvalues --    0.32871   0.35214   0.36221   0.38018   0.38334
 Alpha virt. eigenvalues --    0.39809   0.40874   0.42593   0.43633   0.46359
 Alpha virt. eigenvalues --    0.56224   0.71353   0.72377   0.74381   0.75838
 Alpha virt. eigenvalues --    0.78846   0.80551   0.87168   0.91007   0.93237
 Alpha virt. eigenvalues --    1.06166   1.09753   1.11248   1.14791   1.16123
 Alpha virt. eigenvalues --    1.20195   1.24521   1.28811   1.33468   1.38933
 Alpha virt. eigenvalues --    1.41393   1.44358   1.47515   1.53771   1.60686
 Alpha virt. eigenvalues --    1.91332   2.01023
          Condensed to atoms (all electrons):
               1          2          3          4          5          6
     1  C    6.598414  -0.326287   0.358312   0.348471   0.353319  -0.464450
     2  C   -0.326287   5.633980  -0.019841  -0.014966  -0.033756   0.198076
     3  H    0.358312  -0.019841   0.448591  -0.019925  -0.023147   0.000012
     4  H    0.348471  -0.014966  -0.019925   0.458749  -0.024302   0.009584
     5  H    0.353319  -0.033756  -0.023147  -0.024302   0.496594   0.002768
     6  O   -0.464450   0.198076   0.000012   0.009584   0.002768   8.785719
     7  O   -0.178374   0.347186  -0.000446  -0.001914   0.004546  -0.186176
     8  C   -0.066326  -0.131356  -0.000836   0.000858   0.007324   0.126765
     9  H   -0.000571  -0.005917  -0.000010   0.000029  -0.000200  -0.056652
    10  H   -0.002470  -0.000977  -0.000009   0.000002   0.000072  -0.051046
    11  H    0.005220   0.005767   0.000202  -0.000167   0.001382  -0.051116
               7          8          9         10         11
     1  C   -0.178374  -0.066326  -0.000571  -0.002470   0.005220
     2  C    0.347186  -0.131356  -0.005917  -0.000977   0.005767
     3  H   -0.000446  -0.000836  -0.000010  -0.000009   0.000202
     4  H   -0.001914   0.000858   0.000029   0.000002  -0.000167
     5  H    0.004546   0.007324  -0.000200   0.000072   0.001382
     6  O   -0.186176   0.126765  -0.056652  -0.051046  -0.051116
     7  O    8.381432  -0.002221   0.009573  -0.000648  -0.003393
     8  C   -0.002221   5.303229   0.386999   0.401633   0.367186
     9  H    0.009573   0.386999   0.517884  -0.027513  -0.042537
    10  H   -0.000648   0.401633  -0.027513   0.478901  -0.028689
    11  H   -0.003393   0.367186  -0.042537  -0.028689   0.558407
 Mulliken charges:
               1
     1  C   -0.625257
     2  C    0.348091
     3  H    0.257096
     4  H    0.243579
     5  H    0.215398
     6  O   -0.313485
     7  O   -0.369565
     8  C   -0.393256
     9  H    0.218916
    10  H    0.230746
    11  H    0.187738
 Sum of Mulliken charges =   0.00000
 Mulliken charges with hydrogens summed into heavy atoms:
               1
     1  C    0.090816
     2  C    0.348091
     6  O   -0.313485
     7  O   -0.369565
     8  C    0.244143
 Electronic spatial extent (au):  <R**2>=            436.1544
 Charge=              0.0000 electrons
 Dipole moment (field-independent basis, Debye):
    X=              1.6519    Y=              3.6361    Z=             -1.1950  Tot=              4.1687
 Quadrupole moment (field-independent basis, Debye-Ang):
   XX=            -27.2376   YY=            -33.4841   ZZ=            -31.0794
   XY=             -3.3004   XZ=             -2.5743   YZ=             -0.0852
 Traceless Quadrupole moment (field-independent basis, Debye-Ang):
   XX=              3.3627   YY=             -2.8837   ZZ=             -0.4790
   XY=             -3.3004   XZ=             -2.5743   YZ=             -0.0852
 Octapole moment (field-independent basis, Debye-Ang**2):
  XXX=             11.7527  YYY=              4.4636  ZZZ=              0.3530  XYY=              3.5223
  XXY=              4.6242  XXZ=              0.2250  XZZ=             -1.1741  YZZ=             -0.2852
  YYZ=              0.4166  XYZ=              1.0417
 Hexadecapole moment (field-independent basis, Debye-Ang**3):
 XXXX=           -306.2562 YYYY=           -173.9071 ZZZZ=            -60.6989 XXXY=             -4.7296
 XXXZ=              5.0808 YYYX=             -2.2974 YYYZ=             -0.5130 ZZZX=             -1.5771
 ZZZY=              2.4340 XXYY=            -87.9336 XXZZ=            -63.3911 YYZZ=            -36.0806
 XXYZ=             -0.3120 YYXZ=             -2.9974 ZZXY=             -0.4516
 N-N= 1.782764598374D+02 E-N=-9.840735237502D+02  KE= 2.666686448007D+02
 No NMR shielding tensors so no spin-rotation constants.
 Leave Link  601 at Wed May 26 09:01:16 2021, MaxMem=  2147483648 cpu:         0.6
 (Enter /opt/cluster/programs/g09_d.01/g09/l701.exe)
 Compute integral first derivatives.
 ... and contract with generalized density number  0.
 R6Disp: Adding Grimme-D2 dispersion energy 1st derivatives to the gradient.
 Leave Link  701 at Wed May 26 09:01:16 2021, MaxMem=  2147483648 cpu:         0.6
 (Enter /opt/cluster/programs/g09_d.01/g09/l702.exe)
 L702 exits ... SP integral derivatives will be done elsewhere.
 Leave Link  702 at Wed May 26 09:01:16 2021, MaxMem=  2147483648 cpu:         0.2
 (Enter /opt/cluster/programs/g09_d.01/g09/l703.exe)
 Compute integral first derivatives, UseDBF=F ICtDFT=           0.
 Integral derivatives from FoFJK, PRISM(SPDF).
 Calling FoFJK, ICntrl=      2127 FMM=F ISym2X=0 I1Cent= 0 IOpClX= 0 NMat=1 NMatS=1 NMatT=0.
 FoFJK:  IHMeth= 1 ICntrl=    2127 DoSepK=T KAlg= 0 I1Cent=   0 FoldK=F
 IRaf=         1 NMat=   1 IRICut=       1 DoRegI=T DoRafI=F ISym2E= 0.
 FoFCou: FMM=F IPFlag=           0 FMFlag=      100000 FMFlg1=         800
         NFxFlg=           0 DoJE=F BraDBF=F KetDBF=F FulRan=T
         wScrn=  0.000000 ICntrl=    2527 IOpCl=  0 I1Cent=           0 NGrid=           0
         NMat0=    1 NMatS0=      1 NMatT0=    0 NMatD0=    1 NMtDS0=    0 NMtDT0=    0
 Symmetry not used in FoFCou.
 Leave Link  703 at Wed May 26 09:01:17 2021, MaxMem=  2147483648 cpu:         3.6
 (Enter /opt/cluster/programs/g09_d.01/g09/l716.exe)
 Dipole        = 6.49922423D-01 1.43054342D+00-4.70137638D-01
 ***** Axes restored to original set *****
 -------------------------------------------------------------------
 Center     Atomic                   Forces (Hartrees/Bohr)
 Number     Number              X              Y              Z
 -------------------------------------------------------------------
      1        6          -0.000139902   -0.000009788   -0.000452554
      2        6           0.000143014   -0.000164125    0.000804190
      3        1          -0.000007609   -0.000042799   -0.000025982
      4        1          -0.000003388    0.000018144   -0.000002836
      5        1          -0.000011227    0.000006941   -0.000032226
      6        8          -0.000032187    0.000591044   -0.000532515
      7        8           0.000003676    0.000015928    0.000042105
      8        6           0.000050787   -0.000417998    0.000196924
      9        1           0.000004964    0.000027620    0.000027983
     10        1          -0.000021532   -0.000025825   -0.000002653
     11        1           0.000013405    0.000000858   -0.000022436
 -------------------------------------------------------------------
 Cartesian Forces:  Max     0.000804190 RMS     0.000232129
 Leave Link  716 at Wed May 26 09:01:17 2021, MaxMem=  2147483648 cpu:         0.2
 (Enter /opt/cluster/programs/g09_d.01/g09/l103.exe)

 GradGradGradGradGradGradGradGradGradGradGradGradGradGradGradGradGradGrad
 Berny optimization.
 FormGI is forming the generalized inverse of G from B-inverse, IUseBI=4.
 Internal  Forces:  Max     0.000711446 RMS     0.000153518
 Search for a local minimum.
 Step number   1 out of a maximum of   47
 All quantities printed in internal units (Hartrees-Bohrs-Radians)
 RMS Force = .37577D-04 SwitMx=.10000D-02 MixMth= 2
 Mixed Optimization -- En-DIIS/RFO-DIIS
 Second derivative matrix not updated -- first step.
 ITU=  0
     Eigenvalues ---    0.00745   0.00922   0.01150   0.07273   0.07540
     Eigenvalues ---    0.09993   0.10603   0.16000   0.16000   0.16000
     Eigenvalues ---    0.16000   0.16000   0.16000   0.24915   0.25000
     Eigenvalues ---    0.25000   0.32215   0.34175   0.34258   0.34311
     Eigenvalues ---    0.34427   0.34847   0.35113   0.37193   0.46637
     Eigenvalues ---    0.946201000.000001000.000001000.000001000.00000
     Eigenvalues --- 1000.000001000.000001000.000001000.000001000.00000
     Eigenvalues --- 1000.000001000.00000
 RFO step:  Lambda=-1.81332402D-07 EMin= 7.45400256D-03
 Linear search not attempted -- first point.
 Iteration  1 RMS(Cart)=  0.00021090 RMS(Int)=  0.00000006
 Iteration  2 RMS(Cart)=  0.00000011 RMS(Int)=  0.00000003
 Iteration  1 RMS(Cart)=  0.00000000 RMS(Int)=  0.00000000
 ITry= 1 IFail=0 DXMaxC= 5.31D-04 DCOld= 1.00D+10 DXMaxT= 3.00D-01 DXLimC= 3.00D+00 Rises=F
 Variable       Old X    -DE/DX   Delta X   Delta X   Delta X     New X
                                 (Linear)    (Quad)   (Total)
    R1        2.83752  -0.00001   0.00000  -0.00004  -0.00004   2.83749
    R2        2.06897   0.00001   0.00000   0.00002   0.00002   2.06899
    R3        2.05923  -0.00001   0.00000  -0.00003  -0.00003   2.05921
    R4        2.06809   0.00001   0.00000   0.00003   0.00003   2.06812
    R5        2.63419  -0.00015   0.00000  -0.00033  -0.00033   2.63387
    R6        2.30874   0.00002   0.00000   0.00002   0.00002   2.30876
    R7        2.75556  -0.00005   0.00000  -0.00014  -0.00014   2.75542
    R8        2.06616   0.00000   0.00000   0.00000   0.00000   2.06616
    R9        2.05492   0.00001   0.00000   0.00004   0.00004   2.05496
   R10        2.07035   0.00001   0.00000   0.00003   0.00003   2.07038
    A1        1.90105   0.00001   0.00000   0.00002   0.00002   1.90107
    A2        1.92157   0.00001   0.00000   0.00007   0.00007   1.92164
    A3        1.93993  -0.00001   0.00000  -0.00006  -0.00006   1.93987
    A4        1.91272   0.00000   0.00000   0.00002   0.00002   1.91274
    A5        1.87429  -0.00001   0.00000  -0.00015  -0.00015   1.87414
    A6        1.91354   0.00001   0.00000   0.00010   0.00010   1.91364
    A7        1.99551  -0.00001   0.00000  -0.00002  -0.00002   1.99549
    A8        2.18191   0.00003   0.00000   0.00002   0.00002   2.18192
    A9        2.10245   0.00000   0.00000   0.00007   0.00007   2.10252
   A10        2.07168   0.00015   0.00000   0.00058   0.00058   2.07226
   A11        1.91914  -0.00001   0.00000  -0.00006  -0.00006   1.91909
   A12        1.83728   0.00003   0.00000   0.00019   0.00019   1.83746
   A13        1.94023  -0.00002   0.00000  -0.00015  -0.00015   1.94008
   A14        1.92093   0.00000   0.00000   0.00001   0.00001   1.92093
   A15        1.92778   0.00001   0.00000   0.00003   0.00003   1.92781
   A16        1.91660   0.00000   0.00000  -0.00002  -0.00002   1.91659
    D1       -1.11567  -0.00014   0.00000  -0.00034  -0.00034  -1.11601
    D2        1.93843   0.00015   0.00000   0.00044   0.00044   1.93887
    D3        3.06979  -0.00014   0.00000  -0.00042  -0.00042   3.06937
    D4       -0.15929   0.00015   0.00000   0.00036   0.00036  -0.15893
    D5        0.94597  -0.00015   0.00000  -0.00055  -0.00055   0.94542
    D6       -2.28312   0.00014   0.00000   0.00023   0.00023  -2.28289
    D7       -1.40699   0.00071   0.00000   0.00000   0.00000  -1.40699
    D8        1.81772   0.00043   0.00000  -0.00074  -0.00074   1.81699
    D9       -1.09780   0.00001   0.00000   0.00033   0.00033  -1.09747
   D10        3.11687   0.00000   0.00000   0.00024   0.00024   3.11712
   D11        1.04260   0.00000   0.00000   0.00023   0.00023   1.04282
         Item               Value     Threshold  Converged?
 Maximum Force            0.000153     0.000450     YES
 RMS     Force            0.000038     0.000300     YES
 Maximum Displacement     0.000531     0.001800     YES
 RMS     Displacement     0.000211     0.001200     YES
 Predicted change in Energy=-9.065965D-08
 Optimization completed.
    -- Stationary point found.
                           ----------------------------
                           !   Optimized Parameters   !
                           ! (Angstroms and Degrees)  !
 --------------------------                            --------------------------
 ! Name  Definition              Value          Derivative Info.                !
 --------------------------------------------------------------------------------
 ! R1    R(1,2)                  1.5016         -DE/DX =    0.0                 !
 ! R2    R(1,3)                  1.0949         -DE/DX =    0.0                 !
 ! R3    R(1,4)                  1.0897         -DE/DX =    0.0                 !
 ! R4    R(1,5)                  1.0944         -DE/DX =    0.0                 !
 ! R5    R(2,6)                  1.394          -DE/DX =   -0.0002              !
 ! R6    R(2,7)                  1.2217         -DE/DX =    0.0                 !
 ! R7    R(6,8)                  1.4582         -DE/DX =   -0.0001              !
 ! R8    R(8,9)                  1.0934         -DE/DX =    0.0                 !
 ! R9    R(8,10)                 1.0874         -DE/DX =    0.0                 !
 ! R10   R(8,11)                 1.0956         -DE/DX =    0.0                 !
 ! A1    A(2,1,3)              108.9224         -DE/DX =    0.0                 !
 ! A2    A(2,1,4)              110.0978         -DE/DX =    0.0                 !
 ! A3    A(2,1,5)              111.15           -DE/DX =    0.0                 !
 ! A4    A(3,1,4)              109.5911         -DE/DX =    0.0                 !
 ! A5    A(3,1,5)              107.3886         -DE/DX =    0.0                 !
 ! A6    A(4,1,5)              109.6376         -DE/DX =    0.0                 !
 ! A7    A(1,2,6)              114.3345         -DE/DX =    0.0                 !
 ! A8    A(1,2,7)              125.0141         -DE/DX =    0.0                 !
 ! A9    A(6,2,7)              120.4614         -DE/DX =    0.0                 !
 ! A10   A(2,6,8)              118.6984         -DE/DX =    0.0001              !
 ! A11   A(6,8,9)              109.9587         -DE/DX =    0.0                 !
 ! A12   A(6,8,10)             105.2683         -DE/DX =    0.0                 !
 ! A13   A(6,8,11)             111.1668         -DE/DX =    0.0                 !
 ! A14   A(9,8,10)             110.0609         -DE/DX =    0.0                 !
 ! A15   A(9,8,11)             110.4537         -DE/DX =    0.0                 !
 ! A16   A(10,8,11)            109.8134         -DE/DX =    0.0                 !
 ! D1    D(3,1,2,6)            -63.9231         -DE/DX =   -0.0001              !
 ! D2    D(3,1,2,7)            111.064          -DE/DX =    0.0002              !
 ! D3    D(4,1,2,6)            175.8862         -DE/DX =   -0.0001              !
 ! D4    D(4,1,2,7)             -9.1267         -DE/DX =    0.0001              !
 ! D5    D(5,1,2,6)             54.2            -DE/DX =   -0.0002              !
 ! D6    D(5,1,2,7)           -130.8129         -DE/DX =    0.0001              !
 ! D7    D(1,2,6,8)            -80.6146         -DE/DX =    0.0007              !
 ! D8    D(7,2,6,8)            104.1479         -DE/DX =    0.0004              !
 ! D9    D(2,6,8,9)            -62.8992         -DE/DX =    0.0                 !
 ! D10   D(2,6,8,10)           178.5836         -DE/DX =    0.0                 !
 ! D11   D(2,6,8,11)            59.7363         -DE/DX =    0.0                 !
 --------------------------------------------------------------------------------
 Lowest energy point so far.  Saving SCF results.
 GradGradGradGradGradGradGradGradGradGradGradGradGradGradGradGradGradGrad

 Largest change from initial coordinates is atom   10       0.000 Angstoms.
 Leave Link  103 at Wed May 26 09:01:17 2021, MaxMem=  2147483648 cpu:         0.0
 (Enter /opt/cluster/programs/g09_d.01/g09/l202.exe)
                          Input orientation:                          
 ---------------------------------------------------------------------
 Center     Atomic      Atomic             Coordinates (Angstroms)
 Number     Number       Type             X           Y           Z
 ---------------------------------------------------------------------
      1          6           0        1.190237   -1.148392   -0.047359
      2          6           0        0.553716    0.207101    0.062832
      3          1           0        1.316615   -1.564047    0.957608
      4          1           0        2.161820   -1.067377   -0.534092
      5          1           0        0.553820   -1.838982   -0.609267
      6          8           0       -0.735687    0.194860    0.592363
      7          8           0        1.110356    1.265401   -0.187736
      8          6           0       -1.849435   -0.147784   -0.284249
      9          1           0       -1.935153    0.591578   -1.085150
     10          1           0       -2.732760   -0.115681    0.349141
     11          1           0       -1.728798   -1.153134   -0.702605
 ---------------------------------------------------------------------
                    Distance matrix (angstroms):
                    1          2          3          4          5
     1  C    0.000000
     2  C    1.501553   0.000000
     3  H    1.094851   2.125936   0.000000
     4  H    1.089700   2.136963   1.784999   0.000000
     5  H    1.094386   2.153642   1.764240   1.785130   0.000000
     6  O    2.433671   1.393956   2.727472   3.355248   2.691330
     7  O    2.419191   1.221733   3.059433   2.582129   3.181920
     8  C    3.208884   2.453883   3.684004   4.122892   2.956590
     9  H    3.724590   2.767698   4.403814   4.454322   3.511278
    10  H    4.075980   3.314677   4.343436   5.063866   3.832743
    11  H    2.991678   2.765141   3.492806   3.895210   2.385256
                    6          7          8          9         10
     6  O    0.000000
     7  O    2.272111   0.000000
     8  C    1.458180   3.281276   0.000000
     9  H    2.100037   3.245692   1.093365   0.000000
    10  H    2.035655   4.118879   1.087417   1.787060   0.000000
    11  H    2.116672   3.764996   1.095584   1.798039   1.786174
                   11
    11  H    0.000000
 Stoichiometry    C3H6O2
 Framework group  C1[X(C3H6O2)]
 Deg. of freedom    27
 Full point group                 C1      NOp   1
 RotChk:  IX=0 Diff= 3.92D-16
 Largest Abelian subgroup         C1      NOp   1
 Largest concise Abelian subgroup C1      NOp   1
                         Standard orientation:                         
 ---------------------------------------------------------------------
 Center     Atomic      Atomic             Coordinates (Angstroms)
 Number     Number       Type             X           Y           Z
 ---------------------------------------------------------------------
      1          6           0       -1.190237    1.148392   -0.047359
      2          6           0       -0.553716   -0.207101    0.062832
      3          1           0       -1.316615    1.564047    0.957608
      4          1           0       -2.161820    1.067377   -0.534092
      5          1           0       -0.553820    1.838982   -0.609267
      6          8           0        0.735687   -0.194860    0.592363
      7          8           0       -1.110356   -1.265401   -0.187736
      8          6           0        1.849435    0.147784   -0.284249
      9          1           0        1.935153   -0.591578   -1.085150
     10          1           0        2.732760    0.115681    0.349141
     11          1           0        1.728798    1.153134   -0.702605
 ---------------------------------------------------------------------
 Rotational constants (GHZ):      8.2228077      4.1441402      3.1128330
 Leave Link  202 at Wed May 26 09:01:17 2021, MaxMem=  2147483648 cpu:         0.0
 (Enter /opt/cluster/programs/g09_d.01/g09/l9999.exe)
 1\1\GINC-NODE07\FOpt\RwB97XD\6-31+G\C3H6O2\BOITTIER\26-May-2021\0\\#p 
 wB97XD/6-31+G Opt=ModRedun\\O.pdb\\0,1\C,1.190237,-1.148392,-0.047359\
 C,0.553716,0.207101,0.062832\H,1.316615,-1.564047,0.957608\H,2.16182,-
 1.067377,-0.534092\H,0.55382,-1.838982,-0.609267\O,-0.735687,0.19486,0
 .592363\O,1.110356,1.265401,-0.187736\C,-1.849435,-0.147784,-0.284249\
 H,-1.935153,0.591578,-1.08515\H,-2.73276,-0.115681,0.349141\H,-1.72879
 8,-1.153134,-0.702605\\Version=ES64L-G09RevD.01\State=1-A\HF=-268.1995
 263\RMSD=1.864e-09\RMSF=2.321e-04\Dipole=-0.6499225,-1.4305434,-0.4701
 376\Quadrupole=2.5001151,-2.1439646,-0.3561504,-2.4537973,1.9139627,0.
 0633199\PG=C01 [X(C3H6O2)]\\@


 TELEVISION IS CALLED A MEDIUM BECAUSE IT ISN'T
 RARE, AND IT ISN'T WELL DONE.
 Job cpu time:       0 days  0 hours  0 minutes 28.5 seconds.
 File lengths (MBytes):  RWF=      5 Int=      0 D2E=      0 Chk=      2 Scr=      1
 Normal termination of Gaussian 09 at Wed May 26 09:01:17 2021.
