N.pdb                                                                   
FOpt      RwB97XD                                                     6-31+G              
Number of atoms                            I               13
Info1-9                                    I   N=           9
          24          24           0           0           0         100
           2          18        -802
Charge                                     I                0
Multiplicity                               I                1
Number of electrons                        I               64
Number of alpha electrons                  I               32
Number of beta electrons                   I               32
Number of basis functions                  I              114
Number of independent functions            I              114
Number of point charges in /Mol/           I                0
Number of translation vectors              I                0
Atomic numbers                             I   N=          13
           6           6           1           1           1           6
           8           6           1           1           9           9
           9
Nuclear charges                            R   N=          13
  6.00000000E+00  6.00000000E+00  1.00000000E+00  1.00000000E+00  1.00000000E+00
  6.00000000E+00  8.00000000E+00  6.00000000E+00  1.00000000E+00  1.00000000E+00
  9.00000000E+00  9.00000000E+00  9.00000000E+00
Current cartesian coordinates              R   N=          39
  4.36424549E+00 -1.89842937E+00 -1.81651814E-01  2.77515162E+00  3.85309992E-01
  3.72765487E-01  4.95172563E+00 -2.79781605E+00  1.59136672E+00  6.03606152E+00
 -1.35231328E+00 -1.25512208E+00  3.26931579E+00 -3.29427203E+00 -1.24965321E+00
  2.74511139E-01 -6.05336273E-02  1.76391384E+00  3.42552686E+00  2.55078321E+00
 -1.82987851E-01 -1.97533821E+00 -6.51544872E-02  2.40070808E-02 -2.06194245E-03
  1.45592240E+00  3.13815858E+00  2.90475931E-01 -1.87337814E+00  2.75064190E+00
 -2.35415320E+00  2.21552378E+00 -1.19209027E+00 -4.18738915E+00 -6.12559486E-01
  1.33999724E+00 -1.74525233E+00 -1.90424914E+00 -1.85742882E+00
Force Field                                I                0
Int Atom Types                             I   N=          13
           0           0           0           0           0           0
           0           0           0           0           0           0
           0
MM charges                                 R   N=          13
  0.00000000E+00  0.00000000E+00  0.00000000E+00  0.00000000E+00  0.00000000E+00
  0.00000000E+00  0.00000000E+00  0.00000000E+00  0.00000000E+00  0.00000000E+00
  0.00000000E+00  0.00000000E+00  0.00000000E+00
Integer atomic weights                     I   N=          13
          12          12           1           1           1          12
          16          12           1           1          19          19
          19
Real atomic weights                        R   N=          13
  1.20000000E+01  1.20000000E+01  1.00782504E+00  1.00782504E+00  1.00782504E+00
  1.20000000E+01  1.59949146E+01  1.20000000E+01  1.00782504E+00  1.00782504E+00
  1.89984032E+01  1.89984032E+01  1.89984032E+01
Atom fragment info                         I   N=          13
           0           0           0           0           0           0
           0           0           0           0           0           0
           0
Atom residue num                           I   N=          13
           0           0           0           0           0           0
           0           0           0           0           0           0
           0
Nuclear spins                              I   N=          13
           0           0           1           1           1           0
           0           0           1           1           1           1
           1
Nuclear ZEff                               R   N=          13
 -3.60000000E+00 -3.60000000E+00 -1.00000000E+00 -1.00000000E+00 -1.00000000E+00
 -3.60000000E+00 -5.60000000E+00 -3.60000000E+00 -1.00000000E+00 -1.00000000E+00
 -6.75000000E+00 -6.75000000E+00 -6.75000000E+00
Nuclear ZNuc                               R   N=          13
  6.00000000E+00  6.00000000E+00  1.00000000E+00  1.00000000E+00  1.00000000E+00
  6.00000000E+00  8.00000000E+00  6.00000000E+00  1.00000000E+00  1.00000000E+00
  9.00000000E+00  9.00000000E+00  9.00000000E+00
Nuclear QMom                               R   N=          13
  0.00000000E+00  0.00000000E+00  0.00000000E+00  0.00000000E+00  0.00000000E+00
  0.00000000E+00  0.00000000E+00  0.00000000E+00  0.00000000E+00  0.00000000E+00
  0.00000000E+00  0.00000000E+00  0.00000000E+00
Nuclear GFac                               R   N=          13
  0.00000000E+00  0.00000000E+00  2.79284600E+00  2.79284600E+00  2.79284600E+00
  0.00000000E+00  0.00000000E+00  0.00000000E+00  2.79284600E+00  2.79284600E+00
  2.62886700E+00  2.62886700E+00  2.62886700E+00
MicOpt                                     I   N=          13
          -1          -1          -1          -1          -1          -1
          -1          -1          -1          -1          -1          -1
          -1
Number of contracted shells                I               42
Number of primitive shells                 I              108
Pure/Cartesian d shells                    I                1
Pure/Cartesian f shells                    I                0
Highest angular momentum                   I                1
Largest degree of contraction              I                6
Shell types                                I   N=          42
           0          -1          -1          -1           0          -1
          -1          -1           0           0           0           0
           0           0           0          -1          -1          -1
           0          -1          -1          -1           0          -1
          -1          -1           0           0           0           0
           0          -1          -1          -1           0          -1
          -1          -1           0          -1          -1          -1
Number of primitives per shell             I   N=          42
           6           3           1           1           6           3
           1           1           3           1           3           1
           3           1           6           3           1           1
           6           3           1           1           6           3
           1           1           3           1           3           1
           6           3           1           1           6           3
           1           1           6           3           1           1
Shell to atom map                          I   N=          42
           1           1           1           1           2           2
           2           2           3           3           4           4
           5           5           6           6           6           6
           7           7           7           7           8           8
           8           8           9           9          10          10
          11          11          11          11          12          12
          12          12          13          13          13          13
Primitive exponents                        R   N=         108
  3.04752488E+03  4.57369518E+02  1.03948685E+02  2.92101553E+01  9.28666296E+00
  3.16392696E+00  7.86827235E+00  1.88128854E+00  5.44249258E-01  1.68714478E-01
  4.38000000E-02  3.04752488E+03  4.57369518E+02  1.03948685E+02  2.92101553E+01
  9.28666296E+00  3.16392696E+00  7.86827235E+00  1.88128854E+00  5.44249258E-01
  1.68714478E-01  4.38000000E-02  1.87311370E+01  2.82539436E+00  6.40121692E-01
  1.61277759E-01  1.87311370E+01  2.82539436E+00  6.40121692E-01  1.61277759E-01
  1.87311370E+01  2.82539436E+00  6.40121692E-01  1.61277759E-01  3.04752488E+03
  4.57369518E+02  1.03948685E+02  2.92101553E+01  9.28666296E+00  3.16392696E+00
  7.86827235E+00  1.88128854E+00  5.44249258E-01  1.68714478E-01  4.38000000E-02
  5.48467166E+03  8.25234946E+02  1.88046958E+02  5.29645000E+01  1.68975704E+01
  5.79963534E+00  1.55396162E+01  3.59993359E+00  1.01376175E+00  2.70005823E-01
  8.45000000E-02  3.04752488E+03  4.57369518E+02  1.03948685E+02  2.92101553E+01
  9.28666296E+00  3.16392696E+00  7.86827235E+00  1.88128854E+00  5.44249258E-01
  1.68714478E-01  4.38000000E-02  1.87311370E+01  2.82539436E+00  6.40121692E-01
  1.61277759E-01  1.87311370E+01  2.82539436E+00  6.40121692E-01  1.61277759E-01
  7.00171309E+03  1.05136609E+03  2.39285690E+02  6.73974453E+01  2.15199573E+01
  7.40310130E+00  2.08479528E+01  4.80830834E+00  1.34406986E+00  3.58151393E-01
  1.07600000E-01  7.00171309E+03  1.05136609E+03  2.39285690E+02  6.73974453E+01
  2.15199573E+01  7.40310130E+00  2.08479528E+01  4.80830834E+00  1.34406986E+00
  3.58151393E-01  1.07600000E-01  7.00171309E+03  1.05136609E+03  2.39285690E+02
  6.73974453E+01  2.15199573E+01  7.40310130E+00  2.08479528E+01  4.80830834E+00
  1.34406986E+00  3.58151393E-01  1.07600000E-01
Contraction coefficients                   R   N=         108
  1.83473713E-03  1.40373228E-02  6.88426223E-02  2.32184443E-01  4.67941348E-01
  3.62311985E-01 -1.19332420E-01 -1.60854152E-01  1.14345644E+00  1.00000000E+00
  1.00000000E+00  1.83473713E-03  1.40373228E-02  6.88426223E-02  2.32184443E-01
  4.67941348E-01  3.62311985E-01 -1.19332420E-01 -1.60854152E-01  1.14345644E+00
  1.00000000E+00  1.00000000E+00  3.34946043E-02  2.34726953E-01  8.13757326E-01
  1.00000000E+00  3.34946043E-02  2.34726953E-01  8.13757326E-01  1.00000000E+00
  3.34946043E-02  2.34726953E-01  8.13757326E-01  1.00000000E+00  1.83473713E-03
  1.40373228E-02  6.88426223E-02  2.32184443E-01  4.67941348E-01  3.62311985E-01
 -1.19332420E-01 -1.60854152E-01  1.14345644E+00  1.00000000E+00  1.00000000E+00
  1.83107443E-03  1.39501722E-02  6.84450781E-02  2.32714336E-01  4.70192898E-01
  3.58520853E-01 -1.10777550E-01 -1.48026263E-01  1.13076702E+00  1.00000000E+00
  1.00000000E+00  1.83473713E-03  1.40373228E-02  6.88426223E-02  2.32184443E-01
  4.67941348E-01  3.62311985E-01 -1.19332420E-01 -1.60854152E-01  1.14345644E+00
  1.00000000E+00  1.00000000E+00  3.34946043E-02  2.34726953E-01  8.13757326E-01
  1.00000000E+00  3.34946043E-02  2.34726953E-01  8.13757326E-01  1.00000000E+00
  1.81961690E-03  1.39160796E-02  6.84053245E-02  2.33185760E-01  4.71267439E-01
  3.56618546E-01 -1.08506975E-01 -1.46451658E-01  1.12868858E+00  1.00000000E+00
  1.00000000E+00  1.81961690E-03  1.39160796E-02  6.84053245E-02  2.33185760E-01
  4.71267439E-01  3.56618546E-01 -1.08506975E-01 -1.46451658E-01  1.12868858E+00
  1.00000000E+00  1.00000000E+00  1.81961690E-03  1.39160796E-02  6.84053245E-02
  2.33185760E-01  4.71267439E-01  3.56618546E-01 -1.08506975E-01 -1.46451658E-01
  1.12868858E+00  1.00000000E+00  1.00000000E+00
P(S=P) Contraction coefficients            R   N=         108
  0.00000000E+00  0.00000000E+00  0.00000000E+00  0.00000000E+00  0.00000000E+00
  0.00000000E+00  6.89990666E-02  3.16423961E-01  7.44308291E-01  1.00000000E+00
  1.00000000E+00  0.00000000E+00  0.00000000E+00  0.00000000E+00  0.00000000E+00
  0.00000000E+00  0.00000000E+00  6.89990666E-02  3.16423961E-01  7.44308291E-01
  1.00000000E+00  1.00000000E+00  0.00000000E+00  0.00000000E+00  0.00000000E+00
  0.00000000E+00  0.00000000E+00  0.00000000E+00  0.00000000E+00  0.00000000E+00
  0.00000000E+00  0.00000000E+00  0.00000000E+00  0.00000000E+00  0.00000000E+00
  0.00000000E+00  0.00000000E+00  0.00000000E+00  0.00000000E+00  0.00000000E+00
  6.89990666E-02  3.16423961E-01  7.44308291E-01  1.00000000E+00  1.00000000E+00
  0.00000000E+00  0.00000000E+00  0.00000000E+00  0.00000000E+00  0.00000000E+00
  0.00000000E+00  7.08742682E-02  3.39752839E-01  7.27158577E-01  1.00000000E+00
  1.00000000E+00  0.00000000E+00  0.00000000E+00  0.00000000E+00  0.00000000E+00
  0.00000000E+00  0.00000000E+00  6.89990666E-02  3.16423961E-01  7.44308291E-01
  1.00000000E+00  1.00000000E+00  0.00000000E+00  0.00000000E+00  0.00000000E+00
  0.00000000E+00  0.00000000E+00  0.00000000E+00  0.00000000E+00  0.00000000E+00
  0.00000000E+00  0.00000000E+00  0.00000000E+00  0.00000000E+00  0.00000000E+00
  0.00000000E+00  7.16287242E-02  3.45912103E-01  7.22469956E-01  1.00000000E+00
  1.00000000E+00  0.00000000E+00  0.00000000E+00  0.00000000E+00  0.00000000E+00
  0.00000000E+00  0.00000000E+00  7.16287242E-02  3.45912103E-01  7.22469956E-01
  1.00000000E+00  1.00000000E+00  0.00000000E+00  0.00000000E+00  0.00000000E+00
  0.00000000E+00  0.00000000E+00  0.00000000E+00  7.16287242E-02  3.45912103E-01
  7.22469956E-01  1.00000000E+00  1.00000000E+00
Coordinates of each shell                  R   N=         126
  4.36424549E+00 -1.89842937E+00 -1.81651814E-01  4.36424549E+00 -1.89842937E+00
 -1.81651814E-01  4.36424549E+00 -1.89842937E+00 -1.81651814E-01  4.36424549E+00
 -1.89842937E+00 -1.81651814E-01  2.77515162E+00  3.85309992E-01  3.72765487E-01
  2.77515162E+00  3.85309992E-01  3.72765487E-01  2.77515162E+00  3.85309992E-01
  3.72765487E-01  2.77515162E+00  3.85309992E-01  3.72765487E-01  4.95172563E+00
 -2.79781605E+00  1.59136672E+00  4.95172563E+00 -2.79781605E+00  1.59136672E+00
  6.03606152E+00 -1.35231328E+00 -1.25512208E+00  6.03606152E+00 -1.35231328E+00
 -1.25512208E+00  3.26931579E+00 -3.29427203E+00 -1.24965321E+00  3.26931579E+00
 -3.29427203E+00 -1.24965321E+00  2.74511139E-01 -6.05336273E-02  1.76391384E+00
  2.74511139E-01 -6.05336273E-02  1.76391384E+00  2.74511139E-01 -6.05336273E-02
  1.76391384E+00  2.74511139E-01 -6.05336273E-02  1.76391384E+00  3.42552686E+00
  2.55078321E+00 -1.82987851E-01  3.42552686E+00  2.55078321E+00 -1.82987851E-01
  3.42552686E+00  2.55078321E+00 -1.82987851E-01  3.42552686E+00  2.55078321E+00
 -1.82987851E-01 -1.97533821E+00 -6.51544872E-02  2.40070808E-02 -1.97533821E+00
 -6.51544872E-02  2.40070808E-02 -1.97533821E+00 -6.51544872E-02  2.40070808E-02
 -1.97533821E+00 -6.51544872E-02  2.40070808E-02 -2.06194245E-03  1.45592240E+00
  3.13815858E+00 -2.06194245E-03  1.45592240E+00  3.13815858E+00  2.90475931E-01
 -1.87337814E+00  2.75064190E+00  2.90475931E-01 -1.87337814E+00  2.75064190E+00
 -2.35415320E+00  2.21552378E+00 -1.19209027E+00 -2.35415320E+00  2.21552378E+00
 -1.19209027E+00 -2.35415320E+00  2.21552378E+00 -1.19209027E+00 -2.35415320E+00
  2.21552378E+00 -1.19209027E+00 -4.18738915E+00 -6.12559486E-01  1.33999724E+00
 -4.18738915E+00 -6.12559486E-01  1.33999724E+00 -4.18738915E+00 -6.12559486E-01
  1.33999724E+00 -4.18738915E+00 -6.12559486E-01  1.33999724E+00 -1.74525233E+00
 -1.90424914E+00 -1.85742882E+00 -1.74525233E+00 -1.90424914E+00 -1.85742882E+00
 -1.74525233E+00 -1.90424914E+00 -1.85742882E+00 -1.74525233E+00 -1.90424914E+00
 -1.85742882E+00
Constraint Structure                       R   N=          39
  4.36424549E+00 -1.89842937E+00 -1.81651814E-01  2.77515162E+00  3.85309992E-01
  3.72765487E-01  4.95172563E+00 -2.79781605E+00  1.59136672E+00  6.03606152E+00
 -1.35231328E+00 -1.25512208E+00  3.26931579E+00 -3.29427203E+00 -1.24965321E+00
  2.74511139E-01 -6.05336273E-02  1.76391384E+00  3.42552686E+00  2.55078321E+00
 -1.82987851E-01 -1.97533821E+00 -6.51544872E-02  2.40070808E-02 -2.06194245E-03
  1.45592240E+00  3.13815858E+00  2.90475931E-01 -1.87337814E+00  2.75064190E+00
 -2.35415320E+00  2.21552378E+00 -1.19209027E+00 -4.18738915E+00 -6.12559486E-01
  1.33999724E+00 -1.74525233E+00 -1.90424914E+00 -1.85742882E+00
Num ILSW                                   I              100
ILSW                                       I   N=         100
           0           1           0           0           2           0
           0           0           0           0        4639          -1
           0           0           0           0           2           0
           0           0           0           0           1           0
           1           0           0           0           0           0
           0           0      100000           0          -1           0
           0           0           0           0           0           0
           0           0           0           1           0           0
           0           0           1           0           0           0
           0           0         121          41           0           0
           0           0          58           0           0           0
           0           0           0          13           0           0
           0           0           0           0           0           0
           0           0           0           0           0           0
           0           0           0           0           0           0
           0           0           0           0           0           0
           0           0           0           0
Num RLSW                                   I               41
RLSW                                       R   N=          41
  1.00000000E+00  1.00000000E+00  1.00000000E+00  1.00000000E+00  1.00000000E+00
  0.00000000E+00  2.00000000E-01  2.22036000E-01  0.00000000E+00  7.77964000E-01
  0.00000000E+00  2.00000000E-01  0.00000000E+00  0.00000000E+00  1.00000000E+00
  0.00000000E+00  0.00000000E+00  1.00000000E+00  0.00000000E+00  0.00000000E+00
  0.00000000E+00  0.00000000E+00  1.00000000E+00  0.00000000E+00  0.00000000E+00
  0.00000000E+00  0.00000000E+00  1.00000000E+00  0.00000000E+00  0.00000000E+00
  0.00000000E+00  0.00000000E+00  1.00000000E+00  0.00000000E+00  0.00000000E+00
  0.00000000E+00  0.00000000E+00  0.00000000E+00  1.00000000E+00  1.00000000E+00
  0.00000000E+00
MxBond                                     I                4
NBond                                      I   N=          13
           4           3           1           1           1           4
           1           4           1           1           1           1
           1
IBond                                      I   N=          52
           2           3           4           5           1           6
           7           0           1           0           0           0
           1           0           0           0           1           0
           0           0           2           8           9          10
           2           0           0           0           6          11
          12          13           6           0           0           0
           6           0           0           0           8           0
           0           0           8           0           0           0
           8           0           0           0
RBond                                      R   N=          52
  1.00000000E+00  1.00000000E+00  1.00000000E+00  1.00000000E+00  1.00000000E+00
  1.00000000E+00  2.00000000E+00  0.00000000E+00  1.00000000E+00  0.00000000E+00
  0.00000000E+00  0.00000000E+00  1.00000000E+00  0.00000000E+00  0.00000000E+00
  0.00000000E+00  1.00000000E+00  0.00000000E+00  0.00000000E+00  0.00000000E+00
  1.00000000E+00  1.00000000E+00  1.00000000E+00  1.00000000E+00  2.00000000E+00
  0.00000000E+00  0.00000000E+00  0.00000000E+00  1.00000000E+00  1.00000000E+00
  1.00000000E+00  1.00000000E+00  1.00000000E+00  0.00000000E+00  0.00000000E+00
  0.00000000E+00  1.00000000E+00  0.00000000E+00  0.00000000E+00  0.00000000E+00
  1.00000000E+00  0.00000000E+00  0.00000000E+00  0.00000000E+00  1.00000000E+00
  0.00000000E+00  0.00000000E+00  0.00000000E+00  1.00000000E+00  0.00000000E+00
  0.00000000E+00  0.00000000E+00
Virial Ratio                               R      2.005194996015089E+00
SCF Energy                                 R     -5.299252475433132E+02
Total Energy                               R     -5.299252475433132E+02
RMS Force                                  R      4.567706529534894E-04
RMS Density                                R      3.211030465546157E-09
External E-field                           R   N=          35
  0.00000000E+00  0.00000000E+00  0.00000000E+00  0.00000000E+00  0.00000000E+00
  0.00000000E+00  0.00000000E+00  0.00000000E+00  0.00000000E+00  0.00000000E+00
  0.00000000E+00  0.00000000E+00  0.00000000E+00  0.00000000E+00  0.00000000E+00
  0.00000000E+00  0.00000000E+00  0.00000000E+00  0.00000000E+00  0.00000000E+00
  0.00000000E+00  0.00000000E+00  0.00000000E+00  0.00000000E+00  0.00000000E+00
  0.00000000E+00  0.00000000E+00  0.00000000E+00  0.00000000E+00  0.00000000E+00
  0.00000000E+00  0.00000000E+00  0.00000000E+00  0.00000000E+00  0.00000000E+00
IOpCl                                      I                0
IROHF                                      I                0
Alpha Orbital Energies                     R   N=         114
 -2.48873715E+01 -2.48866568E+01 -2.48854555E+01 -1.93047169E+01 -1.05928921E+01
 -1.04384776E+01 -1.03628436E+01 -1.03241761E+01 -1.43555785E+00 -1.35041056E+00
 -1.34989087E+00 -1.19596954E+00 -9.50854911E-01 -8.76155092E-01 -7.95889750E-01
 -7.08336491E-01 -6.98683745E-01 -6.88612787E-01 -6.40050824E-01 -5.93810818E-01
 -5.84593906E-01 -5.69184796E-01 -5.66282316E-01 -5.57357577E-01 -5.38393403E-01
 -5.34366510E-01 -5.21352320E-01 -5.15105666E-01 -5.09700796E-01 -4.95853088E-01
 -4.64001208E-01 -3.69194475E-01  8.62604472E-03  5.33262300E-02  7.84028113E-02
  9.33468552E-02  9.86457908E-02  1.04886616E-01  1.13054185E-01  1.23832720E-01
  1.25375149E-01  1.27974825E-01  1.50127293E-01  1.58391824E-01  1.61627977E-01
  1.65776003E-01  1.74489863E-01  1.80182867E-01  1.88572394E-01  1.98658782E-01
  2.23232286E-01  2.28948515E-01  2.61772477E-01  2.65977601E-01  2.75826126E-01
  3.00002655E-01  3.10572438E-01  3.24463266E-01  3.30924726E-01  3.64375123E-01
  3.68539316E-01  3.77769065E-01  3.83820178E-01  3.93464755E-01  4.07140937E-01
  4.14541933E-01  4.15046727E-01  4.30229841E-01  4.30500177E-01  4.40008905E-01
  4.49668039E-01  4.56047534E-01  4.57565277E-01  4.98001524E-01  5.19534560E-01
  5.27994119E-01  5.67577263E-01  6.88804399E-01  7.40633630E-01  7.48131141E-01
  7.57121525E-01  7.96442263E-01  8.21937495E-01  8.63597207E-01  8.72891420E-01
  8.80815340E-01  9.00974655E-01  9.68449193E-01  1.00664464E+00  1.10301541E+00
  1.15927805E+00  1.17790769E+00  1.21772709E+00  1.21935084E+00  1.29949362E+00
  1.34700099E+00  1.36318087E+00  1.41960674E+00  1.45968313E+00  1.49043578E+00
  1.56089128E+00  1.60364927E+00  1.67345601E+00  1.68968505E+00  1.72442580E+00
  1.73271768E+00  1.80345715E+00  1.82888544E+00  1.84164752E+00  1.85773470E+00
  2.02915219E+00  2.30719338E+00  2.33949825E+00  2.68511657E+00
Alpha MO coefficients                      R   N=       12996
 -1.59539041E-05 -1.45778307E-04  3.89458536E-05  2.31962820E-05 -4.27013519E-05
  2.54114397E-04 -1.81261817E-04 -3.71319507E-04 -2.09732661E-04  1.05117837E-02
 -2.05890020E-03  1.68548567E-03  4.47522660E-04  3.99796395E-05  4.50800535E-04
 -2.49849254E-04 -1.73645816E-05 -5.52911126E-05 -1.78644483E-03  4.58323768E-04
 -1.85395227E-03  6.97678078E-04 -6.26432057E-03 -2.03721640E-03  3.56419095E-03
  1.01295526E-03 -2.24728094E-05 -9.25493764E-05  1.50886406E-05 -1.77690041E-04
  5.49991523E-05 -8.23618730E-04  6.21099502E-05  2.99462486E-04  2.56631230E-04
 -5.89296764E-05  1.07424986E-04 -1.98439129E-03  4.46298610E-04  1.87120785E-03
  1.10404852E-03 -2.70570808E-04 -2.34166800E-03 -9.27366002E-04  1.10134671E-03
 -1.94370967E-05 -2.96043859E-04  5.99076562E-05  5.04512382E-05  1.13312752E-06
  1.55788842E-03 -5.45894008E-04 -6.92701845E-04  1.06020799E-04  2.05627474E-03
 -5.16912510E-04 -8.25447992E-04 -1.00365982E-04 -1.94026542E-04 -9.22883572E-04
 -1.03376781E-04 -5.29092280E-04 -5.74999368E-04  7.01653165E-03  1.55304548E-04
 -9.23100857E-04 -1.37724026E-03 -8.66405823E-03 -2.49257154E-03  7.51299642E-04
 -1.15847566E-03 -2.05003161E-04  2.20003095E-04  2.37258048E-04  1.27137302E-03
  5.56634418E-03  5.10247087E-04  2.12947266E-05 -5.12634166E-05  8.39503893E-06
 -1.55385824E-03 -2.20823304E-04  1.02019398E-03 -9.97156496E-05 -9.68203281E-04
  1.04605616E-04  1.19508637E-03  3.76317590E-04  1.10218058E-02  6.11963622E-04
  3.44143916E-05 -1.19345031E-05 -3.46190215E-05 -1.44840367E-03 -6.64420221E-04
  1.35596755E-04  6.84183402E-04 -6.18646537E-04 -1.89459689E-04  4.04570377E-04
  8.60676140E-04  9.94965875E-01  2.79755405E-02 -6.68097888E-05  1.00357429E-03
  1.03210924E-03 -1.67023450E-02  9.92729325E-05 -2.06993785E-03 -2.04448465E-03
  1.04860591E-02  5.24208035E-04  1.97382383E-03  2.12351525E-03 -9.76482049E-06
 -1.08060228E-04  1.94217196E-06  9.80543865E-06 -2.60886211E-05  6.68609932E-04
  7.39122681E-05  1.90729573E-04  3.64564958E-04  3.11369570E-03 -6.16654790E-04
  5.67281427E-04  2.69963226E-04 -3.79759638E-06 -6.40873041E-05  1.14679518E-04
  1.54194624E-05  4.27024653E-05 -5.84094001E-04 -6.59123338E-04  2.84486928E-04
 -5.88778862E-04 -7.30052684E-03  7.96579594E-04  9.48944458E-04 -1.11804899E-04
 -8.80272608E-06 -4.32639324E-04 -1.65931135E-05 -1.16695468E-04  5.31168444E-06
  5.26027021E-05  7.32871829E-05  3.15686878E-04  1.04534392E-04  8.06621446E-06
  1.05401478E-04 -2.53290841E-03  2.13849751E-03  8.42209922E-05  2.09020756E-04
  1.47318694E-02 -1.44656577E-03  1.70970674E-04 -2.28719108E-03  3.29972204E-06
  4.39729672E-05 -1.37758727E-05 -3.46822537E-06 -2.16408317E-05 -2.36690382E-04
  1.91818478E-04  3.36848961E-05  1.24432888E-04  5.20030870E-04 -1.01911589E-04
 -2.52885647E-04 -1.12953358E-06 -1.99967261E-04 -9.79008658E-04 -6.37744152E-04
 -1.23872344E-04  3.08725636E-04  8.40458980E-03 -1.71438587E-03 -3.60033002E-04
  7.03177243E-04 -1.29382136E-02 -1.76173292E-03  3.21516427E-04 -2.95171672E-03
  2.75154156E-04 -1.80994623E-04  2.40398352E-04 -2.47592078E-04  6.41095325E-03
  4.80009131E-04 -1.95996062E-05 -3.03662107E-05  3.27825714E-05 -1.39527018E-03
  2.90539327E-04  7.83436265E-04 -6.01619235E-04 -1.51570667E-03  4.89033891E-04
  8.30932364E-04 -6.64948584E-04  9.94956335E-01  2.78918869E-02  1.23545053E-03
  2.97813729E-04 -7.17679683E-04 -1.63952281E-02 -2.48754584E-03 -6.14739951E-04
  1.51569149E-03  8.81695541E-03  1.89524846E-03  4.01340324E-04 -1.02941636E-03
 -1.10102246E-02 -3.30697933E-06 -3.05929613E-05 -5.60959749E-06  2.06881718E-05
 -1.11930599E-03  4.89210098E-04 -4.23882759E-04 -7.57341370E-04 -1.60432404E-03
  6.50917491E-04 -4.97438566E-04 -9.26609151E-04 -2.50534417E-05 -2.29598304E-04
  1.27075304E-05  4.69559215E-06  5.44987357E-05  1.52037023E-03 -6.31739330E-04
  3.77044778E-04 -1.65933816E-04  2.08739416E-03 -2.40879993E-04  4.49223853E-04
  5.60798798E-04  2.25724083E-05  3.24742533E-04 -1.44135396E-04 -7.14465040E-05
 -3.68068271E-05  1.47976188E-04 -1.10839476E-04  1.57535462E-03  3.10703547E-04
  7.16375200E-03 -2.71467963E-03  2.21892171E-04 -3.87715990E-04  2.26487528E-05
 -1.81758628E-04 -1.98722673E-05 -2.07825453E-04 -7.85445335E-05 -3.52636992E-04
  6.48907223E-05  3.13365724E-04  1.94604684E-04  5.70875309E-05  1.29976425E-04
 -1.92136143E-03  6.40148703E-04 -1.75941803E-03  6.78712679E-04  2.60235910E-03
 -3.60143092E-03  3.15634906E-04  1.61897301E-04  7.94168228E-07  1.16108815E-05
 -3.40026396E-05 -1.75041736E-05  5.60207039E-06 -2.09507724E-04  1.46280758E-04
  2.34530480E-04 -2.01144690E-04 -2.20324290E-03  4.40697075E-04  5.54443880E-04
  2.52647108E-04 -1.67875282E-04 -7.77100937E-04 -2.05138646E-04  6.72771773E-04
 -3.80128445E-04  6.70902372E-03 -5.39208987E-04  1.19498807E-03 -1.06398001E-03
 -1.43026550E-02 -3.67582295E-03 -1.46990437E-03 -1.59413627E-03  2.50753548E-04
  7.64728429E-04 -1.51577326E-04 -5.12371708E-06  9.95002679E-01  2.79295620E-02
  2.20074084E-04 -1.29848709E-03  6.88429672E-04 -1.64909310E-02 -4.29362913E-04
  2.52252180E-03 -1.29785109E-03  1.01185314E-02  7.09560403E-04 -2.13064180E-03
  1.26967099E-03 -6.42517749E-03  1.20460938E-04  1.57834358E-05  2.17975812E-05
 -1.95224524E-05 -1.16919155E-03 -5.71959190E-04 -5.00385914E-04  5.84074593E-04
 -1.03052213E-03 -1.10180530E-04 -6.71210566E-04  7.26601802E-04 -5.44408273E-03
  2.00686956E-04 -3.10698247E-06  2.12559689E-05  9.66551958E-06 -1.38159120E-03
  1.25987618E-04 -8.39926523E-04 -3.73424050E-04 -7.64065083E-04  3.73631826E-04
 -1.20632651E-03  1.75464046E-05 -1.32853227E-05 -2.90804012E-04  1.05283485E-05
 -1.23860222E-04  1.22557515E-05  2.65804516E-03 -2.12679175E-03 -2.59891030E-04
  1.02431058E-03  9.58249520E-03 -1.62554209E-03  2.09688087E-03 -6.01569370E-05
  2.19423766E-04  1.68789359E-04  1.70605025E-04 -6.92816721E-05 -2.47653919E-05
  7.12315810E-03  1.71203768E-03  9.77648687E-03 -1.98146706E-03 -2.92075903E-02
  3.15840351E-03  8.42362017E-04 -3.38318150E-04 -1.47627520E-04  1.98475441E-04
  1.43494879E-04  4.06413103E-04 -1.10063038E-04 -1.37467944E-04 -4.58962692E-05
 -6.31791245E-04 -2.47171269E-04  1.44536637E-05  1.04406744E-04  2.89715947E-03
  6.90284219E-04 -3.61864155E-03 -1.26407284E-03 -6.63179530E-03  6.56600747E-03
  5.00072937E-04  3.35922184E-03  9.95252536E-01  3.00013412E-02 -7.06255162E-04
 -2.08279972E-03  5.48237784E-04 -2.44826328E-02  2.12176547E-03  5.39236512E-03
 -1.47018502E-03  1.07376107E-02 -1.53032529E-03 -1.10120213E-03  2.76017015E-04
  6.49757338E-05  5.53321028E-04  2.17284186E-04 -5.50438245E-05 -5.55092608E-05
 -1.82879371E-03 -2.12812973E-03  2.57340714E-03  1.09446971E-03  2.02159674E-02
  4.61540113E-03  6.20543656E-04  1.84822064E-03  2.03427551E-04  1.36404792E-03
 -5.14122884E-04 -2.88419337E-04 -3.41991498E-06 -1.87789189E-05  3.28914244E-05
 -1.15677788E-05  6.65523248E-05  2.11526797E-04  5.01960769E-05  3.98394646E-05
 -3.83647587E-04 -2.46856269E-03 -2.15448839E-05  6.54369302E-04 -1.26147437E-04
  7.51811780E-07  2.59218037E-05 -4.01698258E-06  5.98224042E-05  1.17125042E-06
 -1.62125145E-04  2.37439131E-05 -3.85099816E-04 -6.38967051E-06 -1.08184215E-03
 -3.37112122E-04 -1.43280366E-04  3.36563871E-04 -1.17357966E-05 -2.82838602E-04
 -3.16594619E-05 -6.31847564E-05 -6.63045819E-05  1.13150773E-03  1.51866215E-04
  5.20221839E-04  5.95195018E-04  2.24327071E-03  4.59780706E-04  7.40047400E-04