 Entering Gaussian System, Link 0=/opt/cluster/programs/g09_d.01/g09//g09
 Input=/home/unibas/boittier/RDKit_G2/B.pdb/SCAN_1_2_3_4_S_17_20.0/9_SCAN_1_2_3_4_F/9_SCAN_B.pdb.com
 Output=/scratch/boittier/9_SCAN_B.pdb/9_SCAN_B.pdb.out
 Initial command:
 /opt/cluster/programs/g09_d.01/g09/l1.exe "/scratch/boittier/9_SCAN_B.pdb/Gau-188088.inp" -scrdir="/scratch/boittier/9_SCAN_B.pdb/"
 Entering Link 1 = /opt/cluster/programs/g09_d.01/g09/l1.exe PID=    188089.
  
 Copyright (c) 1988,1990,1992,1993,1995,1998,2003,2009,2013,
            Gaussian, Inc.  All Rights Reserved.
  
 This is part of the Gaussian(R) 09 program.  It is based on
 the Gaussian(R) 03 system (copyright 2003, Gaussian, Inc.),
 the Gaussian(R) 98 system (copyright 1998, Gaussian, Inc.),
 the Gaussian(R) 94 system (copyright 1995, Gaussian, Inc.),
 the Gaussian 92(TM) system (copyright 1992, Gaussian, Inc.),
 the Gaussian 90(TM) system (copyright 1990, Gaussian, Inc.),
 the Gaussian 88(TM) system (copyright 1988, Gaussian, Inc.),
 the Gaussian 86(TM) system (copyright 1986, Carnegie Mellon
 University), and the Gaussian 82(TM) system (copyright 1983,
 Carnegie Mellon University). Gaussian is a federally registered
 trademark of Gaussian, Inc.
  
 This software contains proprietary and confidential information,
 including trade secrets, belonging to Gaussian, Inc.
  
 This software is provided under written license and may be
 used, copied, transmitted, or stored only in accord with that
 written license.
  
 The following legend is applicable only to US Government
 contracts under FAR:
  
                    RESTRICTED RIGHTS LEGEND
  
 Use, reproduction and disclosure by the US Government is
 subject to restrictions as set forth in subparagraphs (a)
 and (c) of the Commercial Computer Software - Restricted
 Rights clause in FAR 52.227-19.
  
 Gaussian, Inc.
 340 Quinnipiac St., Bldg. 40, Wallingford CT 06492
  
  
 ---------------------------------------------------------------
 Warning -- This program may not be used in any manner that
 competes with the business of Gaussian, Inc. or will provide
 assistance to any competitor of Gaussian, Inc.  The licensee
 of this program is prohibited from giving any competitor of
 Gaussian, Inc. access to this program.  By using this program,
 the user acknowledges that Gaussian, Inc. is engaged in the
 business of creating and licensing software in the field of
 computational chemistry and represents and warrants to the
 licensee that it is not a competitor of Gaussian, Inc. and that
 it will not use this program in any manner prohibited above.
 ---------------------------------------------------------------
  

 Cite this work as:
 Gaussian 09, Revision D.01,
 M. J. Frisch, G. W. Trucks, H. B. Schlegel, G. E. Scuseria, 
 M. A. Robb, J. R. Cheeseman, G. Scalmani, V. Barone, B. Mennucci, 
 G. A. Petersson, H. Nakatsuji, M. Caricato, X. Li, H. P. Hratchian, 
 A. F. Izmaylov, J. Bloino, G. Zheng, J. L. Sonnenberg, M. Hada, 
 M. Ehara, K. Toyota, R. Fukuda, J. Hasegawa, M. Ishida, T. Nakajima, 
 Y. Honda, O. Kitao, H. Nakai, T. Vreven, J. A. Montgomery, Jr., 
 J. E. Peralta, F. Ogliaro, M. Bearpark, J. J. Heyd, E. Brothers, 
 K. N. Kudin, V. N. Staroverov, T. Keith, R. Kobayashi, J. Normand, 
 K. Raghavachari, A. Rendell, J. C. Burant, S. S. Iyengar, J. Tomasi, 
 M. Cossi, N. Rega, J. M. Millam, M. Klene, J. E. Knox, J. B. Cross, 
 V. Bakken, C. Adamo, J. Jaramillo, R. Gomperts, R. E. Stratmann, 
 O. Yazyev, A. J. Austin, R. Cammi, C. Pomelli, J. W. Ochterski, 
 R. L. Martin, K. Morokuma, V. G. Zakrzewski, G. A. Voth, 
 P. Salvador, J. J. Dannenberg, S. Dapprich, A. D. Daniels, 
 O. Farkas, J. B. Foresman, J. V. Ortiz, J. Cioslowski, 
 and D. J. Fox, Gaussian, Inc., Wallingford CT, 2013.
 
 ******************************************
 Gaussian 09:  ES64L-G09RevD.01 24-Apr-2013
                12-May-2021 
 ******************************************
 %chk=/home/unibas/boittier/RDKit_G2/B.pdb/SCAN_1_2_3_4_S_17_20.0/9_SCAN_1_2_3_4_
 F/B.pdb.chk
 %nproc=8
 Will use up to    8 processors via shared memory.
 %mem=16GB
 -----------------------------
 #p wB97XD/6-31+G Opt=ModRedun
 -----------------------------
 1/14=-1,18=120,19=15,26=3,38=1/1,3;
 2/9=110,12=2,17=6,18=5,40=1/2;
 3/5=1,6=6,7=10,11=2,16=1,25=1,30=1,71=1,74=-58/1,2,3;
 4//1;
 5/5=2,38=5/2;
 6/7=2,8=2,9=2,10=2,28=1/1;
 7//1,2,3,16;
 1/14=-1,18=20,19=15,26=3/3(2);
 2/9=110/2;
 99//99;
 2/9=110/2;
 3/5=1,6=6,7=10,11=2,16=1,25=1,30=1,71=1,74=-58/1,2,3;
 4/5=5,16=3,69=1/1;
 5/5=2,38=5/2;
 7//1,2,3,16;
 1/14=-1,18=20,19=15,26=3/3(-5);
 2/9=110/2;
 6/7=2,8=2,9=2,10=2,19=2,28=1/1;
 99/9=1/99;
 Leave Link    1 at Wed May 12 11:56:01 2021, MaxMem=  2147483648 cpu:         0.2
 (Enter /opt/cluster/programs/g09_d.01/g09/l101.exe)
 -----
 B.pdb
 -----
 Symbolic Z-matrix:
 Charge =  0 Multiplicity = 1
 C                    -0.85619  -1.33841   0.00007 
 C                    -0.46272  -0.06205   0.00007 
 C                     0.86023   0.56008   0.0001 
 C                     2.03808  -0.08875  -0.0001 
 H                    -1.90672  -1.59965   0.00013 
 H                    -0.12988  -2.14215  -0.00012 
 F                    -1.48511   0.93155  -0.00012 
 H                     0.83946   1.64666   0.00052 
 H                     2.1124   -1.17274  -0.00024 
 H                     2.97435   0.45873  -0.00002 
 
 The following ModRedundant input section has been read:
 D       1       2       3       4 F                                           
 
 NAtoms=     10 NQM=       10 NQMF=       0 NMMI=      0 NMMIF=      0
                NMic=       0 NMicF=      0.
                    Isotopes and Nuclear Properties:
 (Nuclear quadrupole moments (NQMom) in fm**2, nuclear magnetic moments (NMagM)
  in nuclear magnetons)

  Atom         1           2           3           4           5           6           7           8           9          10
 IAtWgt=          12          12          12          12           1           1          19           1           1           1
 AtmWgt=  12.0000000  12.0000000  12.0000000  12.0000000   1.0078250   1.0078250  18.9984033   1.0078250   1.0078250   1.0078250
 NucSpn=           0           0           0           0           1           1           1           1           1           1
 AtZEff=   0.0000000   0.0000000   0.0000000   0.0000000   0.0000000   0.0000000   0.0000000   0.0000000   0.0000000   0.0000000
 NQMom=    0.0000000   0.0000000   0.0000000   0.0000000   0.0000000   0.0000000   0.0000000   0.0000000   0.0000000   0.0000000
 NMagM=    0.0000000   0.0000000   0.0000000   0.0000000   2.7928460   2.7928460   2.6288670   2.7928460   2.7928460   2.7928460
 AtZNuc=   6.0000000   6.0000000   6.0000000   6.0000000   1.0000000   1.0000000   9.0000000   1.0000000   1.0000000   1.0000000
 Leave Link  101 at Wed May 12 11:56:02 2021, MaxMem=  2147483648 cpu:         4.4
 (Enter /opt/cluster/programs/g09_d.01/g09/l103.exe)

 GradGradGradGradGradGradGradGradGradGradGradGradGradGradGradGradGradGrad
 Berny optimization.
 Initialization pass.
                           ----------------------------
                           !    Initial Parameters    !
                           ! (Angstroms and Degrees)  !
 --------------------------                            --------------------------
 ! Name  Definition              Value          Derivative Info.                !
 --------------------------------------------------------------------------------
 ! R1    R(1,2)                  1.3356         estimate D2E/DX2                !
 ! R2    R(1,5)                  1.0825         estimate D2E/DX2                !
 ! R3    R(1,6)                  1.0833         estimate D2E/DX2                !
 ! R4    R(2,3)                  1.4619         estimate D2E/DX2                !
 ! R5    R(2,7)                  1.4257         estimate D2E/DX2                !
 ! R6    R(3,4)                  1.3447         estimate D2E/DX2                !
 ! R7    R(3,8)                  1.0868         estimate D2E/DX2                !
 ! R8    R(4,9)                  1.0865         estimate D2E/DX2                !
 ! R9    R(4,10)                 1.0846         estimate D2E/DX2                !
 ! A1    A(2,1,5)              121.0979         estimate D2E/DX2                !
 ! A2    A(2,1,6)              120.7637         estimate D2E/DX2                !
 ! A3    A(5,1,6)              118.1383         estimate D2E/DX2                !
 ! A4    A(1,2,3)              132.319          estimate D2E/DX2                !
 ! A5    A(1,2,7)              117.048          estimate D2E/DX2                !
 ! A6    A(3,2,7)              110.633          estimate D2E/DX2                !
 ! A7    A(2,3,4)              125.9656         estimate D2E/DX2                !
 ! A8    A(2,3,8)              114.0907         estimate D2E/DX2                !
 ! A9    A(4,3,8)              119.9437         estimate D2E/DX2                !
 ! A10   A(3,4,9)              122.7711         estimate D2E/DX2                !
 ! A11   A(3,4,10)             120.8342         estimate D2E/DX2                !
 ! A12   A(9,4,10)             116.3947         estimate D2E/DX2                !
 ! D1    D(5,1,2,3)            179.9951         estimate D2E/DX2                !
 ! D2    D(5,1,2,7)             -0.0129         estimate D2E/DX2                !
 ! D3    D(6,1,2,3)             -0.0123         estimate D2E/DX2                !
 ! D4    D(6,1,2,7)            179.9797         estimate D2E/DX2                !
 ! D5    D(1,2,3,4)              0.0112         Frozen                          !
 ! D6    D(1,2,3,8)           -179.9756         estimate D2E/DX2                !
 ! D7    D(7,2,3,4)           -179.9813         estimate D2E/DX2                !
 ! D8    D(7,2,3,8)              0.032          estimate D2E/DX2                !
 ! D9    D(2,3,4,9)             -0.0032         estimate D2E/DX2                !
 ! D10   D(2,3,4,10)          -179.9971         estimate D2E/DX2                !
 ! D11   D(8,3,4,9)            179.9828         estimate D2E/DX2                !
 ! D12   D(8,3,4,10)            -0.011          estimate D2E/DX2                !
 --------------------------------------------------------------------------------
 Trust Radius=3.00D-01 FncErr=1.00D-07 GrdErr=1.00D-06
 Number of steps in this run=     43 maximum allowed number of steps=    100.
 GradGradGradGradGradGradGradGradGradGradGradGradGradGradGradGradGradGrad

 Leave Link  103 at Wed May 12 11:56:02 2021, MaxMem=  2147483648 cpu:         0.1
 (Enter /opt/cluster/programs/g09_d.01/g09/l202.exe)
                          Input orientation:                          
 ---------------------------------------------------------------------
 Center     Atomic      Atomic             Coordinates (Angstroms)
 Number     Number       Type             X           Y           Z
 ---------------------------------------------------------------------
      1          6           0       -0.856191   -1.338411    0.000066
      2          6           0       -0.462715   -0.062045    0.000073
      3          6           0        0.860230    0.560080    0.000095
      4          6           0        2.038078   -0.088754   -0.000098
      5          1           0       -1.906721   -1.599647    0.000128
      6          1           0       -0.129884   -2.142150   -0.000123
      7          9           0       -1.485113    0.931548   -0.000120
      8          1           0        0.839464    1.646657    0.000518
      9          1           0        2.112401   -1.172741   -0.000243
     10          1           0        2.974351    0.458733   -0.000016
 ---------------------------------------------------------------------
                    Distance matrix (angstroms):
                    1          2          3          4          5
     1  C    0.000000
     2  C    1.335640   0.000000
     3  C    2.559369   1.461924   0.000000
     4  C    3.152528   2.500936   1.344735   0.000000
     5  H    1.082524   2.109354   3.510048   4.224244   0.000000
     6  H    1.083290   2.106564   2.877911   2.986050   1.857810
     7  F    2.355474   1.425666   2.374578   3.667955   2.566067
     8  H    3.433057   2.148333   1.086775   2.109106   4.252061
     9  H    2.973211   2.804437   2.137896   1.086532   4.041731
    10  H    4.231168   3.476296   2.116549   1.084596   5.297338
                    6          7          8          9         10
     6  H    0.000000
     7  F    3.359206   0.000000
     8  H    3.910843   2.432085   0.000000
     9  H    2.442866   4.167750   3.093441   0.000000
    10  H    4.049798   4.484459   2.443135   1.845174   0.000000
 Stoichiometry    C4H5F
 Framework group  C1[X(C4H5F)]
 Deg. of freedom    24
 Full point group                 C1      NOp   1
 Largest Abelian subgroup         C1      NOp   1
 Largest concise Abelian subgroup C1      NOp   1
                         Standard orientation:                         
 ---------------------------------------------------------------------
 Center     Atomic      Atomic             Coordinates (Angstroms)
 Number     Number       Type             X           Y           Z
 ---------------------------------------------------------------------
      1          6           0        0.856191    1.338411    0.000066
      2          6           0        0.462715    0.062045    0.000073
      3          6           0       -0.860230   -0.560080    0.000095
      4          6           0       -2.038078    0.088754   -0.000098
      5          1           0        1.906721    1.599647    0.000128
      6          1           0        0.129884    2.142150   -0.000123
      7          9           0        1.485113   -0.931548   -0.000120
      8          1           0       -0.839464   -1.646657    0.000518
      9          1           0       -2.112401    1.172741   -0.000243
     10          1           0       -2.974351   -0.458733   -0.000016
 ---------------------------------------------------------------------
 Rotational constants (GHZ):      9.5454722      3.8969017      2.7672022
 Leave Link  202 at Wed May 12 11:56:02 2021, MaxMem=  2147483648 cpu:         0.0
 (Enter /opt/cluster/programs/g09_d.01/g09/l301.exe)
 Standard basis: 6-31+G (6D, 7F)
 Ernie: Thresh=  0.10000D-02 Tol=  0.10000D-05 Strict=F.
 There are    75 symmetry adapted cartesian basis functions of A   symmetry.
 There are    75 symmetry adapted basis functions of A   symmetry.
    75 basis functions,   150 primitive gaussians,    75 cartesian basis functions
    19 alpha electrons       19 beta electrons
       nuclear repulsion energy       156.0255880694 Hartrees.
 IExCor= 4639 DFT=T Ex+Corr=wB97XD ExCW=0 ScaHFX=  1.000000
 ScaDFX=  1.000000  1.000000  1.000000  1.000000 ScalE2=  1.000000  1.000000
 IRadAn=      0 IRanWt=     -1 IRanGd=            0 ICorTp=0 IEmpDi=121
  HFx wShort=  0.000000 wLong=  0.200000 cFull=  0.222036 cShort=  0.000000 cLong=  0.777964
  DFx wShort=  0.000000 wLong=  0.200000 cFull=  0.000000 cShort=  0.000000 cLong=  1.000000
 NAtoms=   10 NActive=   10 NUniq=   10 SFac= 1.00D+00 NAtFMM=   60 NAOKFM=F Big=F
 Integral buffers will be    131072 words long.
 Raffenetti 2 integral format.
 Two-electron integral symmetry is turned on.
 R6Disp:  Grimme-D2 Dispersion energy=       -0.0031186171 Hartrees.
 Nuclear repulsion after empirical dispersion term =      156.0224694522 Hartrees.
 Leave Link  301 at Wed May 12 11:56:02 2021, MaxMem=  2147483648 cpu:         0.3
 (Enter /opt/cluster/programs/g09_d.01/g09/l302.exe)
 NPDir=0 NMtPBC=     1 NCelOv=     1 NCel=       1 NClECP=     1 NCelD=      1
         NCelK=      1 NCelE2=     1 NClLst=     1 CellRange=     0.0.
 One-electron integrals computed using PRISM.
 NBasis=    75 RedAO= T EigKep=  2.98D-05  NBF=    75
 NBsUse=    75 1.00D-06 EigRej= -1.00D+00 NBFU=    75
 Precomputing XC quadrature grid using
 IXCGrd= 4 IRadAn=           0 IRanWt=          -1 IRanGd=           0 AccXCQ= 0.00D+00.
 Generated NRdTot=       0 NPtTot=           0 NUsed=           0 NTot=          32
 NSgBfM=    75    75    75    75    75 MxSgAt=    10 MxSgA2=    10.
 Leave Link  302 at Wed May 12 11:56:02 2021, MaxMem=  2147483648 cpu:         0.8
 (Enter /opt/cluster/programs/g09_d.01/g09/l303.exe)
 DipDrv:  MaxL=1.
 Leave Link  303 at Wed May 12 11:56:02 2021, MaxMem=  2147483648 cpu:         0.2
 (Enter /opt/cluster/programs/g09_d.01/g09/l401.exe)
 ExpMin= 4.38D-02 ExpMax= 7.00D+03 ExpMxC= 1.05D+03 IAcc=2 IRadAn=         4 AccDes= 0.00D+00
 Harris functional with IExCor= 4639 and IRadAn=       4 diagonalized for initial guess.
 HarFok:  IExCor= 4639 AccDes= 0.00D+00 IRadAn=         4 IDoV= 1 UseB2=F ITyADJ=14
 ICtDFT=  3500011 ScaDFX=  1.000000  1.000000  1.000000  1.000000
 FoFCou: FMM=F IPFlag=           0 FMFlag=      100000 FMFlg1=           0
         NFxFlg=           0 DoJE=T BraDBF=F KetDBF=T FulRan=T
         wScrn=  0.000000 ICntrl=     500 IOpCl=  0 I1Cent=   200000004 NGrid=           0
         NMat0=    1 NMatS0=      1 NMatT0=    0 NMatD0=    1 NMtDS0=    0 NMtDT0=    0
 Petite list used in FoFCou.
 Harris En= -244.786103096812    
 JPrj=0 DoOrth=F DoCkMO=F.
 Leave Link  401 at Wed May 12 11:56:02 2021, MaxMem=  2147483648 cpu:         1.3
 (Enter /opt/cluster/programs/g09_d.01/g09/l502.exe)
 Closed shell SCF:
 Using DIIS extrapolation, IDIIS=  1040.
 Integral symmetry usage will be decided dynamically.
 Keep R1 ints in memory in canonical form, NReq=9056162.
 IVT=       36600 IEndB=       36600 NGot=  2147483648 MDV=  2139321699
 LenX=  2139321699 LenY=  2139315633
 Requested convergence on RMS density matrix=1.00D-08 within 128 cycles.
 Requested convergence on MAX density matrix=1.00D-06.
 Requested convergence on             energy=1.00D-06.
 No special actions if energy rises.
 FoFCou: FMM=F IPFlag=           0 FMFlag=           0 FMFlg1=           0
         NFxFlg=           0 DoJE=F BraDBF=F KetDBF=F FulRan=T
         wScrn=  0.000000 ICntrl=     600 IOpCl=  0 I1Cent=           0 NGrid=           0
         NMat0=    1 NMatS0=   2850 NMatT0=    0 NMatD0=    1 NMtDS0=    0 NMtDT0=    0
 Symmetry not used in FoFCou.

 Cycle   1  Pass 1  IDiag  1:
 E= -254.931372619816    
 DIIS: error= 5.73D-02 at cycle   1 NSaved=   1.
 NSaved= 1 IEnMin= 1 EnMin= -254.931372619816     IErMin= 1 ErrMin= 5.73D-02
 ErrMax= 5.73D-02  0.00D+00 EMaxC= 1.00D-01 BMatC= 2.61D-01 BMatP= 2.61D-01
 IDIUse=3 WtCom= 4.27D-01 WtEn= 5.73D-01
 Coeff-Com:  0.100D+01
 Coeff-En:   0.100D+01
 Coeff:      0.100D+01
 Gap=     0.400 Goal=   None    Shift=    0.000
 GapD=    0.400 DampG=2.000 DampE=0.500 DampFc=1.0000 IDamp=-1.
 RMSDP=2.49D-02 MaxDP=9.04D-01              OVMax= 1.79D-01

 Cycle   2  Pass 1  IDiag  1:
 E= -254.886504376281     Delta-E=        0.044868243535 Rises=F Damp=F
 DIIS: error= 6.50D-02 at cycle   2 NSaved=   2.
 NSaved= 2 IEnMin= 1 EnMin= -254.931372619816     IErMin= 1 ErrMin= 5.73D-02
 ErrMax= 6.50D-02  0.00D+00 EMaxC= 1.00D-01 BMatC= 3.06D-01 BMatP= 2.61D-01
 IDIUse=2 WtCom= 0.00D+00 WtEn= 1.00D+00
 Coeff-En:   0.557D+00 0.443D+00
 Coeff:      0.557D+00 0.443D+00
 Gap=     0.329 Goal=   None    Shift=    0.000
 RMSDP=7.38D-03 MaxDP=1.37D-01 DE= 4.49D-02 OVMax= 9.57D-02

 Cycle   3  Pass 1  IDiag  1:
 E= -255.097400090132     Delta-E=       -0.210895713851 Rises=F Damp=F
 DIIS: error= 3.43D-03 at cycle   3 NSaved=   3.
 NSaved= 3 IEnMin= 3 EnMin= -255.097400090132     IErMin= 3 ErrMin= 3.43D-03
 ErrMax= 3.43D-03  0.00D+00 EMaxC= 1.00D-01 BMatC= 9.47D-04 BMatP= 2.61D-01
 IDIUse=3 WtCom= 9.66D-01 WtEn= 3.43D-02
 Coeff-Com: -0.452D-02-0.545D-01 0.106D+01
 Coeff-En:   0.000D+00 0.000D+00 0.100D+01
 Coeff:     -0.436D-02-0.527D-01 0.106D+01
 Gap=     0.336 Goal=   None    Shift=    0.000
 RMSDP=2.94D-03 MaxDP=7.64D-02 DE=-2.11D-01 OVMax= 9.76D-03

 Cycle   4  Pass 1  IDiag  1:
 E= -255.098200590387     Delta-E=       -0.000800500255 Rises=F Damp=F
 DIIS: error= 1.04D-03 at cycle   4 NSaved=   4.
 NSaved= 4 IEnMin= 4 EnMin= -255.098200590387     IErMin= 4 ErrMin= 1.04D-03
 ErrMax= 1.04D-03  0.00D+00 EMaxC= 1.00D-01 BMatC= 1.36D-04 BMatP= 9.47D-04
 IDIUse=3 WtCom= 9.90D-01 WtEn= 1.04D-02
 Coeff-Com: -0.834D-02-0.309D-01 0.437D+00 0.603D+00
 Coeff-En:   0.000D+00 0.000D+00 0.000D+00 0.100D+01
 Coeff:     -0.825D-02-0.306D-01 0.432D+00 0.607D+00
 Gap=     0.337 Goal=   None    Shift=    0.000
 RMSDP=4.27D-04 MaxDP=9.40D-03 DE=-8.01D-04 OVMax= 2.85D-03

 Cycle   5  Pass 1  IDiag  1:
 E= -255.098349416183     Delta-E=       -0.000148825796 Rises=F Damp=F
 DIIS: error= 3.77D-04 at cycle   5 NSaved=   5.
 NSaved= 5 IEnMin= 5 EnMin= -255.098349416183     IErMin= 5 ErrMin= 3.77D-04
 ErrMax= 3.77D-04  0.00D+00 EMaxC= 1.00D-01 BMatC= 6.97D-06 BMatP= 1.36D-04
 IDIUse=3 WtCom= 9.96D-01 WtEn= 3.77D-03
 Coeff-Com: -0.133D-02-0.178D-02-0.456D-01 0.526D-01 0.996D+00
 Coeff-En:   0.000D+00 0.000D+00 0.000D+00 0.000D+00 0.100D+01
 Coeff:     -0.132D-02-0.177D-02-0.455D-01 0.524D-01 0.996D+00
 Gap=     0.337 Goal=   None    Shift=    0.000
 RMSDP=3.03D-04 MaxDP=7.71D-03 DE=-1.49D-04 OVMax= 2.33D-03

 Cycle   6  Pass 1  IDiag  1:
 E= -255.098361451938     Delta-E=       -0.000012035755 Rises=F Damp=F
 DIIS: error= 2.24D-04 at cycle   6 NSaved=   6.
 NSaved= 6 IEnMin= 6 EnMin= -255.098361451938     IErMin= 6 ErrMin= 2.24D-04
 ErrMax= 2.24D-04  0.00D+00 EMaxC= 1.00D-01 BMatC= 2.97D-06 BMatP= 6.97D-06
 IDIUse=3 WtCom= 9.98D-01 WtEn= 2.24D-03
 Coeff-Com:  0.586D-03 0.338D-02-0.879D-01-0.690D-01 0.533D+00 0.620D+00
 Coeff-En:   0.000D+00 0.000D+00 0.000D+00 0.000D+00 0.000D+00 0.100D+01
 Coeff:      0.585D-03 0.337D-02-0.877D-01-0.689D-01 0.532D+00 0.621D+00
 Gap=     0.337 Goal=   None    Shift=    0.000
 RMSDP=8.76D-05 MaxDP=1.93D-03 DE=-1.20D-05 OVMax= 7.32D-04

 Cycle   7  Pass 1  IDiag  1:
 E= -255.098364986753     Delta-E=       -0.000003534815 Rises=F Damp=F
 DIIS: error= 1.88D-05 at cycle   7 NSaved=   7.
 NSaved= 7 IEnMin= 7 EnMin= -255.098364986753     IErMin= 7 ErrMin= 1.88D-05
 ErrMax= 1.88D-05  0.00D+00 EMaxC= 1.00D-01 BMatC= 3.58D-08 BMatP= 2.97D-06
 IDIUse=1 WtCom= 1.00D+00 WtEn= 0.00D+00
 Coeff-Com:  0.112D-03-0.697D-04 0.383D-02-0.397D-02-0.590D-01-0.348D-01
 Coeff-Com:  0.109D+01
 Coeff:      0.112D-03-0.697D-04 0.383D-02-0.397D-02-0.590D-01-0.348D-01
 Coeff:      0.109D+01
 Gap=     0.337 Goal=   None    Shift=    0.000
 RMSDP=2.32D-05 MaxDP=5.12D-04 DE=-3.53D-06 OVMax= 2.17D-04

 Cycle   8  Pass 1  IDiag  1:
 E= -255.098365089558     Delta-E=       -0.000000102805 Rises=F Damp=F
 DIIS: error= 1.20D-05 at cycle   8 NSaved=   8.
 NSaved= 8 IEnMin= 8 EnMin= -255.098365089558     IErMin= 8 ErrMin= 1.20D-05
 ErrMax= 1.20D-05  0.00D+00 EMaxC= 1.00D-01 BMatC= 6.02D-09 BMatP= 3.58D-08
 IDIUse=1 WtCom= 1.00D+00 WtEn= 0.00D+00
 Coeff-Com: -0.103D-04-0.263D-03 0.677D-02 0.320D-02-0.462D-01-0.529D-01
 Coeff-Com:  0.328D+00 0.761D+00
 Coeff:     -0.103D-04-0.263D-03 0.677D-02 0.320D-02-0.462D-01-0.529D-01
 Coeff:      0.328D+00 0.761D+00
 Gap=     0.337 Goal=   None    Shift=    0.000
 RMSDP=8.03D-06 MaxDP=1.94D-04 DE=-1.03D-07 OVMax= 8.02D-05

 Cycle   9  Pass 1  IDiag  1:
 E= -255.098365099982     Delta-E=       -0.000000010424 Rises=F Damp=F
 DIIS: error= 3.70D-06 at cycle   9 NSaved=   9.
 NSaved= 9 IEnMin= 9 EnMin= -255.098365099982     IErMin= 9 ErrMin= 3.70D-06
 ErrMax= 3.70D-06  0.00D+00 EMaxC= 1.00D-01 BMatC= 1.03D-09 BMatP= 6.02D-09
 IDIUse=1 WtCom= 1.00D+00 WtEn= 0.00D+00
 Coeff-Com: -0.840D-05-0.334D-04 0.108D-02 0.878D-03-0.471D-02-0.129D-01
 Coeff-Com: -0.596D-01 0.218D+00 0.858D+00
 Coeff:     -0.840D-05-0.334D-04 0.108D-02 0.878D-03-0.471D-02-0.129D-01
 Coeff:     -0.596D-01 0.218D+00 0.858D+00
 Gap=     0.337 Goal=   None    Shift=    0.000
 RMSDP=2.65D-06 MaxDP=6.25D-05 DE=-1.04D-08 OVMax= 2.06D-05

 Cycle  10  Pass 1  IDiag  1:
 E= -255.098365101483     Delta-E=       -0.000000001501 Rises=F Damp=F
 DIIS: error= 1.73D-06 at cycle  10 NSaved=  10.
 NSaved=10 IEnMin=10 EnMin= -255.098365101483     IErMin=10 ErrMin= 1.73D-06
 ErrMax= 1.73D-06  0.00D+00 EMaxC= 1.00D-01 BMatC= 9.99D-11 BMatP= 1.03D-09
 IDIUse=1 WtCom= 1.00D+00 WtEn= 0.00D+00
 Coeff-Com: -0.343D-07 0.233D-04-0.482D-03-0.124D-03 0.453D-02 0.164D-02
 Coeff-Com: -0.575D-01 0.101D-01 0.309D+00 0.733D+00
 Coeff:     -0.343D-07 0.233D-04-0.482D-03-0.124D-03 0.453D-02 0.164D-02
 Coeff:     -0.575D-01 0.101D-01 0.309D+00 0.733D+00
 Gap=     0.337 Goal=   None    Shift=    0.000
 RMSDP=5.45D-07 MaxDP=1.29D-05 DE=-1.50D-09 OVMax= 9.91D-06

 Cycle  11  Pass 1  IDiag  1:
 E= -255.098365101655     Delta-E=       -0.000000000172 Rises=F Damp=F
 DIIS: error= 2.76D-07 at cycle  11 NSaved=  11.
 NSaved=11 IEnMin=11 EnMin= -255.098365101655     IErMin=11 ErrMin= 2.76D-07
 ErrMax= 2.76D-07  0.00D+00 EMaxC= 1.00D-01 BMatC= 5.88D-12 BMatP= 9.99D-11
 IDIUse=1 WtCom= 1.00D+00 WtEn= 0.00D+00
 Coeff-Com:  0.514D-06-0.129D-05-0.356D-04-0.109D-04-0.795D-04 0.948D-03
 Coeff-Com:  0.849D-02-0.108D-01-0.126D+00-0.466D-01 0.117D+01
 Coeff:      0.514D-06-0.129D-05-0.356D-04-0.109D-04-0.795D-04 0.948D-03
 Coeff:      0.849D-02-0.108D-01-0.126D+00-0.466D-01 0.117D+01
 Gap=     0.337 Goal=   None    Shift=    0.000
 RMSDP=2.07D-07 MaxDP=3.56D-06 DE=-1.72D-10 OVMax= 2.97D-06

 Cycle  12  Pass 1  IDiag  1:
 E= -255.098365101670     Delta-E=       -0.000000000014 Rises=F Damp=F
 DIIS: error= 4.64D-08 at cycle  12 NSaved=  12.
 NSaved=12 IEnMin=12 EnMin= -255.098365101670     IErMin=12 ErrMin= 4.64D-08
 ErrMax= 4.64D-08  0.00D+00 EMaxC= 1.00D-01 BMatC= 8.54D-14 BMatP= 5.88D-12
 IDIUse=1 WtCom= 1.00D+00 WtEn= 0.00D+00
 Coeff-Com:  0.422D-07-0.665D-06 0.142D-04 0.453D-05-0.125D-03-0.506D-04
 Coeff-Com:  0.101D-02 0.993D-03-0.266D-02-0.140D-01-0.951D-01 0.111D+01
 Coeff:      0.422D-07-0.665D-06 0.142D-04 0.453D-05-0.125D-03-0.506D-04
 Coeff:      0.101D-02 0.993D-03-0.266D-02-0.140D-01-0.951D-01 0.111D+01
 Gap=     0.337 Goal=   None    Shift=    0.000
 RMSDP=4.57D-08 MaxDP=9.87D-07 DE=-1.45D-11 OVMax= 4.23D-07

 Cycle  13  Pass 1  IDiag  1:
 E= -255.098365101670     Delta-E=        0.000000000000 Rises=F Damp=F
 DIIS: error= 5.80D-09 at cycle  13 NSaved=  13.
 NSaved=13 IEnMin=13 EnMin= -255.098365101670     IErMin=13 ErrMin= 5.80D-09
 ErrMax= 5.80D-09  0.00D+00 EMaxC= 1.00D-01 BMatC= 2.85D-15 BMatP= 8.54D-14
 IDIUse=1 WtCom= 1.00D+00 WtEn= 0.00D+00
 Coeff-Com: -0.214D-07 0.705D-07 0.164D-05 0.109D-05-0.440D-05-0.261D-04
 Coeff-Com: -0.249D-03 0.435D-03 0.364D-02 0.280D-02-0.379D-01-0.269D-01
 Coeff-Com:  0.106D+01
 Coeff:     -0.214D-07 0.705D-07 0.164D-05 0.109D-05-0.440D-05-0.261D-04
 Coeff:     -0.249D-03 0.435D-03 0.364D-02 0.280D-02-0.379D-01-0.269D-01
 Coeff:      0.106D+01
 Gap=     0.337 Goal=   None    Shift=    0.000
 RMSDP=7.00D-09 MaxDP=1.64D-07 DE=-4.55D-13 OVMax= 4.71D-08

 SCF Done:  E(RwB97XD) =  -255.098365102     A.U. after   13 cycles
            NFock= 13  Conv=0.70D-08     -V/T= 2.0058
 KE= 2.536170747029D+02 PE=-9.096311312477D+02 EE= 2.448932219908D+02
 Leave Link  502 at Wed May 12 11:56:04 2021, MaxMem=  2147483648 cpu:        12.8
 (Enter /opt/cluster/programs/g09_d.01/g09/l601.exe)
 Copying SCF densities to generalized density rwf, IOpCl= 0 IROHF=0.

 **********************************************************************

            Population analysis using the SCF density.

 **********************************************************************

 Orbital symmetries:
       Occupied  (A) (A) (A) (A) (A) (A) (A) (A) (A) (A) (A) (A)
                 (A) (A) (A) (A) (A) (A) (A)
       Virtual   (A) (A) (A) (A) (A) (A) (A) (A) (A) (A) (A) (A)
                 (A) (A) (A) (A) (A) (A) (A) (A) (A) (A) (A) (A)
                 (A) (A) (A) (A) (A) (A) (A) (A) (A) (A) (A) (A)
                 (A) (A) (A) (A) (A) (A) (A) (A) (A) (A) (A) (A)
                 (A) (A) (A) (A) (A) (A) (A) (A)
 The electronic state is 1-A.
 Alpha  occ. eigenvalues --  -24.82904 -10.40502 -10.33281 -10.32118 -10.31301
 Alpha  occ. eigenvalues --   -1.30591  -0.93049  -0.85889  -0.74876  -0.65026
 Alpha  occ. eigenvalues --   -0.61431  -0.58117  -0.54010  -0.53776  -0.50488
 Alpha  occ. eigenvalues --   -0.48186  -0.45909  -0.41421  -0.32872
 Alpha virt. eigenvalues --    0.00812   0.07225   0.08358   0.09104   0.10892
 Alpha virt. eigenvalues --    0.11738   0.12383   0.12798   0.14463   0.15844
 Alpha virt. eigenvalues --    0.16335   0.17602   0.18110   0.19017   0.21204
 Alpha virt. eigenvalues --    0.21595   0.21679   0.23073   0.26255   0.27479
 Alpha virt. eigenvalues --    0.29336   0.32156   0.33011   0.37847   0.40368
 Alpha virt. eigenvalues --    0.40542   0.42960   0.47372   0.49009   0.50327
 Alpha virt. eigenvalues --    0.54549   0.68395   0.72907   0.74523   0.78011
 Alpha virt. eigenvalues --    0.80222   0.84557   0.84817   0.88243   0.92254
 Alpha virt. eigenvalues --    1.01419   1.03445   1.08679   1.09095   1.11724
 Alpha virt. eigenvalues --    1.15224   1.18826   1.24122   1.31967   1.34529
 Alpha virt. eigenvalues --    1.40896   1.53436   1.65453   1.82920   1.86442
 Alpha virt. eigenvalues --    2.37942
          Condensed to atoms (all electrons):
               1          2          3          4          5          6
     1  C    6.626854  -0.278853  -0.573793  -0.006752   0.403301   0.311726
     2  C   -0.278853   5.645191   0.087759   0.227697  -0.059507   0.021132
     3  C   -0.573793   0.087759   6.150178   0.237551   0.016401   0.006506
     4  C   -0.006752   0.227697   0.237551   5.222397  -0.004862  -0.001468
     5  H    0.403301  -0.059507   0.016401  -0.004862   0.445909  -0.020500
     6  H    0.311726   0.021132   0.006506  -0.001468  -0.020500   0.478949
     7  F   -0.194287   0.342254  -0.174282   0.015845  -0.002959   0.004040
     8  H    0.008450  -0.004145   0.315659  -0.003981  -0.000088   0.000025
     9  H   -0.005045   0.011280  -0.047394   0.382947  -0.000008   0.001505
    10  H    0.000653   0.003470  -0.017570   0.370399   0.000000  -0.000003
               7          8          9         10
     1  C   -0.194287   0.008450  -0.005045   0.000653
     2  C    0.342254  -0.004145   0.011280   0.003470
     3  C   -0.174282   0.315659  -0.047394  -0.017570
     4  C    0.015845  -0.003981   0.382947   0.370399
     5  H   -0.002959  -0.000088  -0.000008   0.000000
     6  H    0.004040   0.000025   0.001505  -0.000003
     7  F    9.327987  -0.006127   0.000139  -0.000266
     8  H   -0.006127   0.462211   0.002605  -0.003442
     9  H    0.000139   0.002605   0.488007  -0.024232
    10  H   -0.000266  -0.003442  -0.024232   0.468750
 Mulliken charges:
               1
     1  C   -0.292254
     2  C    0.003722
     3  C   -0.001017
     4  C   -0.439774
     5  H    0.222313
     6  H    0.198087
     7  F   -0.312345
     8  H    0.228832
     9  H    0.190196
    10  H    0.202241
 Sum of Mulliken charges =   0.00000
 Mulliken charges with hydrogens summed into heavy atoms:
               1
     1  C    0.128145
     2  C    0.003722
     3  C    0.227815
     4  C   -0.047337
     7  F   -0.312345
 Electronic spatial extent (au):  <R**2>=            439.2261
 Charge=              0.0000 electrons
 Dipole moment (field-independent basis, Debye):
    X=             -1.9793    Y=              1.4558    Z=              0.0004  Tot=              2.4570
 Quadrupole moment (field-independent basis, Debye-Ang):
   XX=            -28.7209   YY=            -27.2068   ZZ=            -32.8286
   XY=              2.9198   XZ=              0.0003   YZ=             -0.0016
 Traceless Quadrupole moment (field-independent basis, Debye-Ang):
   XX=              0.8645   YY=              2.3787   ZZ=             -3.2432
   XY=              2.9198   XZ=              0.0003   YZ=             -0.0016
 Octapole moment (field-independent basis, Debye-Ang**2):
  XXX=              0.6959  YYY=             -2.8576  ZZZ=             -0.0011  XYY=             -0.1140
  XXY=              3.1255  XXZ=              0.0006  XZZ=              5.4642  YZZ=             -3.5632
  YYZ=              0.0003  XYZ=              0.0012
 Hexadecapole moment (field-independent basis, Debye-Ang**3):
 XXXX=           -327.4356 YYYY=           -156.9218 ZZZZ=            -36.9970 XXXY=              5.5191
 XXXZ=              0.0001 YYYX=             -6.2566 YYYZ=             -0.0052 ZZZX=             -0.0021
 ZZZY=             -0.0008 XXYY=            -82.6378 XXZZ=            -72.5677 YYZZ=            -37.6468
 XXYZ=             -0.0011 YYXZ=             -0.0011 ZZXY=             -5.2028
 N-N= 1.560224694522D+02 E-N=-9.096311315015D+02  KE= 2.536170747029D+02
 No NMR shielding tensors so no spin-rotation constants.
 Leave Link  601 at Wed May 12 11:56:04 2021, MaxMem=  2147483648 cpu:         0.6
 (Enter /opt/cluster/programs/g09_d.01/g09/l701.exe)
 Compute integral first derivatives.
 ... and contract with generalized density number  0.
 R6Disp: Adding Grimme-D2 dispersion energy 1st derivatives to the gradient.
 Leave Link  701 at Wed May 12 11:56:04 2021, MaxMem=  2147483648 cpu:         0.6
 (Enter /opt/cluster/programs/g09_d.01/g09/l702.exe)
 L702 exits ... SP integral derivatives will be done elsewhere.
 Leave Link  702 at Wed May 12 11:56:04 2021, MaxMem=  2147483648 cpu:         0.2
 (Enter /opt/cluster/programs/g09_d.01/g09/l703.exe)
 Compute integral first derivatives, UseDBF=F ICtDFT=           0.
 Integral derivatives from FoFJK, PRISM(SPDF).
 Calling FoFJK, ICntrl=      2127 FMM=F ISym2X=0 I1Cent= 0 IOpClX= 0 NMat=1 NMatS=1 NMatT=0.
 FoFJK:  IHMeth= 1 ICntrl=    2127 DoSepK=T KAlg= 0 I1Cent=   0 FoldK=F
 IRaf=         1 NMat=   1 IRICut=       1 DoRegI=T DoRafI=F ISym2E= 0.
 FoFCou: FMM=F IPFlag=           0 FMFlag=      100000 FMFlg1=         800
         NFxFlg=           0 DoJE=F BraDBF=F KetDBF=F FulRan=T
         wScrn=  0.000000 ICntrl=    2527 IOpCl=  0 I1Cent=           0 NGrid=           0
         NMat0=    1 NMatS0=      1 NMatT0=    0 NMatD0=    1 NMtDS0=    0 NMtDT0=    0
 Symmetry not used in FoFCou.
 Leave Link  703 at Wed May 12 11:56:04 2021, MaxMem=  2147483648 cpu:         3.3
 (Enter /opt/cluster/programs/g09_d.01/g09/l716.exe)
 Dipole        =-7.78706210D-01 5.72750021D-01 1.57779552D-04
 ***** Axes restored to original set *****
 -------------------------------------------------------------------
 Center     Atomic                   Forces (Hartrees/Bohr)
 Number     Number              X              Y              Z
 -------------------------------------------------------------------
      1        6           0.002120043    0.004833994   -0.000005759
      2        6          -0.006805996   -0.002122866   -0.000016962
      3        6           0.005838264   -0.001262864    0.000015084
      4        6          -0.005343345    0.001878505    0.000005911
      5        1           0.000361450    0.000602829   -0.000004938
      6        1           0.000202062    0.000670745    0.000012386
      7        9           0.004650665   -0.004452444    0.000014109
      8        1           0.000155186   -0.000454421   -0.000012881
      9        1          -0.000459995    0.000191761   -0.000008440
     10        1          -0.000718333    0.000114760    0.000001491
 -------------------------------------------------------------------
 Cartesian Forces:  Max     0.006805996 RMS     0.002515933
 Leave Link  716 at Wed May 12 11:56:04 2021, MaxMem=  2147483648 cpu:         0.2
 (Enter /opt/cluster/programs/g09_d.01/g09/l103.exe)

 GradGradGradGradGradGradGradGradGradGradGradGradGradGradGradGradGradGrad
 Berny optimization.
 FormGI is forming the generalized inverse of G from B-inverse, IUseBI=4.
 Internal  Forces:  Max     0.006750425 RMS     0.002087236
 Search for a local minimum.
 Step number   1 out of a maximum of   43
 All quantities printed in internal units (Hartrees-Bohrs-Radians)
 RMS Force = .21196D-02 SwitMx=.10000D-02 MixMth= 1
 Mixed Optimization -- RFO/linear search
 Second derivative matrix not updated -- first step.
 ITU=  0
     Eigenvalues ---    0.01703   0.02117   0.02820   0.02820   0.02940
     Eigenvalues ---    0.02940   0.16000   0.16000   0.16000   0.16000
     Eigenvalues ---    0.16000   0.22000   0.25000   0.25000   0.35188
     Eigenvalues ---    0.35217   0.35445   0.35600   0.35691   0.36724
     Eigenvalues ---    0.41618   0.56157   0.581931000.000001000.00000
     Eigenvalues --- 1000.000001000.000001000.000001000.000001000.00000
     Eigenvalues --- 1000.000001000.000001000.00000
 RFO step:  Lambda=-3.13166987D-04 EMin= 1.70251876D-02
 Linear search not attempted -- first point.
 Iteration  1 RMS(Cart)=  0.01401397 RMS(Int)=  0.00003814
 Iteration  2 RMS(Cart)=  0.00005138 RMS(Int)=  0.00000002
 Iteration  3 RMS(Cart)=  0.00000000 RMS(Int)=  0.00000002
 Iteration  1 RMS(Cart)=  0.00000000 RMS(Int)=  0.00000000
 ITry= 1 IFail=0 DXMaxC= 4.54D-02 DCOld= 1.00D+10 DXMaxT= 3.00D-01 DXLimC= 3.00D+00 Rises=F
 Variable       Old X    -DE/DX   Delta X   Delta X   Delta X     New X
                                 (Linear)    (Quad)   (Total)
    R1        2.52399  -0.00664   0.00000  -0.01141  -0.01141   2.51259
    R2        2.04567  -0.00049   0.00000  -0.00138  -0.00138   2.04430
    R3        2.04712  -0.00037   0.00000  -0.00104  -0.00104   2.04608
    R4        2.76264  -0.00028   0.00000  -0.00076  -0.00076   2.76187
    R5        2.69412  -0.00644   0.00000  -0.01545  -0.01545   2.67867
    R6        2.54118  -0.00675   0.00000  -0.01201  -0.01201   2.52917
    R7        2.05371  -0.00046   0.00000  -0.00131  -0.00131   2.05240
    R8        2.05325  -0.00021   0.00000  -0.00061  -0.00061   2.05264
    R9        2.04959  -0.00057   0.00000  -0.00160  -0.00160   2.04799
    A1        2.11356  -0.00029   0.00000  -0.00183  -0.00183   2.11173
    A2        2.10772  -0.00046   0.00000  -0.00288  -0.00288   2.10485
    A3        2.06190   0.00075   0.00000   0.00471   0.00471   2.06661
    A4        2.30940  -0.00130   0.00000  -0.00518  -0.00518   2.30422
    A5        2.04287   0.00073   0.00000   0.00291   0.00291   2.04579
    A6        1.93091   0.00057   0.00000   0.00226   0.00226   1.93317
    A7        2.19851  -0.00225   0.00000  -0.01022  -0.01022   2.18829
    A8        1.99126   0.00129   0.00000   0.00612   0.00612   1.99738
    A9        2.09341   0.00096   0.00000   0.00410   0.00410   2.09752
   A10        2.14276  -0.00031   0.00000  -0.00195  -0.00195   2.14081
   A11        2.10895  -0.00030   0.00000  -0.00188  -0.00188   2.10707
   A12        2.03147   0.00061   0.00000   0.00383   0.00383   2.03530
    D1        3.14151   0.00000   0.00000   0.00002   0.00002   3.14152
    D2       -0.00022   0.00001   0.00000   0.00028   0.00028   0.00005
    D3       -0.00022   0.00001   0.00000   0.00024   0.00024   0.00002
    D4        3.14124   0.00001   0.00000   0.00050   0.00050  -3.14145
    D5        0.00019   0.00001   0.00000   0.00000   0.00000   0.00019
    D6       -3.14117   0.00000   0.00000  -0.00020  -0.00020  -3.14137
    D7       -3.14127   0.00000   0.00000  -0.00025  -0.00025  -3.14151
    D8        0.00056  -0.00001   0.00000  -0.00045  -0.00045   0.00011
    D9       -0.00006   0.00000   0.00000   0.00015   0.00015   0.00009
   D10       -3.14154   0.00000   0.00000  -0.00006  -0.00006   3.14158
   D11        3.14129   0.00001   0.00000   0.00036   0.00036  -3.14153
   D12       -0.00019   0.00000   0.00000   0.00015   0.00015  -0.00004
         Item               Value     Threshold  Converged?
 Maximum Force            0.006750     0.000450     NO 
 RMS     Force            0.002120     0.000300     NO 
 Maximum Displacement     0.045437     0.001800     NO 
 RMS     Displacement     0.014006     0.001200     NO 
 Predicted change in Energy=-1.567053D-04
 Lowest energy point so far.  Saving SCF results.
 GradGradGradGradGradGradGradGradGradGradGradGradGradGradGradGradGradGrad

 Leave Link  103 at Wed May 12 11:56:04 2021, MaxMem=  2147483648 cpu:         0.0
 (Enter /opt/cluster/programs/g09_d.01/g09/l202.exe)
                          Input orientation:                          
 ---------------------------------------------------------------------
 Center     Atomic      Atomic             Coordinates (Angstroms)
 Number     Number       Type             X           Y           Z
 ---------------------------------------------------------------------
      1          6           0       -0.845839   -1.333365   -0.000014
      2          6           0       -0.462540   -0.060209    0.000018
      3          6           0        0.859151    0.563628    0.000108
      4          6           0        2.025704   -0.092426   -0.000033
      5          1           0       -1.894403   -1.599436   -0.000018
      6          1           0       -0.112318   -2.129777    0.000049
      7          9           0       -1.482712    0.923928    0.000110
      8          1           0        0.843494    1.649599    0.000336
      9          1           0        2.088357   -1.176828   -0.000317
     10          1           0        2.965008    0.448155    0.000040
 ---------------------------------------------------------------------
                    Distance matrix (angstroms):
                    1          2          3          4          5
     1  C    0.000000
     2  C    1.329603   0.000000
     3  C    2.550603   1.461520   0.000000
     4  C    3.128210   2.488453   1.338377   0.000000
     5  H    1.081795   2.102249   3.501557   4.199800   0.000000
     6  H    1.082739   2.098991   2.863246   2.953293   1.859325
     7  F    2.345417   1.417490   2.369417   3.652665   2.556727
     8  H    3.428108   2.151551   1.086084   2.105297   4.248801
     9  H    2.938369   2.784585   2.130760   1.086211   4.005119
    10  H    4.206706   3.465043   2.109021   1.083752   5.273187
                    6          7          8          9         10
     6  H    0.000000
     7  F    3.347102   0.000000
     8  H    3.898366   2.436766   0.000000
     9  H    2.398141   4.143152   3.088427   0.000000
    10  H    4.014433   4.473094   2.438092   1.846372   0.000000
 Stoichiometry    C4H5F
 Framework group  C1[X(C4H5F)]
 Deg. of freedom    24
 Full point group                 C1      NOp   1
 RotChk:  IX=2 Diff= 2.87D-03
 Largest Abelian subgroup         C1      NOp   1
 Largest concise Abelian subgroup C1      NOp   1
                         Standard orientation:                         
 ---------------------------------------------------------------------
 Center     Atomic      Atomic             Coordinates (Angstroms)
 Number     Number       Type             X           Y           Z
 ---------------------------------------------------------------------
      1          6           0        0.843255    1.334364   -0.000055
      2          6           0        0.462539    0.060433   -0.000023
      3          6           0       -0.857883   -0.566084    0.000067
      4          6           0       -2.025766    0.087601   -0.000074
      5          1           0        1.891276    1.602561   -0.000059
      6          1           0        0.108119    2.129285    0.000008
      7          9           0        1.484705   -0.921633    0.000069
      8          1           0       -0.840023   -1.652022    0.000295
      9          1           0       -2.090618    1.171875   -0.000358
     10          1           0       -2.963971   -0.454884   -0.000001
 ---------------------------------------------------------------------
 Rotational constants (GHZ):      9.6234336      3.9321098      2.7915072
 Leave Link  202 at Wed May 12 11:56:04 2021, MaxMem=  2147483648 cpu:         0.0
 (Enter /opt/cluster/programs/g09_d.01/g09/l301.exe)
 Standard basis: 6-31+G (6D, 7F)
 Ernie: Thresh=  0.10000D-02 Tol=  0.10000D-05 Strict=F.
 There are    75 symmetry adapted cartesian basis functions of A   symmetry.
 There are    75 symmetry adapted basis functions of A   symmetry.
    75 basis functions,   150 primitive gaussians,    75 cartesian basis functions
    19 alpha electrons       19 beta electrons
       nuclear repulsion energy       156.6070400235 Hartrees.
 IExCor= 4639 DFT=T Ex+Corr=wB97XD ExCW=0 ScaHFX=  1.000000
 ScaDFX=  1.000000  1.000000  1.000000  1.000000 ScalE2=  1.000000  1.000000
 IRadAn=      0 IRanWt=     -1 IRanGd=            0 ICorTp=0 IEmpDi=121
  HFx wShort=  0.000000 wLong=  0.200000 cFull=  0.222036 cShort=  0.000000 cLong=  0.777964
  DFx wShort=  0.000000 wLong=  0.200000 cFull=  0.000000 cShort=  0.000000 cLong=  1.000000
 NAtoms=   10 NActive=   10 NUniq=   10 SFac= 1.00D+00 NAtFMM=   60 NAOKFM=F Big=F
 Integral buffers will be    131072 words long.
 Raffenetti 2 integral format.
 Two-electron integral symmetry is turned on.
 R6Disp:  Grimme-D2 Dispersion energy=       -0.0031275028 Hartrees.
 Nuclear repulsion after empirical dispersion term =      156.6039125207 Hartrees.
 Leave Link  301 at Wed May 12 11:56:04 2021, MaxMem=  2147483648 cpu:         0.3
 (Enter /opt/cluster/programs/g09_d.01/g09/l302.exe)
 NPDir=0 NMtPBC=     1 NCelOv=     1 NCel=       1 NClECP=     1 NCelD=      1
         NCelK=      1 NCelE2=     1 NClLst=     1 CellRange=     0.0.
 One-electron integrals computed using PRISM.
 NBasis=    75 RedAO= T EigKep=  2.91D-05  NBF=    75
 NBsUse=    75 1.00D-06 EigRej= -1.00D+00 NBFU=    75
 Precomputing XC quadrature grid using
 IXCGrd= 4 IRadAn=           0 IRanWt=          -1 IRanGd=           0 AccXCQ= 0.00D+00.
 Generated NRdTot=       0 NPtTot=           0 NUsed=           0 NTot=          32
 NSgBfM=    75    75    75    75    75 MxSgAt=    10 MxSgA2=    10.
 Leave Link  302 at Wed May 12 11:56:04 2021, MaxMem=  2147483648 cpu:         0.8
 (Enter /opt/cluster/programs/g09_d.01/g09/l303.exe)
 DipDrv:  MaxL=1.
 Leave Link  303 at Wed May 12 11:56:05 2021, MaxMem=  2147483648 cpu:         0.2
 (Enter /opt/cluster/programs/g09_d.01/g09/l401.exe)
 Initial guess from the checkpoint file:  "/home/unibas/boittier/RDKit_G2/B.pdb/SCAN_1_2_3_4_S_17_20.0/9_SCAN_1_2_3_4_F/B.pdb.chk"
 B after Tr=     0.000000    0.000000    0.000000
         Rot=    0.999999    0.000035    0.000011   -0.001454 Ang=   0.17 deg.
 Guess basis will be translated and rotated to current coordinates.
 JPrj=2 DoOrth=T DoCkMO=T.
 Generating alternative initial guess.
 ExpMin= 4.38D-02 ExpMax= 7.00D+03 ExpMxC= 1.05D+03 IAcc=2 IRadAn=         4 AccDes= 0.00D+00
 Harris functional with IExCor= 4639 and IRadAn=       4 diagonalized for initial guess.
 HarFok:  IExCor= 4639 AccDes= 0.00D+00 IRadAn=         4 IDoV= 1 UseB2=F ITyADJ=14
 ICtDFT=  3500011 ScaDFX=  1.000000  1.000000  1.000000  1.000000
 FoFCou: FMM=F IPFlag=           0 FMFlag=      100000 FMFlg1=           0
         NFxFlg=           0 DoJE=T BraDBF=F KetDBF=T FulRan=T
         wScrn=  0.000000 ICntrl=     500 IOpCl=  0 I1Cent=   200000004 NGrid=           0
         NMat0=    1 NMatS0=      1 NMatT0=    0 NMatD0=    1 NMtDS0=    0 NMtDT0=    0
 Petite list used in FoFCou.
 Harris En= -244.783750126678    
 Leave Link  401 at Wed May 12 11:56:05 2021, MaxMem=  2147483648 cpu:         1.7
 (Enter /opt/cluster/programs/g09_d.01/g09/l502.exe)
 Closed shell SCF:
 Using DIIS extrapolation, IDIIS=  1040.
 Integral symmetry usage will be decided dynamically.
 Keep R1 ints in memory in canonical form, NReq=9056162.
 IVT=       36600 IEndB=       36600 NGot=  2147483648 MDV=  2139321699
 LenX=  2139321699 LenY=  2139315633
 Requested convergence on RMS density matrix=1.00D-08 within 128 cycles.
 Requested convergence on MAX density matrix=1.00D-06.
 Requested convergence on             energy=1.00D-06.
 No special actions if energy rises.
 FoFCou: FMM=F IPFlag=           0 FMFlag=           0 FMFlg1=           0
         NFxFlg=           0 DoJE=F BraDBF=F KetDBF=F FulRan=T
         wScrn=  0.000000 ICntrl=     600 IOpCl=  0 I1Cent=           0 NGrid=           0
         NMat0=    1 NMatS0=   2850 NMatT0=    0 NMatD0=    1 NMtDS0=    0 NMtDT0=    0
 Symmetry not used in FoFCou.

 Cycle   1  Pass 1  IDiag  1:
 E= -255.098410303862    
 DIIS: error= 7.47D-04 at cycle   1 NSaved=   1.
 NSaved= 1 IEnMin= 1 EnMin= -255.098410303862     IErMin= 1 ErrMin= 7.47D-04
 ErrMax= 7.47D-04  0.00D+00 EMaxC= 1.00D-01 BMatC= 8.35D-05 BMatP= 8.35D-05
 IDIUse=3 WtCom= 9.93D-01 WtEn= 7.47D-03
 Coeff-Com:  0.100D+01
 Coeff-En:   0.100D+01
 Coeff:      0.100D+01
 Gap=     0.574 Goal=   None    Shift=    0.000
 RMSDP=4.96D-04 MaxDP=7.55D-03              OVMax= 2.24D-03

 Cycle   2  Pass 1  IDiag  1:
 E= -255.098515919722     Delta-E=       -0.000105615860 Rises=F Damp=F
 DIIS: error= 2.03D-04 at cycle   2 NSaved=   2.
 NSaved= 2 IEnMin= 2 EnMin= -255.098515919722     IErMin= 2 ErrMin= 2.03D-04
 ErrMax= 2.03D-04  0.00D+00 EMaxC= 1.00D-01 BMatC= 4.26D-06 BMatP= 8.35D-05
 IDIUse=3 WtCom= 9.98D-01 WtEn= 2.03D-03
 Coeff-Com: -0.838D-02 0.101D+01
 Coeff-En:   0.000D+00 0.100D+01
 Coeff:     -0.836D-02 0.101D+01
 Gap=     0.339 Goal=   None    Shift=    0.000
 RMSDP=1.07D-04 MaxDP=2.37D-03 DE=-1.06D-04 OVMax= 6.56D-04

 Cycle   3  Pass 1  IDiag  1:
 E= -255.098521093137     Delta-E=       -0.000005173415 Rises=F Damp=F
 DIIS: error= 1.33D-04 at cycle   3 NSaved=   3.
 NSaved= 3 IEnMin= 3 EnMin= -255.098521093137     IErMin= 3 ErrMin= 1.33D-04
 ErrMax= 1.33D-04  0.00D+00 EMaxC= 1.00D-01 BMatC= 1.36D-06 BMatP= 4.26D-06
 IDIUse=3 WtCom= 9.99D-01 WtEn= 1.33D-03
 Coeff-Com: -0.555D-01 0.349D+00 0.707D+00
 Coeff-En:   0.000D+00 0.000D+00 0.100D+01
 Coeff:     -0.554D-01 0.348D+00 0.707D+00
 Gap=     0.339 Goal=   None    Shift=    0.000
 RMSDP=2.86D-05 MaxDP=4.40D-04 DE=-5.17D-06 OVMax= 2.87D-04

 Cycle   4  Pass 1  IDiag  1:
 E= -255.098522328926     Delta-E=       -0.000001235789 Rises=F Damp=F
 DIIS: error= 4.59D-05 at cycle   4 NSaved=   4.
 NSaved= 4 IEnMin= 4 EnMin= -255.098522328926     IErMin= 4 ErrMin= 4.59D-05
 ErrMax= 4.59D-05  0.00D+00 EMaxC= 1.00D-01 BMatC= 1.03D-07 BMatP= 1.36D-06
 IDIUse=1 WtCom= 1.00D+00 WtEn= 0.00D+00
 Coeff-Com: -0.180D-01 0.653D-01 0.253D+00 0.699D+00
 Coeff:     -0.180D-01 0.653D-01 0.253D+00 0.699D+00
 Gap=     0.339 Goal=   None    Shift=    0.000
 RMSDP=9.01D-06 MaxDP=1.37D-04 DE=-1.24D-06 OVMax= 1.34D-04

 Cycle   5  Pass 1  IDiag  1:
 E= -255.098522412228     Delta-E=       -0.000000083302 Rises=F Damp=F
 DIIS: error= 1.84D-05 at cycle   5 NSaved=   5.
 NSaved= 5 IEnMin= 5 EnMin= -255.098522412228     IErMin= 5 ErrMin= 1.84D-05
 ErrMax= 1.84D-05  0.00D+00 EMaxC= 1.00D-01 BMatC= 1.85D-08 BMatP= 1.03D-07
 IDIUse=1 WtCom= 1.00D+00 WtEn= 0.00D+00
 Coeff-Com:  0.315D-02-0.382D-01-0.346D-01 0.305D+00 0.764D+00
 Coeff:      0.315D-02-0.382D-01-0.346D-01 0.305D+00 0.764D+00
 Gap=     0.339 Goal=   None    Shift=    0.000
 RMSDP=5.23D-06 MaxDP=1.22D-04 DE=-8.33D-08 OVMax= 3.15D-05

 Cycle   6  Pass 1  IDiag  1:
 E= -255.098522431365     Delta-E=       -0.000000019137 Rises=F Damp=F
 DIIS: error= 2.33D-06 at cycle   6 NSaved=   6.
 NSaved= 6 IEnMin= 6 EnMin= -255.098522431365     IErMin= 6 ErrMin= 2.33D-06
 ErrMax= 2.33D-06  0.00D+00 EMaxC= 1.00D-01 BMatC= 3.99D-10 BMatP= 1.85D-08
 IDIUse=1 WtCom= 1.00D+00 WtEn= 0.00D+00
 Coeff-Com:  0.122D-02-0.969D-02-0.166D-01 0.415D-01 0.111D+00 0.873D+00
 Coeff:      0.122D-02-0.969D-02-0.166D-01 0.415D-01 0.111D+00 0.873D+00
 Gap=     0.339 Goal=   None    Shift=    0.000
 RMSDP=1.11D-06 MaxDP=2.15D-05 DE=-1.91D-08 OVMax= 1.24D-05

 Cycle   7  Pass 1  IDiag  1:
 E= -255.098522432061     Delta-E=       -0.000000000696 Rises=F Damp=F
 DIIS: error= 1.37D-06 at cycle   7 NSaved=   7.
 NSaved= 7 IEnMin= 7 EnMin= -255.098522432061     IErMin= 7 ErrMin= 1.37D-06
 ErrMax= 1.37D-06  0.00D+00 EMaxC= 1.00D-01 BMatC= 1.24D-10 BMatP= 3.99D-10
 IDIUse=1 WtCom= 1.00D+00 WtEn= 0.00D+00
 Coeff-Com: -0.132D-03 0.392D-02-0.202D-03-0.408D-01-0.112D+00 0.380D+00
 Coeff-Com:  0.770D+00
 Coeff:     -0.132D-03 0.392D-02-0.202D-03-0.408D-01-0.112D+00 0.380D+00
 Coeff:      0.770D+00
 Gap=     0.339 Goal=   None    Shift=    0.000
 RMSDP=6.79D-07 MaxDP=1.41D-05 DE=-6.96D-10 OVMax= 1.04D-05

 Cycle   8  Pass 1  IDiag  1:
 E= -255.098522432269     Delta-E=       -0.000000000209 Rises=F Damp=F
 DIIS: error= 2.83D-07 at cycle   8 NSaved=   8.
 NSaved= 8 IEnMin= 8 EnMin= -255.098522432269     IErMin= 8 ErrMin= 2.83D-07
 ErrMax= 2.83D-07  0.00D+00 EMaxC= 1.00D-01 BMatC= 3.69D-12 BMatP= 1.24D-10
 IDIUse=1 WtCom= 1.00D+00 WtEn= 0.00D+00
 Coeff-Com: -0.566D-04 0.272D-03 0.927D-03 0.926D-03-0.286D-03-0.967D-01
 Coeff-Com:  0.257D-02 0.109D+01
 Coeff:     -0.566D-04 0.272D-03 0.927D-03 0.926D-03-0.286D-03-0.967D-01
 Coeff:      0.257D-02 0.109D+01
 Gap=     0.339 Goal=   None    Shift=    0.000
 RMSDP=1.21D-07 MaxDP=1.03D-06 DE=-2.09D-10 OVMax= 2.45D-06

 Cycle   9  Pass 1  IDiag  1:
 E= -255.098522432280     Delta-E=       -0.000000000010 Rises=F Damp=F
 DIIS: error= 8.73D-08 at cycle   9 NSaved=   9.
 NSaved= 9 IEnMin= 9 EnMin= -255.098522432280     IErMin= 9 ErrMin= 8.73D-08
 ErrMax= 8.73D-08  0.00D+00 EMaxC= 1.00D-01 BMatC= 4.01D-13 BMatP= 3.69D-12
 IDIUse=1 WtCom= 1.00D+00 WtEn= 0.00D+00
 Coeff-Com: -0.237D-05-0.213D-03 0.215D-03 0.347D-02 0.762D-02-0.571D-01
 Coeff-Com: -0.416D-01 0.346D+00 0.742D+00
 Coeff:     -0.237D-05-0.213D-03 0.215D-03 0.347D-02 0.762D-02-0.571D-01
 Coeff:     -0.416D-01 0.346D+00 0.742D+00
 Gap=     0.339 Goal=   None    Shift=    0.000
 RMSDP=2.90D-08 MaxDP=4.02D-07 DE=-1.05D-11 OVMax= 5.26D-07

 Cycle  10  Pass 1  IDiag  1:
 E= -255.098522432282     Delta-E=       -0.000000000002 Rises=F Damp=F
 DIIS: error= 4.72D-08 at cycle  10 NSaved=  10.
 NSaved=10 IEnMin=10 EnMin= -255.098522432282     IErMin=10 ErrMin= 4.72D-08
 ErrMax= 4.72D-08  0.00D+00 EMaxC= 1.00D-01 BMatC= 8.78D-14 BMatP= 4.01D-13
 IDIUse=1 WtCom= 1.00D+00 WtEn= 0.00D+00
 Coeff-Com:  0.551D-05-0.982D-04-0.638D-04 0.108D-02 0.225D-02-0.550D-02
 Coeff-Com: -0.124D-01-0.621D-01 0.323D+00 0.754D+00
 Coeff:      0.551D-05-0.982D-04-0.638D-04 0.108D-02 0.225D-02-0.550D-02
 Coeff:     -0.124D-01-0.621D-01 0.323D+00 0.754D+00
 Gap=     0.339 Goal=   None    Shift=    0.000
 RMSDP=1.51D-08 MaxDP=2.32D-07 DE=-1.76D-12 OVMax= 2.39D-07

 Cycle  11  Pass 1  IDiag  1:
 E= -255.098522432281     Delta-E=        0.000000000001 Rises=F Damp=F
 DIIS: error= 5.50D-09 at cycle  11 NSaved=  11.
 NSaved=11 IEnMin=10 EnMin= -255.098522432282     IErMin=11 ErrMin= 5.50D-09
 ErrMax= 5.50D-09  0.00D+00 EMaxC= 1.00D-01 BMatC= 2.11D-15 BMatP= 8.78D-14
 IDIUse=1 WtCom= 1.00D+00 WtEn= 0.00D+00
 Coeff-Com:  0.114D-05-0.685D-05-0.258D-04 0.256D-04 0.140D-04 0.174D-02
 Coeff-Com:  0.803D-03-0.294D-01 0.121D-01 0.128D+00 0.887D+00
 Coeff:      0.114D-05-0.685D-05-0.258D-04 0.256D-04 0.140D-04 0.174D-02
 Coeff:      0.803D-03-0.294D-01 0.121D-01 0.128D+00 0.887D+00
 Gap=     0.339 Goal=   None    Shift=    0.000
 RMSDP=4.41D-09 MaxDP=6.23D-08 DE= 1.08D-12 OVMax= 3.38D-08

 SCF Done:  E(RwB97XD) =  -255.098522432     A.U. after   11 cycles
            NFock= 11  Conv=0.44D-08     -V/T= 2.0056
 KE= 2.536783883335D+02 PE=-9.108382004329D+02 EE= 2.454573771464D+02
 Leave Link  502 at Wed May 12 11:56:06 2021, MaxMem=  2147483648 cpu:        11.1
 (Enter /opt/cluster/programs/g09_d.01/g09/l701.exe)
 Compute integral first derivatives.
 ... and contract with generalized density number  0.
 R6Disp: Adding Grimme-D2 dispersion energy 1st derivatives to the gradient.
 Leave Link  701 at Wed May 12 11:56:06 2021, MaxMem=  2147483648 cpu:         0.6
 (Enter /opt/cluster/programs/g09_d.01/g09/l702.exe)
 L702 exits ... SP integral derivatives will be done elsewhere.
 Leave Link  702 at Wed May 12 11:56:06 2021, MaxMem=  2147483648 cpu:         0.2
 (Enter /opt/cluster/programs/g09_d.01/g09/l703.exe)
 Compute integral first derivatives, UseDBF=F ICtDFT=           0.
 Integral derivatives from FoFJK, PRISM(SPDF).
 Calling FoFJK, ICntrl=      2127 FMM=F ISym2X=0 I1Cent= 0 IOpClX= 0 NMat=1 NMatS=1 NMatT=0.
 FoFJK:  IHMeth= 1 ICntrl=    2127 DoSepK=T KAlg= 0 I1Cent=   0 FoldK=F
 IRaf=         1 NMat=   1 IRICut=       1 DoRegI=T DoRafI=F ISym2E= 0.
 FoFCou: FMM=F IPFlag=           0 FMFlag=      100000 FMFlg1=         800
         NFxFlg=           0 DoJE=F BraDBF=F KetDBF=F FulRan=T
         wScrn=  0.000000 ICntrl=    2527 IOpCl=  0 I1Cent=           0 NGrid=           0
         NMat0=    1 NMatS0=      1 NMatT0=    0 NMatD0=    1 NMtDS0=    0 NMtDT0=    0
 Symmetry not used in FoFCou.
 Leave Link  703 at Wed May 12 11:56:07 2021, MaxMem=  2147483648 cpu:         3.3
 (Enter /opt/cluster/programs/g09_d.01/g09/l716.exe)
 Dipole        =-7.72792902D-01 5.55093134D-01-7.56604578D-06
 ***** Axes restored to original set *****
 -------------------------------------------------------------------
 Center     Atomic                   Forces (Hartrees/Bohr)
 Number     Number              X              Y              Z
 -------------------------------------------------------------------
      1        6           0.000433425   -0.001370639    0.000002818
      2        6          -0.003082359    0.002275197    0.000008027
      3        6           0.000551668    0.000692286    0.000001745
      4        6           0.000802959   -0.000394286   -0.000007573
      5        1           0.000012522   -0.000044927   -0.000000915
      6        1          -0.000142766   -0.000016330   -0.000003571
      7        9           0.001260262   -0.001027756   -0.000004724
      8        1          -0.000129420   -0.000071526   -0.000000121
      9        1           0.000136570    0.000083948    0.000002006
     10        1           0.000157139   -0.000125968    0.000002310
 -------------------------------------------------------------------
 Cartesian Forces:  Max     0.003082359 RMS     0.000838321
 Leave Link  716 at Wed May 12 11:56:07 2021, MaxMem=  2147483648 cpu:         0.2
 (Enter /opt/cluster/programs/g09_d.01/g09/l103.exe)

 GradGradGradGradGradGradGradGradGradGradGradGradGradGradGradGradGradGrad
 Berny optimization.
 Using GEDIIS/GDIIS optimizer.
 FormGI is forming the generalized inverse of G from B-inverse, IUseBI=4.
 Internal  Forces:  Max     0.001617442 RMS     0.000526127
 Search for a local minimum.
 Step number   2 out of a maximum of   43
 All quantities printed in internal units (Hartrees-Bohrs-Radians)
 RMS Force = .53428D-03 SwitMx=.10000D-02 MixMth= 2
 Mixed Optimization -- En-DIIS/RFO-DIIS
 Update second derivatives using D2CorX and points    1    2
 DE= -1.57D-04 DEPred=-1.57D-04 R= 1.00D+00
 TightC=F SS=  1.41D+00  RLast= 2.79D-02 DXNew= 5.0454D-01 8.3639D-02
 Trust test= 1.00D+00 RLast= 2.79D-02 DXMaxT set to 3.00D-01
 ITU=  1  0
 Use linear search instead of GDIIS.
     Eigenvalues ---    0.01703   0.02117   0.02820   0.02820   0.02940
     Eigenvalues ---    0.02940   0.15953   0.16000   0.16000   0.16000
     Eigenvalues ---    0.16208   0.21567   0.24014   0.25011   0.34118
     Eigenvalues ---    0.35208   0.35273   0.35488   0.35637   0.35790
     Eigenvalues ---    0.38794   0.57074   0.697541000.000001000.00000
     Eigenvalues --- 1000.000001000.000001000.000001000.000001000.00000
     Eigenvalues --- 1000.000001000.000001000.00000
 RFO step:  Lambda=-2.27534143D-05 EMin= 1.70258624D-02
 Quartic linear search produced a step of -0.00980.
 Iteration  1 RMS(Cart)=  0.00190975 RMS(Int)=  0.00000220
 Iteration  2 RMS(Cart)=  0.00000384 RMS(Int)=  0.00000002
 Iteration  3 RMS(Cart)=  0.00000000 RMS(Int)=  0.00000002
 Iteration  1 RMS(Cart)=  0.00000000 RMS(Int)=  0.00000000
 ITry= 1 IFail=0 DXMaxC= 4.98D-03 DCOld= 1.00D+10 DXMaxT= 3.00D-01 DXLimC= 3.00D+00 Rises=F
 Variable       Old X    -DE/DX   Delta X   Delta X   Delta X     New X
                                 (Linear)    (Quad)   (Total)
    R1        2.51259   0.00126   0.00011   0.00121   0.00132   2.51391
    R2        2.04430   0.00000   0.00001  -0.00010  -0.00009   2.04421
    R3        2.04608  -0.00010   0.00001  -0.00035  -0.00034   2.04574
    R4        2.76187   0.00145   0.00001   0.00385   0.00385   2.76572
    R5        2.67867  -0.00162   0.00015  -0.00513  -0.00498   2.67369
    R6        2.52917   0.00119   0.00012   0.00111   0.00122   2.53039
    R7        2.05240  -0.00007   0.00001  -0.00031  -0.00030   2.05210
    R8        2.05264  -0.00006   0.00001  -0.00023  -0.00023   2.05242
    R9        2.04799   0.00007   0.00002   0.00006   0.00008   2.04807
    A1        2.11173  -0.00005   0.00002  -0.00043  -0.00041   2.11131
    A2        2.10485   0.00015   0.00003   0.00068   0.00071   2.10556
    A3        2.06661  -0.00010  -0.00005  -0.00025  -0.00029   2.06632
    A4        2.30422  -0.00085   0.00005  -0.00380  -0.00375   2.30047
    A5        2.04579   0.00063  -0.00003   0.00273   0.00270   2.04849
    A6        1.93317   0.00022  -0.00002   0.00107   0.00105   1.93423
    A7        2.18829   0.00019   0.00010  -0.00001   0.00009   2.18838
    A8        1.99738  -0.00021  -0.00006  -0.00065  -0.00071   1.99667
    A9        2.09752   0.00003  -0.00004   0.00066   0.00062   2.09814
   A10        2.14081   0.00004   0.00002   0.00010   0.00012   2.14093
   A11        2.10707   0.00019   0.00002   0.00101   0.00103   2.10810
   A12        2.03530  -0.00023  -0.00004  -0.00112  -0.00116   2.03415
    D1        3.14152   0.00000   0.00000   0.00011   0.00011  -3.14155
    D2        0.00005   0.00000   0.00000  -0.00004  -0.00004   0.00001
    D3        0.00002   0.00000   0.00000   0.00001   0.00000   0.00002
    D4       -3.14145  -0.00001   0.00000  -0.00015  -0.00015   3.14158
    D5        0.00019   0.00000   0.00000   0.00000   0.00000   0.00019
    D6       -3.14137   0.00000   0.00000  -0.00006  -0.00006  -3.14142
    D7       -3.14151   0.00000   0.00000   0.00014   0.00015  -3.14137
    D8        0.00011   0.00000   0.00000   0.00009   0.00009   0.00020
    D9        0.00009   0.00000   0.00000  -0.00007  -0.00007   0.00002
   D10        3.14158   0.00000   0.00000   0.00005   0.00005  -3.14156
   D11       -3.14153   0.00000   0.00000  -0.00001  -0.00001  -3.14154
   D12       -0.00004   0.00000   0.00000   0.00011   0.00010   0.00006
         Item               Value     Threshold  Converged?
 Maximum Force            0.001617     0.000450     NO 
 RMS     Force            0.000534     0.000300     NO 
 Maximum Displacement     0.004982     0.001800     NO 
 RMS     Displacement     0.001911     0.001200     NO 
 Predicted change in Energy=-1.138071D-05
 Lowest energy point so far.  Saving SCF results.
 GradGradGradGradGradGradGradGradGradGradGradGradGradGradGradGradGradGrad

 Leave Link  103 at Wed May 12 11:56:07 2021, MaxMem=  2147483648 cpu:         0.0
 (Enter /opt/cluster/programs/g09_d.01/g09/l202.exe)
                          Input orientation:                          
 ---------------------------------------------------------------------
 Center     Atomic      Atomic             Coordinates (Angstroms)
 Number     Number       Type             X           Y           Z
 ---------------------------------------------------------------------
      1          6           0       -0.845366   -1.333278    0.000028
      2          6           0       -0.465177   -0.058461    0.000084
      3          6           0        0.859078    0.564719    0.000140
      4          6           0        2.025495   -0.092897   -0.000067
      5          1           0       -1.893300   -1.601626   -0.000050
      6          1           0       -0.110464   -2.128168    0.000040
      7          9           0       -1.483353    0.923952    0.000052
      8          1           0        0.843905    1.650538    0.000348
      9          1           0        2.087115   -1.177240   -0.000322
     10          1           0        2.965966    0.445729    0.000027
 ---------------------------------------------------------------------
                    Distance matrix (angstroms):
                    1          2          3          4          5
     1  C    0.000000
     2  C    1.330302   0.000000
     3  C    2.550985   1.463559   0.000000
     4  C    3.127361   2.490909   1.339024   0.000000
     5  H    1.081747   2.102592   3.502661   4.199192   0.000000
     6  H    1.082557   2.099883   2.862106   2.950364   1.858965
     7  F    2.345659   1.414856   2.369817   3.653217   2.558633
     8  H    3.428818   2.152759   1.085925   2.106115   4.250748
     9  H    2.936629   2.786729   2.131313   1.086092   4.002975
    10  H    4.206081   3.467989   2.110246   1.083792   5.272962
                    6          7          8          9         10
     6  H    0.000000
     7  F    3.346679   0.000000
     8  H    3.897363   2.438043   0.000000
     9  H    2.394498   4.142855   3.088997   0.000000
    10  H    4.011156   4.474945   2.440227   1.845646   0.000000
 Stoichiometry    C4H5F
 Framework group  C1[X(C4H5F)]
 Deg. of freedom    24
 Full point group                 C1      NOp   1
 RotChk:  IX=2 Diff= 7.21D-04
 Largest Abelian subgroup         C1      NOp   1
 Largest concise Abelian subgroup C1      NOp   1
                         Standard orientation:                         
 ---------------------------------------------------------------------
 Center     Atomic      Atomic             Coordinates (Angstroms)
 Number     Number       Type             X           Y           Z
 ---------------------------------------------------------------------
      1          6           0        0.841644    1.335032   -0.000015
      2          6           0        0.464692    0.059254    0.000041
      3          6           0       -0.857977   -0.567286    0.000097
      4          6           0       -2.026059    0.087368   -0.000110
      5          1           0        1.888893    1.606039   -0.000092
      6          1           0        0.104727    2.128054   -0.000003
      7          9           0        1.485358   -0.920571    0.000010
      8          1           0       -0.840048   -1.653063    0.000306
      9          1           0       -2.090432    1.171550   -0.000365
     10          1           0       -2.965160   -0.453644   -0.000015
 ---------------------------------------------------------------------
 Rotational constants (GHZ):      9.6221815      3.9309216      2.7908030
 Leave Link  202 at Wed May 12 11:56:07 2021, MaxMem=  2147483648 cpu:         0.0
 (Enter /opt/cluster/programs/g09_d.01/g09/l301.exe)
 Standard basis: 6-31+G (6D, 7F)
 Ernie: Thresh=  0.10000D-02 Tol=  0.10000D-05 Strict=F.
 There are    75 symmetry adapted cartesian basis functions of A   symmetry.
 There are    75 symmetry adapted basis functions of A   symmetry.
    75 basis functions,   150 primitive gaussians,    75 cartesian basis functions
    19 alpha electrons       19 beta electrons
       nuclear repulsion energy       156.5963068061 Hartrees.
 IExCor= 4639 DFT=T Ex+Corr=wB97XD ExCW=0 ScaHFX=  1.000000
 ScaDFX=  1.000000  1.000000  1.000000  1.000000 ScalE2=  1.000000  1.000000
 IRadAn=      0 IRanWt=     -1 IRanGd=            0 ICorTp=0 IEmpDi=121
  HFx wShort=  0.000000 wLong=  0.200000 cFull=  0.222036 cShort=  0.000000 cLong=  0.777964
  DFx wShort=  0.000000 wLong=  0.200000 cFull=  0.000000 cShort=  0.000000 cLong=  1.000000
 NAtoms=   10 NActive=   10 NUniq=   10 SFac= 1.00D+00 NAtFMM=   60 NAOKFM=F Big=F
 Integral buffers will be    131072 words long.
 Raffenetti 2 integral format.
 Two-electron integral symmetry is turned on.
 R6Disp:  Grimme-D2 Dispersion energy=       -0.0031287143 Hartrees.
 Nuclear repulsion after empirical dispersion term =      156.5931780918 Hartrees.
 Leave Link  301 at Wed May 12 11:56:07 2021, MaxMem=  2147483648 cpu:         0.3
 (Enter /opt/cluster/programs/g09_d.01/g09/l302.exe)
 NPDir=0 NMtPBC=     1 NCelOv=     1 NCel=       1 NClECP=     1 NCelD=      1
         NCelK=      1 NCelE2=     1 NClLst=     1 CellRange=     0.0.
 One-electron integrals computed using PRISM.
 NBasis=    75 RedAO= T EigKep=  2.92D-05  NBF=    75
 NBsUse=    75 1.00D-06 EigRej= -1.00D+00 NBFU=    75
 Precomputing XC quadrature grid using
 IXCGrd= 4 IRadAn=           0 IRanWt=          -1 IRanGd=           0 AccXCQ= 0.00D+00.
 Generated NRdTot=       0 NPtTot=           0 NUsed=           0 NTot=          32
 NSgBfM=    75    75    75    75    75 MxSgAt=    10 MxSgA2=    10.
 Leave Link  302 at Wed May 12 11:56:07 2021, MaxMem=  2147483648 cpu:         0.8
 (Enter /opt/cluster/programs/g09_d.01/g09/l303.exe)
 DipDrv:  MaxL=1.
 Leave Link  303 at Wed May 12 11:56:07 2021, MaxMem=  2147483648 cpu:         0.2
 (Enter /opt/cluster/programs/g09_d.01/g09/l401.exe)
 Initial guess from the checkpoint file:  "/home/unibas/boittier/RDKit_G2/B.pdb/SCAN_1_2_3_4_S_17_20.0/9_SCAN_1_2_3_4_F/B.pdb.chk"
 B after Tr=     0.000000    0.000000    0.000000
         Rot=    1.000000   -0.000010   -0.000001   -0.000267 Ang=  -0.03 deg.
 Guess basis will be translated and rotated to current coordinates.
 JPrj=2 DoOrth=T DoCkMO=T.
 Leave Link  401 at Wed May 12 11:56:07 2021, MaxMem=  2147483648 cpu:         0.6
 (Enter /opt/cluster/programs/g09_d.01/g09/l502.exe)
 Closed shell SCF:
 Using DIIS extrapolation, IDIIS=  1040.
 Integral symmetry usage will be decided dynamically.
 Keep R1 ints in memory in canonical form, NReq=9056162.
 IVT=       36600 IEndB=       36600 NGot=  2147483648 MDV=  2139321699
 LenX=  2139321699 LenY=  2139315633
 Requested convergence on RMS density matrix=1.00D-08 within 128 cycles.
 Requested convergence on MAX density matrix=1.00D-06.
 Requested convergence on             energy=1.00D-06.
 No special actions if energy rises.
 FoFCou: FMM=F IPFlag=           0 FMFlag=           0 FMFlg1=           0
         NFxFlg=           0 DoJE=F BraDBF=F KetDBF=F FulRan=T
         wScrn=  0.000000 ICntrl=     600 IOpCl=  0 I1Cent=           0 NGrid=           0
         NMat0=    1 NMatS0=   2850 NMatT0=    0 NMatD0=    1 NMtDS0=    0 NMtDT0=    0
 Symmetry not used in FoFCou.

 Cycle   1  Pass 1  IDiag  1:
 E= -255.098528691919    
 DIIS: error= 2.12D-04 at cycle   1 NSaved=   1.
 NSaved= 1 IEnMin= 1 EnMin= -255.098528691919     IErMin= 1 ErrMin= 2.12D-04
 ErrMax= 2.12D-04  0.00D+00 EMaxC= 1.00D-01 BMatC= 7.12D-06 BMatP= 7.12D-06
 IDIUse=3 WtCom= 9.98D-01 WtEn= 2.12D-03
 Coeff-Com:  0.100D+01
 Coeff-En:   0.100D+01
 Coeff:      0.100D+01
 Gap=     0.574 Goal=   None    Shift=    0.000
 RMSDP=1.70D-04 MaxDP=3.51D-03              OVMax= 6.41D-04

 Cycle   2  Pass 1  IDiag  1:
 E= -255.098536445946     Delta-E=       -0.000007754027 Rises=F Damp=F
 DIIS: error= 1.47D-04 at cycle   2 NSaved=   2.
 NSaved= 2 IEnMin= 2 EnMin= -255.098536445946     IErMin= 2 ErrMin= 1.47D-04
 ErrMax= 1.47D-04  0.00D+00 EMaxC= 1.00D-01 BMatC= 1.56D-06 BMatP= 7.12D-06
 IDIUse=3 WtCom= 9.99D-01 WtEn= 1.47D-03
 Coeff-Com:  0.207D+00 0.793D+00
 Coeff-En:   0.000D+00 0.100D+01
 Coeff:      0.207D+00 0.793D+00
 Gap=     0.339 Goal=   None    Shift=    0.000
 RMSDP=3.33D-05 MaxDP=5.94D-04 DE=-7.75D-06 OVMax= 3.44D-04

 Cycle   3  Pass 1  IDiag  1:
 E= -255.098537087231     Delta-E=       -0.000000641285 Rises=F Damp=F
 DIIS: error= 1.14D-04 at cycle   3 NSaved=   3.
 NSaved= 3 IEnMin= 3 EnMin= -255.098537087231     IErMin= 3 ErrMin= 1.14D-04
 ErrMax= 1.14D-04  0.00D+00 EMaxC= 1.00D-01 BMatC= 8.59D-07 BMatP= 1.56D-06
 IDIUse=3 WtCom= 9.99D-01 WtEn= 1.14D-03
 Coeff-Com: -0.775D-01 0.428D+00 0.650D+00
 Coeff-En:   0.000D+00 0.296D+00 0.704D+00
 Coeff:     -0.774D-01 0.427D+00 0.650D+00
 Gap=     0.339 Goal=   None    Shift=    0.000
 RMSDP=2.33D-05 MaxDP=5.66D-04 DE=-6.41D-07 OVMax= 1.36D-04

 Cycle   4  Pass 1  IDiag  1:
 E= -255.098537687350     Delta-E=       -0.000000600119 Rises=F Damp=F
 DIIS: error= 6.97D-06 at cycle   4 NSaved=   4.
 NSaved= 4 IEnMin= 4 EnMin= -255.098537687350     IErMin= 4 ErrMin= 6.97D-06
 ErrMax= 6.97D-06  0.00D+00 EMaxC= 1.00D-01 BMatC= 4.41D-09 BMatP= 8.59D-07
 IDIUse=1 WtCom= 1.00D+00 WtEn= 0.00D+00
 Coeff-Com: -0.134D-01 0.288D-01 0.879D-01 0.897D+00
 Coeff:     -0.134D-01 0.288D-01 0.879D-01 0.897D+00
 Gap=     0.339 Goal=   None    Shift=    0.000
 RMSDP=3.10D-06 MaxDP=6.66D-05 DE=-6.00D-07 OVMax= 3.38D-05

 Cycle   5  Pass 1  IDiag  1:
 E= -255.098537692678     Delta-E=       -0.000000005327 Rises=F Damp=F
 DIIS: error= 3.75D-06 at cycle   5 NSaved=   5.
 NSaved= 5 IEnMin= 5 EnMin= -255.098537692678     IErMin= 5 ErrMin= 3.75D-06
 ErrMax= 3.75D-06  0.00D+00 EMaxC= 1.00D-01 BMatC= 7.82D-10 BMatP= 4.41D-09
 IDIUse=1 WtCom= 1.00D+00 WtEn= 0.00D+00
 Coeff-Com:  0.326D-02-0.339D-01-0.326D-01 0.296D+00 0.767D+00
 Coeff:      0.326D-02-0.339D-01-0.326D-01 0.296D+00 0.767D+00
 Gap=     0.339 Goal=   None    Shift=    0.000
 RMSDP=1.45D-06 MaxDP=4.01D-05 DE=-5.33D-09 OVMax= 1.12D-05

 Cycle   6  Pass 1  IDiag  1:
 E= -255.098537693740     Delta-E=       -0.000000001062 Rises=F Damp=F
 DIIS: error= 9.55D-07 at cycle   6 NSaved=   6.
 NSaved= 6 IEnMin= 6 EnMin= -255.098537693740     IErMin= 6 ErrMin= 9.55D-07
 ErrMax= 9.55D-07  0.00D+00 EMaxC= 1.00D-01 BMatC= 3.72D-11 BMatP= 7.82D-10
 IDIUse=1 WtCom= 1.00D+00 WtEn= 0.00D+00
 Coeff-Com:  0.154D-02-0.104D-01-0.129D-01 0.393D-01 0.193D+00 0.789D+00
 Coeff:      0.154D-02-0.104D-01-0.129D-01 0.393D-01 0.193D+00 0.789D+00
 Gap=     0.339 Goal=   None    Shift=    0.000
 RMSDP=3.05D-07 MaxDP=8.02D-06 DE=-1.06D-09 OVMax= 6.46D-06

 Cycle   7  Pass 1  IDiag  1:
 E= -255.098537693803     Delta-E=       -0.000000000063 Rises=F Damp=F
 DIIS: error= 6.57D-07 at cycle   7 NSaved=   7.
 NSaved= 7 IEnMin= 7 EnMin= -255.098537693803     IErMin= 7 ErrMin= 6.57D-07
 ErrMax= 6.57D-07  0.00D+00 EMaxC= 1.00D-01 BMatC= 1.40D-11 BMatP= 3.72D-11
 IDIUse=1 WtCom= 1.00D+00 WtEn= 0.00D+00
 Coeff-Com: -0.759D-04 0.285D-02 0.127D-02-0.463D-01-0.838D-01 0.358D+00
 Coeff-Com:  0.768D+00
 Coeff:     -0.759D-04 0.285D-02 0.127D-02-0.463D-01-0.838D-01 0.358D+00
 Coeff:      0.768D+00
 Gap=     0.339 Goal=   None    Shift=    0.000
 RMSDP=2.02D-07 MaxDP=5.30D-06 DE=-6.34D-11 OVMax= 2.43D-06

 Cycle   8  Pass 1  IDiag  1:
 E= -255.098537693823     Delta-E=       -0.000000000020 Rises=F Damp=F
 DIIS: error= 8.72D-08 at cycle   8 NSaved=   8.
 NSaved= 8 IEnMin= 8 EnMin= -255.098537693823     IErMin= 8 ErrMin= 8.72D-08
 ErrMax= 8.72D-08  0.00D+00 EMaxC= 1.00D-01 BMatC= 3.85D-13 BMatP= 1.40D-11
 IDIUse=1 WtCom= 1.00D+00 WtEn= 0.00D+00
 Coeff-Com: -0.104D-03 0.135D-02 0.110D-02-0.133D-01-0.325D-01 0.388D-01
 Coeff-Com:  0.167D+00 0.838D+00
 Coeff:     -0.104D-03 0.135D-02 0.110D-02-0.133D-01-0.325D-01 0.388D-01
 Coeff:      0.167D+00 0.838D+00
 Gap=     0.339 Goal=   None    Shift=    0.000
 RMSDP=3.07D-08 MaxDP=6.26D-07 DE=-1.99D-11 OVMax= 7.65D-07

 Cycle   9  Pass 1  IDiag  1:
 E= -255.098537693823     Delta-E=        0.000000000000 Rises=F Damp=F
 DIIS: error= 3.83D-08 at cycle   9 NSaved=   9.
 NSaved= 9 IEnMin= 9 EnMin= -255.098537693823     IErMin= 9 ErrMin= 3.83D-08
 ErrMax= 3.83D-08  0.00D+00 EMaxC= 1.00D-01 BMatC= 5.39D-14 BMatP= 3.85D-13
 IDIUse=1 WtCom= 1.00D+00 WtEn= 0.00D+00
 Coeff-Com: -0.155D-04-0.701D-04 0.956D-04 0.294D-02 0.351D-02-0.343D-01
 Coeff-Com: -0.739D-01 0.176D+00 0.926D+00
 Coeff:     -0.155D-04-0.701D-04 0.956D-04 0.294D-02 0.351D-02-0.343D-01
 Coeff:     -0.739D-01 0.176D+00 0.926D+00
 Gap=     0.339 Goal=   None    Shift=    0.000
 RMSDP=1.26D-08 MaxDP=1.18D-07 DE=-2.27D-13 OVMax= 2.77D-07

 Cycle  10  Pass 1  IDiag  1:
 E= -255.098537693825     Delta-E=       -0.000000000002 Rises=F Damp=F
 DIIS: error= 6.58D-09 at cycle  10 NSaved=  10.
 NSaved=10 IEnMin=10 EnMin= -255.098537693825     IErMin=10 ErrMin= 6.58D-09
 ErrMax= 6.58D-09  0.00D+00 EMaxC= 1.00D-01 BMatC= 4.10D-15 BMatP= 5.39D-14
 IDIUse=1 WtCom= 1.00D+00 WtEn= 0.00D+00
 Coeff-Com:  0.302D-05-0.998D-04-0.571D-04 0.155D-02 0.288D-02-0.965D-02
 Coeff-Com: -0.315D-01-0.963D-02 0.207D+00 0.840D+00
 Coeff:      0.302D-05-0.998D-04-0.571D-04 0.155D-02 0.288D-02-0.965D-02
 Coeff:     -0.315D-01-0.963D-02 0.207D+00 0.840D+00
 Gap=     0.339 Goal=   None    Shift=    0.000
 RMSDP=3.46D-09 MaxDP=5.69D-08 DE=-1.71D-12 OVMax= 4.65D-08

 SCF Done:  E(RwB97XD) =  -255.098537694     A.U. after   10 cycles
            NFock= 10  Conv=0.35D-08     -V/T= 2.0056
 KE= 2.536751657973D+02 PE=-9.108091963677D+02 EE= 2.454423147848D+02
 Leave Link  502 at Wed May 12 11:56:09 2021, MaxMem=  2147483648 cpu:        10.2
 (Enter /opt/cluster/programs/g09_d.01/g09/l701.exe)
 Compute integral first derivatives.
 ... and contract with generalized density number  0.
 R6Disp: Adding Grimme-D2 dispersion energy 1st derivatives to the gradient.
 Leave Link  701 at Wed May 12 11:56:09 2021, MaxMem=  2147483648 cpu:         0.6
 (Enter /opt/cluster/programs/g09_d.01/g09/l702.exe)
 L702 exits ... SP integral derivatives will be done elsewhere.
 Leave Link  702 at Wed May 12 11:56:09 2021, MaxMem=  2147483648 cpu:         0.2
 (Enter /opt/cluster/programs/g09_d.01/g09/l703.exe)
 Compute integral first derivatives, UseDBF=F ICtDFT=           0.
 Integral derivatives from FoFJK, PRISM(SPDF).
 Calling FoFJK, ICntrl=      2127 FMM=F ISym2X=0 I1Cent= 0 IOpClX= 0 NMat=1 NMatS=1 NMatT=0.
 FoFJK:  IHMeth= 1 ICntrl=    2127 DoSepK=T KAlg= 0 I1Cent=   0 FoldK=F
 IRaf=         1 NMat=   1 IRICut=       1 DoRegI=T DoRafI=F ISym2E= 0.
 FoFCou: FMM=F IPFlag=           0 FMFlag=      100000 FMFlg1=         800
         NFxFlg=           0 DoJE=F BraDBF=F KetDBF=F FulRan=T
         wScrn=  0.000000 ICntrl=    2527 IOpCl=  0 I1Cent=           0 NGrid=           0
         NMat0=    1 NMatS0=      1 NMatT0=    0 NMatD0=    1 NMtDS0=    0 NMtDT0=    0
 Symmetry not used in FoFCou.
 Leave Link  703 at Wed May 12 11:56:09 2021, MaxMem=  2147483648 cpu:         3.3
 (Enter /opt/cluster/programs/g09_d.01/g09/l716.exe)
 Dipole        =-7.69173168D-01 5.50705210D-01-3.59475363D-06
 ***** Axes restored to original set *****
 -------------------------------------------------------------------
 Center     Atomic                   Forces (Hartrees/Bohr)
 Number     Number              X              Y              Z
 -------------------------------------------------------------------
      1        6           0.000267356   -0.000473072   -0.000000412
      2        6          -0.000925760    0.000979504   -0.000003926
      3        6           0.000170282   -0.000136672   -0.000000884
      4        6           0.000119812   -0.000012829    0.000001889
      5        1          -0.000056418   -0.000077490    0.000000431
      6        1          -0.000033504   -0.000019343    0.000001124
      7        9           0.000397280   -0.000309767    0.000001297
      8        1          -0.000059494    0.000058266    0.000001751
      9        1           0.000062562   -0.000007473   -0.000000053
     10        1           0.000057884   -0.000001125   -0.000001218
 -------------------------------------------------------------------
 Cartesian Forces:  Max     0.000979504 RMS     0.000285930
 Leave Link  716 at Wed May 12 11:56:09 2021, MaxMem=  2147483648 cpu:         0.2
 (Enter /opt/cluster/programs/g09_d.01/g09/l103.exe)

 GradGradGradGradGradGradGradGradGradGradGradGradGradGradGradGradGradGrad
 Berny optimization.
 Using GEDIIS/GDIIS optimizer.
 FormGI is forming the generalized inverse of G from B-inverse, IUseBI=4.
 Internal  Forces:  Max     0.000497764 RMS     0.000170537
 Search for a local minimum.
 Step number   3 out of a maximum of   43
 All quantities printed in internal units (Hartrees-Bohrs-Radians)
 RMS Force = .17318D-03 SwitMx=.10000D-02 MixMth= 2
 Mixed Optimization -- En-DIIS/RFO-DIIS
 Swapping is turned off.
 Update second derivatives using D2CorX and points    1    2    3
 DE= -1.53D-05 DEPred=-1.14D-05 R= 1.34D+00
 TightC=F SS=  1.41D+00  RLast= 8.35D-03 DXNew= 5.0454D-01 2.5058D-02
 Trust test= 1.34D+00 RLast= 8.35D-03 DXMaxT set to 3.00D-01
 ITU=  1  1  0
     Eigenvalues ---    0.01703   0.02118   0.02820   0.02820   0.02940
     Eigenvalues ---    0.02940   0.15508   0.16000   0.16000   0.16037
     Eigenvalues ---    0.16065   0.17551   0.22361   0.25005   0.33939
     Eigenvalues ---    0.35210   0.35312   0.35465   0.35621   0.35947
     Eigenvalues ---    0.38816   0.57380   0.654371000.000001000.00000
     Eigenvalues --- 1000.000001000.000001000.000001000.000001000.00000
     Eigenvalues --- 1000.000001000.000001000.00000
 En-DIIS/RFO-DIIS IScMMF=        0 using points:     3    2
[...]
 ***** Axes restored to original set *****
 -------------------------------------------------------------------
 Center     Atomic                   Forces (Hartrees/Bohr)
 Number     Number              X              Y              Z
 -------------------------------------------------------------------
      1        6          -0.000010623    0.000040260    0.000002419
      2        6           0.000013557    0.000044237    0.000002424
      3        6          -0.000054346   -0.000101539    0.000002765
      4        6           0.000015275    0.000033782   -0.000003442
      5        1           0.000016612   -0.000041860   -0.000000250
      6        1           0.000015418   -0.000003524   -0.000002316
      7        9          -0.000011750   -0.000031375   -0.000002492
      8        1           0.000003606    0.000022282   -0.000000558
      9        1           0.000019678    0.000015166    0.000000391
     10        1          -0.000007427    0.000022570    0.000001060
 -------------------------------------------------------------------
 Cartesian Forces:  Max     0.000101539 RMS     0.000028077
 Leave Link  716 at Wed May 12 11:56:12 2021, MaxMem=  2147483648 cpu:         0.2
 (Enter /opt/cluster/programs/g09_d.01/g09/l103.exe)

 GradGradGradGradGradGradGradGradGradGradGradGradGradGradGradGradGradGrad
 Berny optimization.
 Using GEDIIS/GDIIS optimizer.
 FormGI is forming the generalized inverse of G from B-inverse, IUseBI=4.
 Internal  Forces:  Max     0.000074184 RMS     0.000021135
 Search for a local minimum.
 Step number   4 out of a maximum of   43
 All quantities printed in internal units (Hartrees-Bohrs-Radians)
 RMS Force = .21463D-04 SwitMx=.10000D-02 MixMth= 2
 Mixed Optimization -- En-DIIS/RFO-DIIS
 Swapping is turned off.
 Update second derivatives using D2CorX and points    1    2    3    4
 DE= -2.62D-06 DEPred=-2.12D-06 R= 1.23D+00
 TightC=F SS=  1.41D+00  RLast= 4.78D-03 DXNew= 5.0454D-01 1.4327D-02
 Trust test= 1.23D+00 RLast= 4.78D-03 DXMaxT set to 3.00D-01
 ITU=  1  1  1  0
     Eigenvalues ---    0.01703   0.02118   0.02820   0.02820   0.02940
     Eigenvalues ---    0.02940   0.15023   0.16000   0.16003   0.16023
     Eigenvalues ---    0.16265   0.17281   0.22346   0.25071   0.33989
     Eigenvalues ---    0.35222   0.35314   0.35454   0.35627   0.35839
     Eigenvalues ---    0.38930   0.57466   0.660721000.000001000.00000
     Eigenvalues --- 1000.000001000.000001000.000001000.000001000.00000
     Eigenvalues --- 1000.000001000.000001000.00000
 En-DIIS/RFO-DIIS IScMMF=        0 using points:     4    3    2
 RFO step:  Lambda=-3.18647411D-08.
 NNeg= 0 NP= 3 Switch=  2.50D-03 Rises=F DC=  1.53D-05 SmlDif=  1.00D-05
 RMS Error=  0.4633468781D-04 NUsed= 3 EDIIS=F
 DidBck=F Rises=F RFO-DIIS coefs:    1.09632   -0.13583    0.03951
 Iteration  1 RMS(Cart)=  0.00023173 RMS(Int)=  0.00000003
 Iteration  2 RMS(Cart)=  0.00000004 RMS(Int)=  0.00000000
 Iteration  1 RMS(Cart)=  0.00000000 RMS(Int)=  0.00000000
 ITry= 1 IFail=0 DXMaxC= 8.44D-04 DCOld= 1.00D+10 DXMaxT= 3.00D-01 DXLimC= 3.00D+00 Rises=F
 Variable       Old X    -DE/DX   Delta X   Delta X   Delta X     New X
                                 (Linear)    (Quad)   (Total)
    R1        2.51474  -0.00002   0.00003  -0.00006  -0.00003   2.51471
    R2        2.04448   0.00000   0.00003  -0.00003   0.00000   2.04448
    R3        2.04560   0.00000   0.00000   0.00000   0.00000   2.04560
    R4        2.76692  -0.00003  -0.00004  -0.00001  -0.00005   2.76687
    R5        2.67120  -0.00001  -0.00004  -0.00004  -0.00009   2.67112
    R6        2.53063   0.00001  -0.00003   0.00005   0.00002   2.53065
    R7        2.05227   0.00002   0.00003   0.00003   0.00006   2.05233
    R8        2.05248   0.00000   0.00002  -0.00002  -0.00001   2.05248
    R9        2.04820   0.00000   0.00001  -0.00001   0.00000   2.04820
    A1        2.11148   0.00004   0.00003   0.00021   0.00024   2.11172
    A2        2.10577  -0.00002  -0.00001  -0.00012  -0.00013   2.10565
    A3        2.06593  -0.00002  -0.00003  -0.00009  -0.00012   2.06581
    A4        2.29764  -0.00002  -0.00012  -0.00002  -0.00014   2.29749
    A5        2.05049  -0.00001   0.00009  -0.00009   0.00000   2.05049
    A6        1.93506   0.00003   0.00004   0.00011   0.00015   1.93521
    A7        2.18897   0.00007   0.00005   0.00032   0.00037   2.18934
    A8        1.99597  -0.00002  -0.00004  -0.00002  -0.00006   1.99590
    A9        2.09825  -0.00006  -0.00001  -0.00029  -0.00031   2.09795
   A10        2.14125   0.00002   0.00003   0.00012   0.00014   2.14139
   A11        2.10834  -0.00001  -0.00002  -0.00007  -0.00009   2.10825
   A12        2.03360  -0.00001  -0.00001  -0.00005  -0.00005   2.03355
    D1        3.14158   0.00000  -0.00001   0.00006   0.00005  -3.14155
    D2        0.00004   0.00000   0.00000  -0.00005  -0.00004   0.00000
    D3        0.00005   0.00000   0.00000  -0.00003  -0.00002   0.00002
    D4       -3.14149   0.00000   0.00002  -0.00014  -0.00012   3.14157
    D5        0.00019   0.00000   0.00000   0.00000   0.00000   0.00019
    D6       -3.14136   0.00000   0.00001  -0.00004  -0.00003  -3.14140
    D7       -3.14145   0.00000  -0.00001   0.00011   0.00009  -3.14136
    D8        0.00018   0.00000  -0.00001   0.00006   0.00006   0.00024
    D9        0.00006   0.00000   0.00001  -0.00004  -0.00003   0.00003
   D10       -3.14158   0.00000   0.00000   0.00002   0.00002  -3.14156
   D11       -3.14157   0.00000   0.00000   0.00000   0.00000  -3.14156
   D12       -0.00002   0.00000  -0.00001   0.00006   0.00005   0.00003
         Item               Value     Threshold  Converged?
 Maximum Force            0.000074     0.000450     YES
 RMS     Force            0.000021     0.000300     YES
 Maximum Displacement     0.000844     0.001800     YES
 RMS     Displacement     0.000232     0.001200     YES
 Predicted change in Energy=-3.525268D-08
 Optimization completed.
    -- Stationary point found.
                           ----------------------------
                           !   Optimized Parameters   !
                           ! (Angstroms and Degrees)  !
 --------------------------                            --------------------------
 ! Name  Definition              Value          Derivative Info.                !
 --------------------------------------------------------------------------------
 ! R1    R(1,2)                  1.3307         -DE/DX =    0.0                 !
 ! R2    R(1,5)                  1.0819         -DE/DX =    0.0                 !
 ! R3    R(1,6)                  1.0825         -DE/DX =    0.0                 !
 ! R4    R(2,3)                  1.4642         -DE/DX =    0.0                 !
 ! R5    R(2,7)                  1.4135         -DE/DX =    0.0                 !
 ! R6    R(3,4)                  1.3392         -DE/DX =    0.0                 !
 ! R7    R(3,8)                  1.086          -DE/DX =    0.0                 !
 ! R8    R(4,9)                  1.0861         -DE/DX =    0.0                 !
 ! R9    R(4,10)                 1.0839         -DE/DX =    0.0                 !
 ! A1    A(2,1,5)              120.979          -DE/DX =    0.0                 !
 ! A2    A(2,1,6)              120.652          -DE/DX =    0.0                 !
 ! A3    A(5,1,6)              118.369          -DE/DX =    0.0                 !
 ! A4    A(1,2,3)              131.6449         -DE/DX =    0.0                 !
 ! A5    A(1,2,7)              117.4842         -DE/DX =    0.0                 !
 ! A6    A(3,2,7)              110.8709         -DE/DX =    0.0                 !
 ! A7    A(2,3,4)              125.4185         -DE/DX =    0.0001              !
 ! A8    A(2,3,8)              114.3605         -DE/DX =    0.0                 !
 ! A9    A(4,3,8)              120.221          -DE/DX =   -0.0001              !
 ! A10   A(3,4,9)              122.6845         -DE/DX =    0.0                 !
 ! A11   A(3,4,10)             120.7988         -DE/DX =    0.0                 !
 ! A12   A(9,4,10)             116.5166         -DE/DX =    0.0                 !
 ! D1    D(5,1,2,3)           -180.0007         -DE/DX =    0.0                 !
 ! D2    D(5,1,2,7)              0.0022         -DE/DX =    0.0                 !
 ! D3    D(6,1,2,3)              0.0027         -DE/DX =    0.0                 !
 ! D4    D(6,1,2,7)            180.0056         -DE/DX =    0.0                 !
 ! D5    D(1,2,3,4)              0.0112         -DE/DX =    0.0                 !
 ! D6    D(1,2,3,8)           -179.9869         -DE/DX =    0.0                 !
 ! D7    D(7,2,3,4)           -179.9916         -DE/DX =    0.0                 !
 ! D8    D(7,2,3,8)              0.0103         -DE/DX =    0.0                 !
 ! D9    D(2,3,4,9)              0.0035         -DE/DX =    0.0                 !
 ! D10   D(2,3,4,10)          -179.9992         -DE/DX =    0.0                 !
 ! D11   D(8,3,4,9)           -179.9985         -DE/DX =    0.0                 !
 ! D12   D(8,3,4,10)            -0.0012         -DE/DX =    0.0                 !
 --------------------------------------------------------------------------------
 Lowest energy point so far.  Saving SCF results.
 GradGradGradGradGradGradGradGradGradGradGradGradGradGradGradGradGradGrad

 Largest change from initial coordinates is atom    6       0.010 Angstoms.
 Leave Link  103 at Wed May 12 11:56:12 2021, MaxMem=  2147483648 cpu:         0.0
 (Enter /opt/cluster/programs/g09_d.01/g09/l202.exe)
                          Input orientation:                          
 ---------------------------------------------------------------------
 Center     Atomic      Atomic             Coordinates (Angstroms)
 Number     Number       Type             X           Y           Z
 ---------------------------------------------------------------------
      1          6           0       -0.844837   -1.332996    0.000002
      2          6           0       -0.466699   -0.057108    0.000043
      3          6           0        0.858831    0.564847    0.000116
      4          6           0        2.025002   -0.093462   -0.000054
      5          1           0       -1.892406   -1.603342   -0.000039
      6          1           0       -0.108802   -2.126739    0.000065
      7          9           0       -1.483641    0.924688    0.000079
      8          1           0        0.844122    1.650765    0.000361
      9          1           0        2.086380   -1.177854   -0.000324
     10          1           0        2.965951    0.444470    0.000030
 ---------------------------------------------------------------------
                    Distance matrix (angstroms):
                    1          2          3          4          5
     1  C    0.000000
     2  C    1.330743   0.000000
     3  C    2.550351   1.464192   0.000000
     4  C    3.126087   2.491966   1.339151   0.000000
     5  H    1.081891   2.103207   3.502906   4.198312   0.000000
     6  H    1.082486   2.100349   2.860236   2.947429   1.858814
     7  F    2.346318   1.413540   2.369950   3.653383   2.560864
     8  H    3.428616   2.152923   1.086017   2.106373   4.251799
     9  H    2.935320   2.788240   2.131638   1.086127   4.001472
    10  H    4.204936   3.469102   2.110556   1.083861   5.272302
                    6          7          8          9         10
     6  H    0.000000
     7  F    3.346848   0.000000
     8  H    3.895844   2.438374   0.000000
     9  H    2.391487   4.143155   3.089383   0.000000
    10  H    4.008144   4.475431   2.440760   1.845421   0.000000
 Stoichiometry    C4H5F
 Framework group  C1[X(C4H5F)]
 Deg. of freedom    24
 Full point group                 C1      NOp   1
 RotChk:  IX=2 Diff= 5.15D-16
 Largest Abelian subgroup         C1      NOp   1
 Largest concise Abelian subgroup C1      NOp   1
                         Standard orientation:                         
 ---------------------------------------------------------------------
 Center     Atomic      Atomic             Coordinates (Angstroms)
 Number     Number       Type             X           Y           Z
 ---------------------------------------------------------------------
      1          6           0        0.839713    1.335760   -0.000036
      2          6           0        0.465879    0.058605    0.000005
      3          6           0       -0.857546   -0.567816    0.000078
      4          6           0       -2.025930    0.086558   -0.000092
      5          1           0        1.886365    1.609637   -0.000077
      6          1           0        0.101006    2.127018    0.000027
      7          9           0        1.486126   -0.919757    0.000041
      8          1           0       -0.839176   -1.653677    0.000323
      9          1           0       -2.090964    1.170736   -0.000362
     10          1           0       -2.965060   -0.454544   -0.000008
 ---------------------------------------------------------------------
 Rotational constants (GHZ):      9.6207084      3.9311967      2.7908178
 Leave Link  202 at Wed May 12 11:56:12 2021, MaxMem=  2147483648 cpu:         0.0
 (Enter /opt/cluster/programs/g09_d.01/g09/l601.exe)
 Copying SCF densities to generalized density rwf, IOpCl= 0 IROHF=0.

 **********************************************************************

            Population analysis using the SCF density.

 **********************************************************************

 Orbital symmetries:
       Occupied  (A) (A) (A) (A) (A) (A) (A) (A) (A) (A) (A) (A)
                 (A) (A) (A) (A) (A) (A) (A)
       Virtual   (A) (A) (A) (A) (A) (A) (A) (A) (A) (A) (A) (A)
                 (A) (A) (A) (A) (A) (A) (A) (A) (A) (A) (A) (A)
                 (A) (A) (A) (A) (A) (A) (A) (A) (A) (A) (A) (A)
                 (A) (A) (A) (A) (A) (A) (A) (A) (A) (A) (A) (A)
                 (A) (A) (A) (A) (A) (A) (A) (A)
 The electronic state is 1-A.
 Alpha  occ. eigenvalues --  -24.83084 -10.40353 -10.33138 -10.31965 -10.31095
 Alpha  occ. eigenvalues --   -1.31137  -0.93122  -0.85938  -0.74792  -0.65123
 Alpha  occ. eigenvalues --   -0.61569  -0.58235  -0.54114  -0.54036  -0.50496
 Alpha  occ. eigenvalues --   -0.48350  -0.45785  -0.41427  -0.32879
 Alpha virt. eigenvalues --    0.01000   0.07249   0.08390   0.09096   0.10937
 Alpha virt. eigenvalues --    0.11793   0.12409   0.12843   0.14650   0.15878
 Alpha virt. eigenvalues --    0.16350   0.17569   0.18006   0.19305   0.21264
 Alpha virt. eigenvalues --    0.21597   0.21709   0.23098   0.26334   0.27418
 Alpha virt. eigenvalues --    0.29402   0.32344   0.33138   0.38068   0.40554
 Alpha virt. eigenvalues --    0.40595   0.43042   0.47435   0.48929   0.50475
 Alpha virt. eigenvalues --    0.54663   0.68565   0.72872   0.74514   0.78108
 Alpha virt. eigenvalues --    0.80283   0.84562   0.85070   0.88644   0.92587
 Alpha virt. eigenvalues --    1.01609   1.03429   1.08766   1.09202   1.11997
 Alpha virt. eigenvalues --    1.15584   1.18965   1.24135   1.32241   1.34716
 Alpha virt. eigenvalues --    1.41018   1.53565   1.65410   1.82938   1.86457
 Alpha virt. eigenvalues --    2.38684
          Condensed to atoms (all electrons):
               1          2          3          4          5          6
     1  C    6.648608  -0.294241  -0.571700  -0.005126   0.404255   0.311003
     2  C   -0.294241   5.675817   0.068915   0.231441  -0.061554   0.022584
     3  C   -0.571700   0.068915   6.167410   0.232964   0.017611   0.006190
     4  C   -0.005126   0.231441   0.232964   5.219847  -0.004956  -0.002039
     5  H    0.404255  -0.061554   0.017611  -0.004956   0.447209  -0.020442
     6  H    0.311003   0.022584   0.006190  -0.002039  -0.020442   0.480163
     7  F   -0.199787   0.342112  -0.178056   0.015728  -0.003146   0.004265
     8  H    0.008023  -0.005314   0.315828  -0.002803  -0.000087   0.000023
     9  H   -0.005911   0.011732  -0.047983   0.383531  -0.000008   0.001730
    10  H    0.000782   0.003009  -0.017428   0.370630   0.000000  -0.000003
               7          8          9         10
     1  C   -0.199787   0.008023  -0.005911   0.000782
     2  C    0.342112  -0.005314   0.011732   0.003009
     3  C   -0.178056   0.315828  -0.047983  -0.017428
     4  C    0.015728  -0.002803   0.383531   0.370630
     5  H   -0.003146  -0.000087  -0.000008   0.000000
     6  H    0.004265   0.000023   0.001730  -0.000003
     7  F    9.339072  -0.006292   0.000156  -0.000283
     8  H   -0.006292   0.463122   0.002647  -0.003414
     9  H    0.000156   0.002647   0.488856  -0.024064
    10  H   -0.000283  -0.003414  -0.024064   0.468857
 Mulliken charges:
               1
     1  C   -0.295907
     2  C    0.005501
     3  C    0.006250
     4  C   -0.439217
     5  H    0.221119
     6  H    0.196526
     7  F   -0.313769
     8  H    0.228269
     9  H    0.189314
    10  H    0.201913
 Sum of Mulliken charges =   0.00000
 Mulliken charges with hydrogens summed into heavy atoms:
               1
     1  C    0.121738
     2  C    0.005501
     3  C    0.234519
     4  C   -0.047989
     7  F   -0.313769
 Electronic spatial extent (au):  <R**2>=            436.0621
 Charge=              0.0000 electrons
 Dipole moment (field-independent basis, Debye):
    X=             -1.9503    Y=              1.3937    Z=              0.0000  Tot=              2.3971
 Quadrupole moment (field-independent basis, Debye-Ang):
   XX=            -28.7676   YY=            -27.2064   ZZ=            -32.7814
   XY=              2.8290   XZ=              0.0000   YZ=             -0.0007
 Traceless Quadrupole moment (field-independent basis, Debye-Ang):
   XX=              0.8175   YY=              2.3787   ZZ=             -3.1962
   XY=              2.8290   XZ=              0.0000   YZ=             -0.0007
 Octapole moment (field-independent basis, Debye-Ang**2):
  XXX=              0.8907  YYY=             -3.0614  ZZZ=              0.0006  XYY=             -0.0834
  XXY=              3.0118  XXZ=             -0.0008  XZZ=              5.4752  YZZ=             -3.5472
  YYZ=              0.0007  XYZ=              0.0012
 Hexadecapole moment (field-independent basis, Debye-Ang**3):
 XXXX=           -324.9993 YYYY=           -156.5378 ZZZZ=            -36.8825 XXXY=              5.3559
 XXXZ=             -0.0028 YYYX=             -6.3527 YYYZ=              0.0025 ZZZX=             -0.0033
 ZZZY=              0.0043 XXYY=            -81.9755 XXZZ=            -71.8090 YYZZ=            -37.4968
 XXYZ=             -0.0011 YYXZ=             -0.0014 ZZXY=             -5.1840
 N-N= 1.565946585945D+02 E-N=-9.108082088394D+02  KE= 2.536737872522D+02
 No NMR shielding tensors so no spin-rotation constants.
 Leave Link  601 at Wed May 12 11:56:12 2021, MaxMem=  2147483648 cpu:         0.6
 (Enter /opt/cluster/programs/g09_d.01/g09/l9999.exe)
 1\1\GINC-NODE09\FOpt\RwB97XD\6-31+G\C4H5F1\BOITTIER\12-May-2021\0\\#p 
 wB97XD/6-31+G Opt=ModRedun\\B.pdb\\0,1\C,-0.8448370532,-1.3329955779,0
 .0000023422\C,-0.4666989838,-0.0571077532,0.0000433547\C,0.8588310084,
 0.5648471167,0.0001163434\C,2.0250020572,-0.0934621783,-0.0000542706\H
 ,-1.8924061567,-1.6033416024,-0.0000392952\H,-0.1088022996,-2.12673908
 5,0.0000650956\F,-1.4836412773,0.9246883439,0.00007905\H,0.8441216829,
 1.6507645775,0.0003614635\H,2.0863800491,-1.1778535408,-0.000324105\H,
 2.9659509729,0.4444696995,0.0000300213\\Version=ES64L-G09RevD.01\State
 =1-A\HF=-255.0985403\RMSD=5.901e-09\RMSF=2.808e-05\Dipole=0.7654639,-0
 .5509018,0.0000099\Quadrupole=0.6220191,1.7543025,-2.3763215,2.1071323
 ,0.0000191,0.0005473\PG=C01 [X(C4H5F1)]\\@


 REVOLUTIONS HAVE NEVER LIGHTENED THE BURDEN OF TYRANNY:
 THEY HAVE MERELY SHIFTED IT TO OTHER SHOULDERS.
                                   -- G. B. SHAW (1903)
 Job cpu time:       0 days  0 hours  1 minutes 17.2 seconds.
 File lengths (MBytes):  RWF=      5 Int=      0 D2E=      0 Chk=      2 Scr=      1
 Normal termination of Gaussian 09 at Wed May 12 11:56:12 2021.
