B.pdb                                                                   
FOpt      RwB97XD                                                     6-31+G              
Number of atoms                            I               10
Info1-9                                    I   N=           9
          21          21           0           0           0         110
           2          18        -802
Charge                                     I                0
Multiplicity                               I                1
Number of electrons                        I               38
Number of alpha electrons                  I               19
Number of beta electrons                   I               19
Number of basis functions                  I               75
Number of independent functions            I               75
Number of point charges in /Mol/           I                0
Number of translation vectors              I                0
Atomic numbers                             I   N=          10
           6           6           6           6           1           1
           9           1           1           1
Nuclear charges                            R   N=          10
  6.00000000E+00  6.00000000E+00  6.00000000E+00  6.00000000E+00  1.00000000E+00
  1.00000000E+00  9.00000000E+00  1.00000000E+00  1.00000000E+00  1.00000000E+00
Current cartesian coordinates              R   N=          30
  1.58682799E+00  2.52422119E+00 -6.77438792E-05  8.80384033E-01  1.10747011E-01
  9.75841972E-06 -1.62052758E+00 -1.07301635E+00  1.47687044E-04 -3.82845341E+00
  1.63570556E-01 -1.74726636E-04  3.56471293E+00  3.04177286E+00 -1.46427196E-04
  1.90874423E-01  4.01948084E+00  5.08427931E-05  2.80837109E+00 -1.73808870E+00
  7.72128441E-05 -1.58581218E+00 -3.12499756E+00  6.10896949E-04 -3.95134959E+00
  2.21237053E+00 -6.84639757E-04 -5.60315160E+00 -8.58962887E-01 -1.54380802E-05
Force Field                                I                0
Int Atom Types                             I   N=          10
           0           0           0           0           0           0
           0           0           0           0
MM charges                                 R   N=          10
  0.00000000E+00  0.00000000E+00  0.00000000E+00  0.00000000E+00  0.00000000E+00
  0.00000000E+00  0.00000000E+00  0.00000000E+00  0.00000000E+00  0.00000000E+00
Integer atomic weights                     I   N=          10
          12          12          12          12           1           1
          19           1           1           1
Real atomic weights                        R   N=          10
  1.20000000E+01  1.20000000E+01  1.20000000E+01  1.20000000E+01  1.00782504E+00
  1.00782504E+00  1.89984032E+01  1.00782504E+00  1.00782504E+00  1.00782504E+00
Atom fragment info                         I   N=          10
           0           0           0           0           0           0
           0           0           0           0
Atom residue num                           I   N=          10
           0           0           0           0           0           0
           0           0           0           0
Nuclear spins                              I   N=          10
           0           0           0           0           1           1
           1           1           1           1
Nuclear ZEff                               R   N=          10
 -3.60000000E+00 -3.60000000E+00 -3.60000000E+00 -3.60000000E+00 -1.00000000E+00
 -1.00000000E+00 -6.75000000E+00 -1.00000000E+00 -1.00000000E+00 -1.00000000E+00
Nuclear ZNuc                               R   N=          10
  6.00000000E+00  6.00000000E+00  6.00000000E+00  6.00000000E+00  1.00000000E+00
  1.00000000E+00  9.00000000E+00  1.00000000E+00  1.00000000E+00  1.00000000E+00
Nuclear QMom                               R   N=          10
  0.00000000E+00  0.00000000E+00  0.00000000E+00  0.00000000E+00  0.00000000E+00
  0.00000000E+00  0.00000000E+00  0.00000000E+00  0.00000000E+00  0.00000000E+00
Nuclear GFac                               R   N=          10
  0.00000000E+00  0.00000000E+00  0.00000000E+00  0.00000000E+00  2.79284600E+00
  2.79284600E+00  2.62886700E+00  2.79284600E+00  2.79284600E+00  2.79284600E+00
MicOpt                                     I   N=          10
          -1          -1          -1          -1          -1          -1
          -1          -1          -1          -1
Number of contracted shells                I               30
Number of primitive shells                 I               75
Pure/Cartesian d shells                    I                1
Pure/Cartesian f shells                    I                0
Highest angular momentum                   I                1
Largest degree of contraction              I                6
Shell types                                I   N=          30
           0          -1          -1          -1           0          -1
          -1          -1           0          -1          -1          -1
           0          -1          -1          -1           0           0
           0           0           0          -1          -1          -1
           0           0           0           0           0           0
Number of primitives per shell             I   N=          30
           6           3           1           1           6           3
           1           1           6           3           1           1
           6           3           1           1           3           1
           3           1           6           3           1           1
           3           1           3           1           3           1
Shell to atom map                          I   N=          30
           1           1           1           1           2           2
           2           2           3           3           3           3
           4           4           4           4           5           5
           6           6           7           7           7           7
           8           8           9           9          10          10
Primitive exponents                        R   N=          75
  3.04752488E+03  4.57369518E+02  1.03948685E+02  2.92101553E+01  9.28666296E+00
  3.16392696E+00  7.86827235E+00  1.88128854E+00  5.44249258E-01  1.68714478E-01
  4.38000000E-02  3.04752488E+03  4.57369518E+02  1.03948685E+02  2.92101553E+01
  9.28666296E+00  3.16392696E+00  7.86827235E+00  1.88128854E+00  5.44249258E-01
  1.68714478E-01  4.38000000E-02  3.04752488E+03  4.57369518E+02  1.03948685E+02
  2.92101553E+01  9.28666296E+00  3.16392696E+00  7.86827235E+00  1.88128854E+00
  5.44249258E-01  1.68714478E-01  4.38000000E-02  3.04752488E+03  4.57369518E+02
  1.03948685E+02  2.92101553E+01  9.28666296E+00  3.16392696E+00  7.86827235E+00
  1.88128854E+00  5.44249258E-01  1.68714478E-01  4.38000000E-02  1.87311370E+01
  2.82539436E+00  6.40121692E-01  1.61277759E-01  1.87311370E+01  2.82539436E+00
  6.40121692E-01  1.61277759E-01  7.00171309E+03  1.05136609E+03  2.39285690E+02
  6.73974453E+01  2.15199573E+01  7.40310130E+00  2.08479528E+01  4.80830834E+00
  1.34406986E+00  3.58151393E-01  1.07600000E-01  1.87311370E+01  2.82539436E+00
  6.40121692E-01  1.61277759E-01  1.87311370E+01  2.82539436E+00  6.40121692E-01
  1.61277759E-01  1.87311370E+01  2.82539436E+00  6.40121692E-01  1.61277759E-01
Contraction coefficients                   R   N=          75
  1.83473713E-03  1.40373228E-02  6.88426223E-02  2.32184443E-01  4.67941348E-01
  3.62311985E-01 -1.19332420E-01 -1.60854152E-01  1.14345644E+00  1.00000000E+00
  1.00000000E+00  1.83473713E-03  1.40373228E-02  6.88426223E-02  2.32184443E-01
  4.67941348E-01  3.62311985E-01 -1.19332420E-01 -1.60854152E-01  1.14345644E+00
  1.00000000E+00  1.00000000E+00  1.83473713E-03  1.40373228E-02  6.88426223E-02
  2.32184443E-01  4.67941348E-01  3.62311985E-01 -1.19332420E-01 -1.60854152E-01
  1.14345644E+00  1.00000000E+00  1.00000000E+00  1.83473713E-03  1.40373228E-02
  6.88426223E-02  2.32184443E-01  4.67941348E-01  3.62311985E-01 -1.19332420E-01
 -1.60854152E-01  1.14345644E+00  1.00000000E+00  1.00000000E+00  3.34946043E-02
  2.34726953E-01  8.13757326E-01  1.00000000E+00  3.34946043E-02  2.34726953E-01
  8.13757326E-01  1.00000000E+00  1.81961690E-03  1.39160796E-02  6.84053245E-02
  2.33185760E-01  4.71267439E-01  3.56618546E-01 -1.08506975E-01 -1.46451658E-01
  1.12868858E+00  1.00000000E+00  1.00000000E+00  3.34946043E-02  2.34726953E-01
  8.13757326E-01  1.00000000E+00  3.34946043E-02  2.34726953E-01  8.13757326E-01
  1.00000000E+00  3.34946043E-02  2.34726953E-01  8.13757326E-01  1.00000000E+00
P(S=P) Contraction coefficients            R   N=          75
  0.00000000E+00  0.00000000E+00  0.00000000E+00  0.00000000E+00  0.00000000E+00
  0.00000000E+00  6.89990666E-02  3.16423961E-01  7.44308291E-01  1.00000000E+00
  1.00000000E+00  0.00000000E+00  0.00000000E+00  0.00000000E+00  0.00000000E+00
  0.00000000E+00  0.00000000E+00  6.89990666E-02  3.16423961E-01  7.44308291E-01
  1.00000000E+00  1.00000000E+00  0.00000000E+00  0.00000000E+00  0.00000000E+00
  0.00000000E+00  0.00000000E+00  0.00000000E+00  6.89990666E-02  3.16423961E-01
  7.44308291E-01  1.00000000E+00  1.00000000E+00  0.00000000E+00  0.00000000E+00
  0.00000000E+00  0.00000000E+00  0.00000000E+00  0.00000000E+00  6.89990666E-02
  3.16423961E-01  7.44308291E-01  1.00000000E+00  1.00000000E+00  0.00000000E+00
  0.00000000E+00  0.00000000E+00  0.00000000E+00  0.00000000E+00  0.00000000E+00
  0.00000000E+00  0.00000000E+00  0.00000000E+00  0.00000000E+00  0.00000000E+00
  0.00000000E+00  0.00000000E+00  0.00000000E+00  7.16287242E-02  3.45912103E-01
  7.22469956E-01  1.00000000E+00  1.00000000E+00  0.00000000E+00  0.00000000E+00
  0.00000000E+00  0.00000000E+00  0.00000000E+00  0.00000000E+00  0.00000000E+00
  0.00000000E+00  0.00000000E+00  0.00000000E+00  0.00000000E+00  0.00000000E+00
Coordinates of each shell                  R   N=          90
  1.58682799E+00  2.52422119E+00 -6.77438792E-05  1.58682799E+00  2.52422119E+00
 -6.77438792E-05  1.58682799E+00  2.52422119E+00 -6.77438792E-05  1.58682799E+00
  2.52422119E+00 -6.77438792E-05  8.80384033E-01  1.10747011E-01  9.75841972E-06
  8.80384033E-01  1.10747011E-01  9.75841972E-06  8.80384033E-01  1.10747011E-01
  9.75841972E-06  8.80384033E-01  1.10747011E-01  9.75841972E-06 -1.62052758E+00
 -1.07301635E+00  1.47687044E-04 -1.62052758E+00 -1.07301635E+00  1.47687044E-04
 -1.62052758E+00 -1.07301635E+00  1.47687044E-04 -1.62052758E+00 -1.07301635E+00
  1.47687044E-04 -3.82845341E+00  1.63570556E-01 -1.74726636E-04 -3.82845341E+00
  1.63570556E-01 -1.74726636E-04 -3.82845341E+00  1.63570556E-01 -1.74726636E-04
 -3.82845341E+00  1.63570556E-01 -1.74726636E-04  3.56471293E+00  3.04177286E+00
 -1.46427196E-04  3.56471293E+00  3.04177286E+00 -1.46427196E-04  1.90874423E-01
  4.01948084E+00  5.08427931E-05  1.90874423E-01  4.01948084E+00  5.08427931E-05
  2.80837109E+00 -1.73808870E+00  7.72128441E-05  2.80837109E+00 -1.73808870E+00
  7.72128441E-05  2.80837109E+00 -1.73808870E+00  7.72128441E-05  2.80837109E+00
 -1.73808870E+00  7.72128441E-05 -1.58581218E+00 -3.12499756E+00  6.10896949E-04
 -1.58581218E+00 -3.12499756E+00  6.10896949E-04 -3.95134959E+00  2.21237053E+00
 -6.84639757E-04 -3.95134959E+00  2.21237053E+00 -6.84639757E-04 -5.60315160E+00
 -8.58962887E-01 -1.54380802E-05 -5.60315160E+00 -8.58962887E-01 -1.54380802E-05
Constraint Structure                       R   N=          30
  1.61796656E+00  2.52923060E+00  1.24721925E-04  8.74404914E-01  1.17248343E-01
  1.37950008E-04 -1.62559871E+00 -1.05839777E+00  1.79523983E-04 -3.85140898E+00
  1.67720572E-01 -1.85193161E-04  3.60318050E+00  3.02289529E+00  2.41884945E-04
  2.45445088E-01  4.04807706E+00 -2.32436314E-04  2.80645732E+00 -1.76037012E+00
 -2.26767136E-04 -1.58635645E+00 -3.11173072E+00  9.78878137E-04 -3.99185929E+00
  2.21615912E+00 -4.59203450E-04 -5.62070843E+00 -8.66880094E-01 -3.02356181E-05
Num ILSW                                   I              100
ILSW                                       I   N=         100
           0           1           0           0           2           0
           0           0           0           0        4639          -1
           0           0           0           0           2           0
           0           0           0           0           1           0
           1           0           0           0           0           0
           0           0      100000           0          -1           0
           0           0           0           0           0           0
           0           0           0           1           0           0
           0           0           1           0           0           0
           0           0         121          41           0           0
           0           0          58           0           0           0
           0           0           0          10           0           0
           0           0           0           0           0           0
           0           0           0           0           0           0
           0           0           0           0           0           0
           0           0           0           0           0           0
           0           0           0           0
Num RLSW                                   I               41
RLSW                                       R   N=          41
  1.00000000E+00  1.00000000E+00  1.00000000E+00  1.00000000E+00  1.00000000E+00
  0.00000000E+00  2.00000000E-01  2.22036000E-01  0.00000000E+00  7.77964000E-01
  0.00000000E+00  2.00000000E-01  0.00000000E+00  0.00000000E+00  1.00000000E+00
  0.00000000E+00  0.00000000E+00  1.00000000E+00  0.00000000E+00  0.00000000E+00
  0.00000000E+00  0.00000000E+00  1.00000000E+00  0.00000000E+00  0.00000000E+00
  0.00000000E+00  0.00000000E+00  1.00000000E+00  0.00000000E+00  0.00000000E+00
  0.00000000E+00  0.00000000E+00  1.00000000E+00  0.00000000E+00  0.00000000E+00
  0.00000000E+00  0.00000000E+00  0.00000000E+00  1.00000000E+00  1.00000000E+00
  0.00000000E+00
MxBond                                     I                3
NBond                                      I   N=          10
           3           3           3           3           1           1
           1           1           1           1
IBond                                      I   N=          30
           2           5           6           1           3           7
           2           4           8           3           9          10
           1           0           0           1           0           0
           2           0           0           3           0           0
           4           0           0           4           0           0
RBond                                      R   N=          30
  2.00000000E+00  1.00000000E+00  1.00000000E+00  2.00000000E+00  1.00000000E+00
  1.00000000E+00  1.00000000E+00  2.00000000E+00  1.00000000E+00  2.00000000E+00
  1.00000000E+00  1.00000000E+00  1.00000000E+00  0.00000000E+00  0.00000000E+00
  1.00000000E+00  0.00000000E+00  0.00000000E+00  1.00000000E+00  0.00000000E+00
  0.00000000E+00  1.00000000E+00  0.00000000E+00  0.00000000E+00  1.00000000E+00
  0.00000000E+00  0.00000000E+00  1.00000000E+00  0.00000000E+00  0.00000000E+00
Virial Ratio                               R      2.005616477268545E+00
SCF Energy                                 R     -2.550985403118942E+02
Total Energy                               R     -2.550985403118942E+02
RMS Force                                  R      2.807674474236006E-05
RMS Density                                R      5.901025835299394E-09
External E-field                           R   N=          35
  0.00000000E+00  0.00000000E+00  0.00000000E+00  0.00000000E+00  0.00000000E+00
  0.00000000E+00  0.00000000E+00  0.00000000E+00  0.00000000E+00  0.00000000E+00
  0.00000000E+00  0.00000000E+00  0.00000000E+00  0.00000000E+00  0.00000000E+00
  0.00000000E+00  0.00000000E+00  0.00000000E+00  0.00000000E+00  0.00000000E+00
  0.00000000E+00  0.00000000E+00  0.00000000E+00  0.00000000E+00  0.00000000E+00
  0.00000000E+00  0.00000000E+00  0.00000000E+00  0.00000000E+00  0.00000000E+00
  0.00000000E+00  0.00000000E+00  0.00000000E+00  0.00000000E+00  0.00000000E+00
IOpCl                                      I                0
IROHF                                      I                0
Alpha Orbital Energies                     R   N=          75
 -2.48308435E+01 -1.04035281E+01 -1.03313806E+01 -1.03196482E+01 -1.03109470E+01
 -1.31137166E+00 -9.31215888E-01 -8.59380070E-01 -7.47923945E-01 -6.51231366E-01
 -6.15690639E-01 -5.82350584E-01 -5.41143108E-01 -5.40363196E-01 -5.04964969E-01
 -4.83498489E-01 -4.57851963E-01 -4.14271126E-01 -3.28787923E-01  9.99821424E-03
  7.24898787E-02  8.38965500E-02  9.09633857E-02  1.09368507E-01  1.17934856E-01
  1.24089390E-01  1.28434877E-01  1.46501415E-01  1.58782683E-01  1.63497613E-01
  1.75691275E-01  1.80060298E-01  1.93054874E-01  2.12644233E-01  2.15970724E-01
  2.17094274E-01  2.30977062E-01  2.63339633E-01  2.74181341E-01  2.94019822E-01
  3.23436428E-01  3.31375821E-01  3.80679981E-01  4.05535240E-01  4.05951171E-01
  4.30416318E-01  4.74351415E-01  4.89290790E-01  5.04748439E-01  5.46633877E-01
  6.85652440E-01  7.28718802E-01  7.45137586E-01  7.81083985E-01  8.02830680E-01
  8.45618751E-01  8.50703827E-01  8.86439055E-01  9.25874134E-01  1.01608718E+00
  1.03429000E+00  1.08765937E+00  1.09202318E+00  1.11997443E+00  1.15583649E+00
  1.18965466E+00  1.24135389E+00  1.32240936E+00  1.34715612E+00  1.41017763E+00
  1.53565097E+00  1.65409525E+00  1.82938168E+00  1.86456792E+00  2.38683923E+00
Alpha MO coefficients                      R   N=        5625
 -5.66620943E-06 -1.97838055E-04  6.57570238E-05  3.18706352E-06 -5.33120604E-09
  3.02022684E-03 -3.48337922E-03  9.72532036E-06  7.06941413E-08  1.97093819E-02
 -1.70564827E-03 -4.38150985E-03  2.90197603E-07 -1.13840758E-05  5.39847352E-04
  3.33431507E-04 -2.80191659E-04  5.41037594E-09 -5.69944947E-04  3.34611982E-03
 -4.73787350E-03  2.53467272E-07 -3.46812378E-02  1.03659308E-03 -3.10832820E-03
 -3.13687146E-07 -1.16486131E-05 -2.40421086E-04  3.77618402E-06 -1.29277310E-04
  3.50842453E-08  2.02384818E-03 -2.59272033E-03  3.42296967E-03 -5.38131184E-07
  2.11932181E-02  6.14351528E-04  3.79170360E-03 -3.17079407E-07  7.99491472E-06
 -2.86753384E-05 -2.25373375E-04  8.97174050E-06 -8.57487840E-09 -3.48978834E-03
 -9.57835435E-04  7.79466208E-04 -2.67903394E-07 -9.04871906E-03 -1.85783945E-03
  3.74975827E-04 -3.89217927E-07  2.97104386E-04  1.02082099E-03 -2.99719450E-04
 -1.91042324E-03  9.95031870E-01  2.76788138E-02 -9.65734209E-04  9.01958612E-04
 -2.97373021E-08 -1.58580387E-02  1.83124975E-03 -1.62764959E-03  2.49108393E-08
  7.90016615E-03 -9.01120247E-04  7.52332007E-04  7.52304589E-08  2.97480315E-04
  9.89262243E-04  1.88210166E-05 -6.99388833E-06  7.25139074E-05  2.69196176E-04
  4.64119121E-03 -1.27626411E-03  3.42494397E-04  7.91140792E-04 -2.32953683E-08
  1.00740963E-02 -3.15304902E-03 -3.79582479E-03  2.24146418E-07  6.74123571E-03
  1.19122190E-03 -2.23081516E-04 -3.29591989E-07  9.95508085E-01  3.64044289E-02
  9.57535699E-04 -7.38387303E-04  5.53497195E-08 -3.72211906E-02  8.09220970E-04
 -1.45963389E-03 -1.54590976E-07  3.76287144E-02 -1.29635448E-02 -1.14398550E-02
  1.53802871E-06  1.88745193E-03 -1.04902438E-03 -4.68595945E-04 -4.29803163E-04
  4.35026979E-08  8.34289062E-03  2.07676918E-03  4.31433857E-03 -4.96049828E-07
 -1.85336799E-02 -2.02128166E-02  7.60151943E-04 -7.84710015E-07 -4.88441991E-05
 -1.87865746E-04 -2.08802807E-04  5.72548526E-05  1.07607844E-08 -2.31477953E-03
 -1.10418936E-03 -9.27743224E-05 -1.76454167E-07 -2.52092331E-02 -3.67562293E-03
  3.64206815E-03 -7.76984664E-07 -2.95435500E-05  4.73978455E-04 -3.57015318E-04
 -1.23343905E-03  4.63052658E-05  7.99962671E-04 -5.28846424E-05  7.88609040E-05
 -7.28546759E-09 -1.26540182E-03  6.52387046E-04 -7.20006665E-04  4.76499341E-08
  7.76407064E-03 -3.68043314E-03  3.89117376E-03 -1.16121136E-07  9.89720644E-06
  9.07000319E-04  3.70858351E-05  2.89019534E-04 -2.80376436E-05  3.22107674E-04
 -3.96218334E-04 -2.50665246E-04  5.50384869E-05  2.32389470E-04 -2.30561099E-08
 -1.23085368E-03  2.58517676E-03 -1.01946277E-04  8.61772412E-09  2.96361714E-02
 -1.53394076E-03 -5.25269109E-03 -6.71076477E-07 -1.93382762E-03 -1.18793533E-03
  7.93579242E-04  2.20838697E-04 -2.23480205E-08  9.08156226E-03 -8.04521094E-03
  9.36233114E-04 -2.06058893E-08 -4.57834942E-02  1.73389200E-03 -1.31399619E-02
  1.84107180E-06  9.94793796E-01  3.65549090E-02  3.03875776E-05  5.14654478E-04
 -7.61647512E-08 -3.75252363E-02 -3.79790406E-04 -6.57410514E-03  1.16330672E-06
  7.89844594E-02 -1.24355412E-02  1.82166200E-02 -3.86134258E-06  3.54917106E-02
 -9.81526094E-05 -7.45277617E-04  3.88170818E-04 -1.00993170E-07  1.00621798E-02
  5.67619298E-03 -5.83817971E-04  3.05368762E-07 -6.15645496E-02 -1.29967830E-02
  5.68367535E-03 -1.67687629E-06 -1.55020342E-04 -7.23627853E-04  1.95794104E-04
  9.60165231E-04 -6.92655708E-06 -2.14587868E-04  1.10524179E-04 -5.85328296E-05
 -5.59008842E-10  6.28418015E-04 -4.21535526E-04  4.79221520E-04  4.07857177E-09
  3.18751063E-03 -4.18088092E-04  1.40139254E-03 -1.26971749E-07 -7.74861164E-04
  2.30173890E-03 -4.92348028E-04 -6.19426752E-04 -1.27817232E-04  1.32260891E-03
 -1.38886242E-03 -3.54769821E-04  3.71675785E-05 -5.55238322E-05  6.45007232E-09
  8.33230334E-04  8.48278248E-04  4.70616874E-04 -5.81426118E-08 -8.67834585E-03
  4.17091688E-04  1.76638074E-03 -4.41378825E-08  1.13508726E-04 -1.22087284E-04
  1.44611247E-04 -1.10519654E-04  1.20084372E-08 -4.06602291E-04 -1.11524295E-03
  1.02384690E-03  3.48567912E-08 -3.14696637E-02  1.09639901E-02  7.58725767E-03
 -5.03393343E-07 -3.57603225E-02 -2.60989624E-03  1.11038485E-03 -6.78756653E-04
  1.60310621E-07  1.05951639E-02 -5.52917955E-03  2.88486689E-03 -7.91011341E-07
  1.26728099E-02  1.63925568E-02  3.27462781E-03 -2.03035249E-07  9.94692938E-01
  3.54393314E-02  4.60861915E-04 -2.24552722E-04  4.63138015E-08 -3.15360562E-02
 -3.75617569E-03  2.10588643E-03 -4.83472804E-07  2.79669746E-02  7.18413700E-03
 -5.12560952E-03  1.35297902E-06 -8.03808641E-05 -7.49091952E-04  2.30473311E-05
 -2.09809349E-04 -4.38081940E-06 -7.60158158E-05  6.33302989E-05 -4.78809985E-05
  1.03867131E-09  1.69767844E-04 -4.38382510E-04  3.43645482E-04 -1.87222876E-08
  2.96211495E-03 -1.01089138E-03  1.86165848E-04  4.52924794E-08 -7.90352858E-05
 -1.50055441E-04 -6.56308442E-04  3.89925670E-03 -7.08947655E-04  4.27188787E-03
  9.95293377E-01  3.56457620E-02 -2.64010490E-04 -6.02701368E-04  4.48060401E-08
 -3.33412543E-02  1.94007394E-03  4.92286858E-03 -2.50256294E-07  1.35931877E-02
 -6.61195735E-04 -5.85106952E-03 -6.03195690E-09 -4.94064963E-03 -1.62909503E-03
 -3.83627778E-04 -1.32256342E-03  4.48967201E-08  1.01152641E-02  1.88430996E-03
  8.37839691E-03 -2.86103658E-07  6.86116756E-03 -8.78044667E-03 -9.82144080E-04
  4.78338196E-07  3.16293931E-04 -2.31377847E-04 -8.11122641E-05 -1.18416214E-04
  1.08367891E-08  8.37630776E-04  1.69434770E-03 -7.01170796E-04 -4.20489208E-09
 -2.17093956E-02 -1.81711948E-03 -4.24895440E-03  1.26447172E-07  1.35890120E-03
 -3.00563582E-04  6.26366672E-05 -3.31663580E-05 -3.39220956E-10  2.31148415E-03
 -1.97037994E-04 -5.25961877E-04  1.70741406E-07  1.98138041E-03 -7.08817521E-04
 -8.50738039E-04  2.78762893E-07 -7.23849977E-04  4.05568947E-03 -6.14854311E-04
  4.12552621E-03 -2.67571510E-06 -1.65972711E-04  9.64358440E-05 -1.18888334E-04
  1.87566504E-09  2.65593987E-04 -5.95812124E-04  2.80045977E-04 -2.22977234E-09
  1.51287634E-03 -5.15405872E-06 -3.59798086E-04 -3.47898477E-08 -1.38987298E-04
  3.68609548E-04 -4.10864232E-05 -1.13743038E-04 -1.08630933E-04 -4.99562957E-04
 -9.77861443E-03  2.01864675E-02 -6.34114871E-06 -1.63731303E-02  6.21851818E-07
 -2.32004437E-02  3.82092144E-02 -3.69945366E-04 -8.14972183E-07 -2.56872134E-01
  2.40962375E-02  5.34452195E-02 -1.92904114E-06 -5.93535130E-02  1.15792543E-01
  7.00892529E-02 -6.71560346E-02  2.67319747E-06  3.44318912E-02 -4.36444796E-02
  5.32501497E-02 -2.51258739E-06  3.27490950E-01 -2.75130130E-03  7.88393515E-02
 -1.85274916E-06 -9.01912573E-03  1.88177971E-02  1.42178721E-02  2.14010619E-03
 -5.95751195E-07 -1.47176304E-02  2.80962886E-02 -3.57425475E-02  5.19361505E-06
 -1.76844216E-01  2.51569773E-02 -4.65121227E-02  5.55468351E-06 -8.52726209E-04
  2.48328732E-03  3.61241239E-03 -4.98846291E-04  1.30078725E-07  3.60571264E-02
  7.86970336E-03 -1.06656171E-02  3.41766084E-06  1.18900480E-01  2.04237092E-02
 -7.38231813E-03  4.42181963E-06  1.08027464E-03 -1.27389904E-02  3.60518438E-03
  1.92013737E-02 -2.25551891E-01  4.77355055E-01 -7.16990156E-02  6.72588050E-02
 -2.43879148E-06  5.48724430E-01 -5.95552082E-02  5.46395720E-02 -1.73588885E-06
 -6.73444354E-03  1.00750272E-02 -9.20594694E-03 -2.86675848E-07  1.80923021E-03
 -1.19439115E-02  5.56086681E-04  1.08510324E-03 -6.84857196E-04 -4.92334780E-03
 -8.75236312E-02  1.67966805E-01 -3.62522268E-02 -6.95465888E-02  3.66573011E-06
  1.27846765E-01 -3.18619474E-03 -1.19144497E-02  2.80947639E-07 -5.89594634E-03
  2.61930827E-03 -2.92087098E-03  1.81307364E-06 -1.21660745E-01  2.45908744E-01
 -7.06751713E-02  5.24039925E-02  1.19477305E-06  1.69139777E-01 -2.64930674E-02
 -1.14254895E-02  9.43396982E-07  2.79457853E-02 -1.16638848E-02  1.39928210E-02
 -3.68062340E-06 -1.37939399E-01  2.69959514E-01 -1.89492329E-03  6.37261470E-02
 -1.01490293E-05  1.70256990E-01 -2.95094021E-03 -2.28743465E-03  1.65999336E-06
 -1.05649609E-01  1.39343600E-02 -3.12412945E-02  6.90253106E-06 -9.84312453E-02
  1.88749226E-01  7.73494724E-02 -3.17958395E-02  8.82550803E-06  1.33671243E-01
  1.18251720E-02  5.01569709E-03 -5.36371561E-07  8.19533023E-02  1.90834737E-02
 -4.01859343E-03  1.34464481E-06  3.61889503E-02  2.78832589E-03  4.60220837E-02
  1.18666977E-02  4.58740296E-02 -1.03512544E-01 -4.40524461E-02  3.66579484E-02
 -7.31424151E-07 -1.28129732E-01 -1.88505383E-02  1.86883635E-02 -5.11740268E-07
 -1.87339973E-02  8.43028098E-03 -4.21767310E-03  4.24483586E-07  6.32908801E-02
  5.50173877E-03  4.86884233E-02  5.93181845E-03  4.39325524E-02  9.99368221E-03
 -1.40625385E-01  2.72075260E-01 -1.69645001E-02 -8.24726574E-02  4.60730931E-06
  2.28414951E-01 -3.20422300E-03 -4.39455582E-03  4.41139273E-07 -1.56728810E-01
  7.60449482E-03  3.47418881E-02 -9.48327299E-07 -8.61064589E-02  1.79303629E-01
  8.36861673E-02  1.55093389E-01 -4.97979920E-06  1.19109834E-01  2.01818800E-02
 -7.13592776E-06  1.73448990E-06 -2.41368317E-02  5.82092799E-02  8.14017589E-02
 -3.57525219E-06  8.89970256E-02 -1.76262231E-01  1.06494779E-01 -9.74019428E-03
  7.31419146E-06 -1.23919115E-01  4.68809060E-04  2.71877271E-02 -4.62818227E-06
  6.24340562E-02  9.29430511E-02  1.64561008E-03 -1.21496984E-06  1.14313438E-01
 -2.21644912E-01 -5.20419242E-02  4.28796919E-02 -8.86463812E-06 -1.98611155E-01
 -6.81933922E-03  9.32756523E-04  1.28039149E-07  1.17786010E-01  2.01475487E-02
 -1.93632468E-02  6.40466606E-06  8.12768220E-02  1.53433488E-02  7.68816421E-02
  1.12645414E-02  2.96898134E-02 -6.71953358E-02 -1.75060027E-02  6.80360848E-02
 -2.63144443E-06 -8.96329834E-02 -7.27115794E-03  3.35781193E-02 -1.24759141E-06
 -2.16826417E-02  5.75725536E-03 -3.13116210E-03 -8.49623338E-07 -5.55929264E-02
 -3.52656273E-04 -5.93745350E-02 -4.75098345E-03 -6.86671936E-02 -1.36038854E-02
 -8.40648721E-02  1.62915714E-01  2.41130354E-02  3.39185892E-02 -1.14193233E-06
  1.45771127E-01  2.96432203E-03  1.21891174E-02 -6.81516375E-07  1.33616165E-01
 -9.70530351E-03 -2.09650728E-02 -1.83516350E-06  7.29656993E-02 -1.57048881E-01
  1.26708617E-01  1.80427198E-01 -1.50748110E-05 -1.47787425E-01  3.48667495E-02
  4.61467634E-02 -4.03306548E-06 -3.02978291E-02 -2.04195535E-02 -8.17614695E-02
  8.54033870E-06  7.03950339E-02 -1.44369846E-01 -2.12863335E-01  5.03307822E-02
 -1.72439413E-05 -1.26139478E-01 -4.78649463E-02  3.06320840E-02 -7.59129679E-06
  1.21327467E-01 -1.07050463E-01  4.27152713E-02 -9.95565700E-06 -1.18324157E-01
  2.34818053E-01 -5.38237099E-02  1.89017204E-02 -7.30212596E-06  2.06935199E-01
 -2.28372978E-02  8.35211300E-03 -2.28414762E-06 -2.20539364E-01 -3.98478869E-02
  2.80630418E-02 -7.74261971E-06  8.06231841E-02  3.17100081E-02  7.39964294E-02
  2.99580379E-02 -3.50661021E-02  8.10262258E-02  1.51356011E-01 -3.10813199E-02
 -2.57017058E-06  1.05382084E-01  8.31309487E-02 -1.40962977E-02 -1.56662408E-06
  3.12624810E-02 -4.38134854E-03  8.16064849E-03 -5.97287376E-07 -7.80212081E-02
 -1.98931683E-02  1.06837566E-01  4.28928955E-02  1.10218097E-01  3.98590991E-02
 -6.43205172E-02  1.26458641E-01 -1.58374173E-02  1.83398415E-01  3.59938299E-06
  1.66809245E-01 -2.46237237E-02  5.48935500E-02  2.58986174E-06  3.03052037E-01
 -1.86789648E-02 -4.95475838E-02  1.44849640E-06  7.53086109E-02 -1.68135528E-01
 -1.57762269E-01  4.47450697E-02  9.33622631E-06 -1.68290004E-01 -2.93435015E-02
  1.61756804E-03  2.84989861E-06 -1.93635520E-01 -3.88603138E-02 -1.44038158E-01
  6.44874501E-06 -7.38790512E-02  1.49635463E-01 -3.17738681E-02 -8.34564555E-02
  2.37693226E-05  1.56148459E-01 -1.01701419E-03 -3.39783084E-02  1.10064760E-05
 -7.00556535E-02 -6.36638629E-02  1.96961864E-02  1.99933602E-06  5.73668371E-02
 -1.16927016E-01  1.22553289E-01 -1.03741573E-01  3.10366258E-05 -1.31274716E-01
  4.73507063E-02 -2.66451257E-02  8.86413798E-06 -3.73069729E-02  1.23609193E-02
  3.06209700E-03 -2.85393212E-06  8.03057965E-02  4.05877395E-02  1.32092029E-01
  5.43727302E-02 -4.34341940E-02  1.02577748E-01  1.93691862E-01 -2.64673014E-01
  1.73929434E-05  1.24585505E-01  1.12485516E-01 -1.58228980E-01  1.06543002E-05
  5.45427809E-02 -3.34692849E-03  5.12189641E-03  4.20161101E-07  1.12126668E-01
  4.85681698E-02 -1.07083899E-01 -5.36138019E-02 -8.30144154E-02 -3.35129875E-02