 Entering Gaussian System, Link 0=/opt/cluster/programs/g09_d.01/g09//g09
 Input=/home/unibas/boittier/RDKit_G2/N.pdb/SCAN_1_2_6_8_S_17_20.0/6_SCAN_1_2_6_8_F/6_SCAN_N.pdb.com
 Output=/scratch/boittier/6_SCAN_N.pdb/6_SCAN_N.pdb.out
 Initial command:
 /opt/cluster/programs/g09_d.01/g09/l1.exe "/scratch/boittier/6_SCAN_N.pdb/Gau-145378.inp" -scrdir="/scratch/boittier/6_SCAN_N.pdb/"
 Entering Link 1 = /opt/cluster/programs/g09_d.01/g09/l1.exe PID=    145380.
  
 Copyright (c) 1988,1990,1992,1993,1995,1998,2003,2009,2013,
            Gaussian, Inc.  All Rights Reserved.
  
 This is part of the Gaussian(R) 09 program.  It is based on
 the Gaussian(R) 03 system (copyright 2003, Gaussian, Inc.),
 the Gaussian(R) 98 system (copyright 1998, Gaussian, Inc.),
 the Gaussian(R) 94 system (copyright 1995, Gaussian, Inc.),
 the Gaussian 92(TM) system (copyright 1992, Gaussian, Inc.),
 the Gaussian 90(TM) system (copyright 1990, Gaussian, Inc.),
 the Gaussian 88(TM) system (copyright 1988, Gaussian, Inc.),
 the Gaussian 86(TM) system (copyright 1986, Carnegie Mellon
 University), and the Gaussian 82(TM) system (copyright 1983,
 Carnegie Mellon University). Gaussian is a federally registered
 trademark of Gaussian, Inc.
  
 This software contains proprietary and confidential information,
 including trade secrets, belonging to Gaussian, Inc.
  
 This software is provided under written license and may be
 used, copied, transmitted, or stored only in accord with that
 written license.
  
 The following legend is applicable only to US Government
 contracts under FAR:
  
                    RESTRICTED RIGHTS LEGEND
  
 Use, reproduction and disclosure by the US Government is
 subject to restrictions as set forth in subparagraphs (a)
 and (c) of the Commercial Computer Software - Restricted
 Rights clause in FAR 52.227-19.
  
 Gaussian, Inc.
 340 Quinnipiac St., Bldg. 40, Wallingford CT 06492
  
  
 ---------------------------------------------------------------
 Warning -- This program may not be used in any manner that
 competes with the business of Gaussian, Inc. or will provide
 assistance to any competitor of Gaussian, Inc.  The licensee
 of this program is prohibited from giving any competitor of
 Gaussian, Inc. access to this program.  By using this program,
 the user acknowledges that Gaussian, Inc. is engaged in the
 business of creating and licensing software in the field of
 computational chemistry and represents and warrants to the
 licensee that it is not a competitor of Gaussian, Inc. and that
 it will not use this program in any manner prohibited above.
 ---------------------------------------------------------------
  

 Cite this work as:
 Gaussian 09, Revision D.01,
 M. J. Frisch, G. W. Trucks, H. B. Schlegel, G. E. Scuseria, 
 M. A. Robb, J. R. Cheeseman, G. Scalmani, V. Barone, B. Mennucci, 
 G. A. Petersson, H. Nakatsuji, M. Caricato, X. Li, H. P. Hratchian, 
 A. F. Izmaylov, J. Bloino, G. Zheng, J. L. Sonnenberg, M. Hada, 
 M. Ehara, K. Toyota, R. Fukuda, J. Hasegawa, M. Ishida, T. Nakajima, 
 Y. Honda, O. Kitao, H. Nakai, T. Vreven, J. A. Montgomery, Jr., 
 J. E. Peralta, F. Ogliaro, M. Bearpark, J. J. Heyd, E. Brothers, 
 K. N. Kudin, V. N. Staroverov, T. Keith, R. Kobayashi, J. Normand, 
 K. Raghavachari, A. Rendell, J. C. Burant, S. S. Iyengar, J. Tomasi, 
 M. Cossi, N. Rega, J. M. Millam, M. Klene, J. E. Knox, J. B. Cross, 
 V. Bakken, C. Adamo, J. Jaramillo, R. Gomperts, R. E. Stratmann, 
 O. Yazyev, A. J. Austin, R. Cammi, C. Pomelli, J. W. Ochterski, 
 R. L. Martin, K. Morokuma, V. G. Zakrzewski, G. A. Voth, 
 P. Salvador, J. J. Dannenberg, S. Dapprich, A. D. Daniels, 
 O. Farkas, J. B. Foresman, J. V. Ortiz, J. Cioslowski, 
 and D. J. Fox, Gaussian, Inc., Wallingford CT, 2013.
 
 ******************************************
 Gaussian 09:  ES64L-G09RevD.01 24-Apr-2013
                26-May-2021 
 ******************************************
 %chk=/home/unibas/boittier/RDKit_G2/N.pdb/SCAN_1_2_6_8_S_17_20.0/6_SCAN_1_2_6_8_
 F/N.pdb.chk
 %nproc=8
 Will use up to    8 processors via shared memory.
 %mem=16GB
 -----------------------------
 #p wB97XD/6-31+G Opt=ModRedun
 -----------------------------
 1/14=-1,18=120,19=15,26=3,38=1/1,3;
 2/9=110,12=2,17=6,18=5,40=1/2;
 3/5=1,6=6,7=10,11=2,16=1,25=1,30=1,71=1,74=-58/1,2,3;
 4//1;
 5/5=2,38=5/2;
 6/7=2,8=2,9=2,10=2,28=1/1;
 7//1,2,3,16;
 1/14=-1,18=20,19=15,26=3/3(2);
 2/9=110/2;
 99//99;
 2/9=110/2;
 3/5=1,6=6,7=10,11=2,16=1,25=1,30=1,71=1,74=-58/1,2,3;
 4/5=5,16=3,69=1/1;
 5/5=2,38=5/2;
 7//1,2,3,16;
 1/14=-1,18=20,19=15,26=3/3(-5);
 2/9=110/2;
 6/7=2,8=2,9=2,10=2,19=2,28=1/1;
 99/9=1/99;
 Leave Link    1 at Wed May 26 09:20:48 2021, MaxMem=  2147483648 cpu:         0.2
 (Enter /opt/cluster/programs/g09_d.01/g09/l101.exe)
 -----
 N.pdb
 -----
 Symbolic Z-matrix:
 Charge =  0 Multiplicity = 1
 C                     2.76577   0.66378   0.06352 
 C                     1.47936  -0.10342  -0.08195 
 H                     2.8552    1.44045  -0.70392 
 H                     3.61246  -0.02039  -0.00199 
 H                     2.78729   1.16212   1.04069 
 C                     0.23794   0.75179  -0.30998 
 O                     1.42876  -1.33203  -0.02433 
 C                    -1.07446   0.08669  -0.00029 
 H                     0.21729   1.06694  -1.36002 
 H                     0.29977   1.6612    0.29565 
 F                    -1.38111  -0.95571  -0.85546 
 F                    -2.11542   1.01521  -0.12113 
 F                    -1.13168  -0.39807   1.2984 
 
 The following ModRedundant input section has been read:
 D       1       2       6       8 F                                           
 
 NAtoms=     13 NQM=       13 NQMF=       0 NMMI=      0 NMMIF=      0
                NMic=       0 NMicF=      0.
                    Isotopes and Nuclear Properties:
 (Nuclear quadrupole moments (NQMom) in fm**2, nuclear magnetic moments (NMagM)
  in nuclear magnetons)

  Atom         1           2           3           4           5           6           7           8           9          10
 IAtWgt=          12          12           1           1           1          12          16          12           1           1
 AtmWgt=  12.0000000  12.0000000   1.0078250   1.0078250   1.0078250  12.0000000  15.9949146  12.0000000   1.0078250   1.0078250
 NucSpn=           0           0           1           1           1           0           0           0           1           1
 AtZEff=   0.0000000   0.0000000   0.0000000   0.0000000   0.0000000   0.0000000   0.0000000   0.0000000   0.0000000   0.0000000
 NQMom=    0.0000000   0.0000000   0.0000000   0.0000000   0.0000000   0.0000000   0.0000000   0.0000000   0.0000000   0.0000000
 NMagM=    0.0000000   0.0000000   2.7928460   2.7928460   2.7928460   0.0000000   0.0000000   0.0000000   2.7928460   2.7928460
 AtZNuc=   6.0000000   6.0000000   1.0000000   1.0000000   1.0000000   6.0000000   8.0000000   6.0000000   1.0000000   1.0000000

  Atom        11          12          13
 IAtWgt=          19          19          19
 AtmWgt=  18.9984033  18.9984033  18.9984033
 NucSpn=           1           1           1
 AtZEff=   0.0000000   0.0000000   0.0000000
 NQMom=    0.0000000   0.0000000   0.0000000
 NMagM=    2.6288670   2.6288670   2.6288670
 AtZNuc=   9.0000000   9.0000000   9.0000000
 Leave Link  101 at Wed May 26 09:20:48 2021, MaxMem=  2147483648 cpu:         4.2
 (Enter /opt/cluster/programs/g09_d.01/g09/l103.exe)

 GradGradGradGradGradGradGradGradGradGradGradGradGradGradGradGradGradGrad
 Berny optimization.
 Initialization pass.
                           ----------------------------
                           !    Initial Parameters    !
                           ! (Angstroms and Degrees)  !
 --------------------------                            --------------------------
 ! Name  Definition              Value          Derivative Info.                !
 --------------------------------------------------------------------------------
 ! R1    R(1,2)                  1.5049         estimate D2E/DX2                !
 ! R2    R(1,3)                  1.0955         estimate D2E/DX2                !
 ! R3    R(1,4)                  1.0905         estimate D2E/DX2                !
 ! R4    R(1,5)                  1.0971         estimate D2E/DX2                !
 ! R5    R(2,6)                  1.5246         estimate D2E/DX2                !
 ! R6    R(2,7)                  1.231          estimate D2E/DX2                !
 ! R7    R(6,8)                  1.5035         estimate D2E/DX2                !
 ! R8    R(6,9)                  1.0965         estimate D2E/DX2                !
 ! R9    R(6,10)                 1.0944         estimate D2E/DX2                !
 ! R10   R(8,11)                 1.3827         estimate D2E/DX2                !
 ! R11   R(8,12)                 1.4001         estimate D2E/DX2                !
 ! R12   R(8,13)                 1.3874         estimate D2E/DX2                !
 ! A1    A(2,1,3)              111.3153         estimate D2E/DX2                !
 ! A2    A(2,1,4)              109.7573         estimate D2E/DX2                !
 ! A3    A(2,1,5)              109.538          estimate D2E/DX2                !
 ! A4    A(3,1,4)              109.8351         estimate D2E/DX2                !
 ! A5    A(3,1,5)              107.4766         estimate D2E/DX2                !
 ! A6    A(4,1,5)              108.8591         estimate D2E/DX2                !
 ! A7    A(1,2,6)              115.121          estimate D2E/DX2                !
 ! A8    A(1,2,7)              122.6455         estimate D2E/DX2                !
 ! A9    A(6,2,7)              122.2334         estimate D2E/DX2                !
 ! A10   A(2,6,8)              115.5814         estimate D2E/DX2                !
 ! A11   A(2,6,9)              108.6497         estimate D2E/DX2                !
 ! A12   A(2,6,10)             109.7156         estimate D2E/DX2                !
 ! A13   A(8,6,9)              107.9352         estimate D2E/DX2                !
 ! A14   A(8,6,10)             107.6336         estimate D2E/DX2                !
 ! A15   A(9,6,10)             106.9881         estimate D2E/DX2                !
 ! A16   A(6,8,11)             113.5577         estimate D2E/DX2                !
 ! A17   A(6,8,12)             109.7444         estimate D2E/DX2                !
 ! A18   A(6,8,13)             112.5418         estimate D2E/DX2                !
 ! A19   A(11,8,12)            106.3609         estimate D2E/DX2                !
 ! A20   A(11,8,13)            107.8408         estimate D2E/DX2                !
 ! A21   A(12,8,13)            106.3697         estimate D2E/DX2                !
 ! D1    D(3,1,2,6)            -45.5869         estimate D2E/DX2                !
 ! D2    D(3,1,2,7)            134.2768         estimate D2E/DX2                !
 ! D3    D(4,1,2,6)           -167.4008         estimate D2E/DX2                !
 ! D4    D(4,1,2,7)             12.4629         estimate D2E/DX2                !
 ! D5    D(5,1,2,6)             73.1332         estimate D2E/DX2                !
 ! D6    D(5,1,2,7)           -107.0031         estimate D2E/DX2                !
 ! D7    D(1,2,6,8)           -160.2167         Frozen                          !
 ! D8    D(1,2,6,9)             78.3235         estimate D2E/DX2                !
 ! D9    D(1,2,6,10)           -38.3248         estimate D2E/DX2                !
 ! D10   D(7,2,6,8)             19.9189         estimate D2E/DX2                !
 ! D11   D(7,2,6,9)           -101.5408         estimate D2E/DX2                !
 ! D12   D(7,2,6,10)           141.8109         estimate D2E/DX2                !
 ! D13   D(2,6,8,11)           -67.0521         estimate D2E/DX2                !
 ! D14   D(2,6,8,12)           174.0672         estimate D2E/DX2                !
 ! D15   D(2,6,8,13)            55.8259         estimate D2E/DX2                !
 ! D16   D(9,6,8,11)            54.7908         estimate D2E/DX2                !
 ! D17   D(9,6,8,12)           -64.0899         estimate D2E/DX2                !
 ! D18   D(9,6,8,13)           177.6687         estimate D2E/DX2                !
 ! D19   D(10,6,8,11)          169.949          estimate D2E/DX2                !
 ! D20   D(10,6,8,12)           51.0683         estimate D2E/DX2                !
 ! D21   D(10,6,8,13)          -67.173          estimate D2E/DX2                !
 --------------------------------------------------------------------------------
 Trust Radius=3.00D-01 FncErr=1.00D-07 GrdErr=1.00D-06
 Number of steps in this run=     64 maximum allowed number of steps=    100.
 GradGradGradGradGradGradGradGradGradGradGradGradGradGradGradGradGradGrad

 Leave Link  103 at Wed May 26 09:20:49 2021, MaxMem=  2147483648 cpu:         0.1
 (Enter /opt/cluster/programs/g09_d.01/g09/l202.exe)
                          Input orientation:                          
 ---------------------------------------------------------------------
 Center     Atomic      Atomic             Coordinates (Angstroms)
 Number     Number       Type             X           Y           Z
 ---------------------------------------------------------------------
      1          6           0        2.765772    0.663784    0.063522
      2          6           0        1.479361   -0.103422   -0.081945
      3          1           0        2.855203    1.440451   -0.703915
      4          1           0        3.612463   -0.020394   -0.001988
      5          1           0        2.787291    1.162115    1.040692
      6          6           0        0.237939    0.751785   -0.309976
      7          8           0        1.428762   -1.332027   -0.024328
      8          6           0       -1.074456    0.086687   -0.000293
      9          1           0        0.217288    1.066942   -1.360018
     10          1           0        0.299773    1.661198    0.295651
     11          9           0       -1.381109   -0.955711   -0.855458
     12          9           0       -2.115418    1.015213   -0.121129
     13          9           0       -1.131676   -0.398068    1.298404
 ---------------------------------------------------------------------
                    Distance matrix (angstroms):
                    1          2          3          4          5
     1  C    0.000000
     2  C    1.504865   0.000000
     3  H    1.095522   2.159475   0.000000
     4  H    1.090540   2.136214   1.788914   0.000000
     5  H    1.097114   2.138359   1.767975   1.779443   0.000000
     6  C    2.556792   1.524633   2.734871   3.475418   2.914081
     7  O    2.403867   1.230996   3.191114   2.547436   3.033251
     8  C    3.883872   2.562185   4.215445   4.688142   4.141652
     9  H    2.946824   2.143840   2.743825   3.814939   3.518150
    10  H    2.670182   2.155897   2.752832   3.726963   2.644223
    11  F    4.545757   3.083344   4.869384   5.151601   5.045407
    12  F    4.897307   3.765012   5.022702   5.821967   5.040631
    13  F    4.224046   2.968113   4.825416   4.933610   4.225978
                    6          7          8          9         10
     6  C    0.000000
     7  O    2.417008   0.000000
     8  C    1.503542   2.877399   0.000000
     9  H    1.096512   3.001131   2.116212   0.000000
    10  H    1.094367   3.215027   2.110728   1.761018   0.000000
    11  F    2.415452   2.954279   1.382728   2.626895   3.316418
    12  F    2.375573   4.252072   1.400130   2.641787   2.534591
    13  F    2.405181   3.029479   1.387399   3.321621   2.700951
                   11         12         13
    11  F    0.000000
    12  F    2.227777   0.000000
    13  F    2.238818   2.231633   0.000000
 Stoichiometry    C4H5F3O
 Framework group  C1[X(C4H5F3O)]
 Deg. of freedom    33
 Full point group                 C1      NOp   1
 Largest Abelian subgroup         C1      NOp   1
 Largest concise Abelian subgroup C1      NOp   1
                         Standard orientation:                         
 ---------------------------------------------------------------------
 Center     Atomic      Atomic             Coordinates (Angstroms)
 Number     Number       Type             X           Y           Z
 ---------------------------------------------------------------------
      1          6           0       -2.765772   -0.663784    0.063522
      2          6           0       -1.479361    0.103422   -0.081945
      3          1           0       -2.855203   -1.440451   -0.703915
      4          1           0       -3.612463    0.020394   -0.001988
      5          1           0       -2.787291   -1.162115    1.040692
      6          6           0       -0.237939   -0.751785   -0.309976
      7          8           0       -1.428762    1.332027   -0.024328
      8          6           0        1.074456   -0.086687   -0.000293
      9          1           0       -0.217288   -1.066942   -1.360018
     10          1           0       -0.299773   -1.661198    0.295651
     11          9           0        1.381109    0.955711   -0.855458
     12          9           0        2.115418   -1.015213   -0.121129
     13          9           0        1.131676    0.398068    1.298404
 ---------------------------------------------------------------------
 Rotational constants (GHZ):      3.6499937      1.2962899      1.1854826
 Leave Link  202 at Wed May 26 09:20:49 2021, MaxMem=  2147483648 cpu:         0.0
 (Enter /opt/cluster/programs/g09_d.01/g09/l301.exe)
 Standard basis: 6-31+G (6D, 7F)
 Ernie: Thresh=  0.10000D-02 Tol=  0.10000D-05 Strict=F.
 There are   114 symmetry adapted cartesian basis functions of A   symmetry.
 There are   114 symmetry adapted basis functions of A   symmetry.
   114 basis functions,   228 primitive gaussians,   114 cartesian basis functions
    32 alpha electrons       32 beta electrons
       nuclear repulsion energy       403.5769184575 Hartrees.
 IExCor= 4639 DFT=T Ex+Corr=wB97XD ExCW=0 ScaHFX=  1.000000
 ScaDFX=  1.000000  1.000000  1.000000  1.000000 ScalE2=  1.000000  1.000000
 IRadAn=      0 IRanWt=     -1 IRanGd=            0 ICorTp=0 IEmpDi=121
  HFx wShort=  0.000000 wLong=  0.200000 cFull=  0.222036 cShort=  0.000000 cLong=  0.777964
  DFx wShort=  0.000000 wLong=  0.200000 cFull=  0.000000 cShort=  0.000000 cLong=  1.000000
 NAtoms=   13 NActive=   13 NUniq=   13 SFac= 1.00D+00 NAtFMM=   60 NAOKFM=F Big=F
 Integral buffers will be    131072 words long.
 Raffenetti 2 integral format.
 Two-electron integral symmetry is turned on.
 R6Disp:  Grimme-D2 Dispersion energy=       -0.0056141974 Hartrees.
 Nuclear repulsion after empirical dispersion term =      403.5713042601 Hartrees.
 Leave Link  301 at Wed May 26 09:20:49 2021, MaxMem=  2147483648 cpu:         0.3
 (Enter /opt/cluster/programs/g09_d.01/g09/l302.exe)
 NPDir=0 NMtPBC=     1 NCelOv=     1 NCel=       1 NClECP=     1 NCelD=      1
         NCelK=      1 NCelE2=     1 NClLst=     1 CellRange=     0.0.
 One-electron integrals computed using PRISM.
 NBasis=   114 RedAO= T EigKep=  3.95D-05  NBF=   114
 NBsUse=   114 1.00D-06 EigRej= -1.00D+00 NBFU=   114
 Precomputing XC quadrature grid using
 IXCGrd= 4 IRadAn=           0 IRanWt=          -1 IRanGd=           0 AccXCQ= 0.00D+00.
 Generated NRdTot=       0 NPtTot=           0 NUsed=           0 NTot=          32
 NSgBfM=   114   114   114   114   114 MxSgAt=    13 MxSgA2=    13.
 Leave Link  302 at Wed May 26 09:20:49 2021, MaxMem=  2147483648 cpu:         1.0
 (Enter /opt/cluster/programs/g09_d.01/g09/l303.exe)
 DipDrv:  MaxL=1.
 Leave Link  303 at Wed May 26 09:20:49 2021, MaxMem=  2147483648 cpu:         0.3
 (Enter /opt/cluster/programs/g09_d.01/g09/l401.exe)
 ExpMin= 4.38D-02 ExpMax= 7.00D+03 ExpMxC= 1.05D+03 IAcc=2 IRadAn=         4 AccDes= 0.00D+00
 Harris functional with IExCor= 4639 and IRadAn=       4 diagonalized for initial guess.
 HarFok:  IExCor= 4639 AccDes= 0.00D+00 IRadAn=         4 IDoV= 1 UseB2=F ITyADJ=14
 ICtDFT=  3500011 ScaDFX=  1.000000  1.000000  1.000000  1.000000
 FoFCou: FMM=F IPFlag=           0 FMFlag=      100000 FMFlg1=           0
         NFxFlg=           0 DoJE=T BraDBF=F KetDBF=T FulRan=T
         wScrn=  0.000000 ICntrl=     500 IOpCl=  0 I1Cent=   200000004 NGrid=           0
         NMat0=    1 NMatS0=      1 NMatT0=    0 NMatD0=    1 NMtDS0=    0 NMtDT0=    0
 Petite list used in FoFCou.
 Harris En= -511.186658010215    
 JPrj=0 DoOrth=F DoCkMO=F.
 Leave Link  401 at Wed May 26 09:20:49 2021, MaxMem=  2147483648 cpu:         2.0
 (Enter /opt/cluster/programs/g09_d.01/g09/l502.exe)
 Closed shell SCF:
 Using DIIS extrapolation, IDIIS=  1040.
 Integral symmetry usage will be decided dynamically.
 Keep R1 ints in memory in canonical form, NReq=43969700.
 IVT=       59316 IEndB=       59316 NGot=  2147483648 MDV=  2104449753
 LenX=  2104449753 LenY=  2104436316
 Requested convergence on RMS density matrix=1.00D-08 within 128 cycles.
 Requested convergence on MAX density matrix=1.00D-06.
 Requested convergence on             energy=1.00D-06.
 No special actions if energy rises.
 FoFCou: FMM=F IPFlag=           0 FMFlag=           0 FMFlg1=           0
         NFxFlg=           0 DoJE=F BraDBF=F KetDBF=F FulRan=T
         wScrn=  0.000000 ICntrl=     600 IOpCl=  0 I1Cent=           0 NGrid=           0
         NMat0=    1 NMatS0=   6555 NMatT0=    0 NMatD0=    1 NMtDS0=    0 NMtDT0=    0
 Symmetry not used in FoFCou.

 Cycle   1  Pass 1  IDiag  1:
 E= -529.591304474319    
 DIIS: error= 5.51D-02 at cycle   1 NSaved=   1.
 NSaved= 1 IEnMin= 1 EnMin= -529.591304474319     IErMin= 1 ErrMin= 5.51D-02
 ErrMax= 5.51D-02  0.00D+00 EMaxC= 1.00D-01 BMatC= 5.20D-01 BMatP= 5.20D-01
 IDIUse=3 WtCom= 4.49D-01 WtEn= 5.51D-01
 Coeff-Com:  0.100D+01
 Coeff-En:   0.100D+01
 Coeff:      0.100D+01
 Gap=     0.424 Goal=   None    Shift=    0.000
 GapD=    0.424 DampG=2.000 DampE=0.500 DampFc=1.0000 IDamp=-1.
 RMSDP=2.12D-02 MaxDP=1.19D+00              OVMax= 1.29D-01

 Cycle   2  Pass 1  IDiag  1:
 E= -529.735506457990     Delta-E=       -0.144201983671 Rises=F Damp=F
 DIIS: error= 4.64D-02 at cycle   2 NSaved=   2.
 NSaved= 2 IEnMin= 2 EnMin= -529.735506457990     IErMin= 2 ErrMin= 4.64D-02
 ErrMax= 4.64D-02  0.00D+00 EMaxC= 1.00D-01 BMatC= 3.08D-01 BMatP= 5.20D-01
 IDIUse=3 WtCom= 5.36D-01 WtEn= 4.64D-01
 Coeff-Com:  0.430D+00 0.570D+00
 Coeff-En:   0.325D+00 0.675D+00
 Coeff:      0.381D+00 0.619D+00
 Gap=     0.522 Goal=   None    Shift=    0.000
 RMSDP=4.88D-03 MaxDP=9.01D-02 DE=-1.44D-01 OVMax= 6.97D-02

 Cycle   3  Pass 1  IDiag  1:
 E= -529.908750625871     Delta-E=       -0.173244167881 Rises=F Damp=F
 DIIS: error= 1.17D-02 at cycle   3 NSaved=   3.
 NSaved= 3 IEnMin= 3 EnMin= -529.908750625871     IErMin= 3 ErrMin= 1.17D-02
 ErrMax= 1.17D-02  0.00D+00 EMaxC= 1.00D-01 BMatC= 2.21D-02 BMatP= 3.08D-01
 IDIUse=3 WtCom= 8.83D-01 WtEn= 1.17D-01
 Coeff-Com:  0.102D+00 0.256D+00 0.642D+00
 Coeff-En:   0.000D+00 0.000D+00 0.100D+01
 Coeff:      0.900D-01 0.226D+00 0.684D+00
 Gap=     0.392 Goal=   None    Shift=    0.000
 RMSDP=4.62D-03 MaxDP=2.10D-01 DE=-1.73D-01 OVMax= 3.15D-02

 Cycle   4  Pass 1  IDiag  1:
 E= -529.921691505283     Delta-E=       -0.012940879411 Rises=F Damp=F
 DIIS: error= 5.25D-03 at cycle   4 NSaved=   4.
 NSaved= 4 IEnMin= 4 EnMin= -529.921691505283     IErMin= 4 ErrMin= 5.25D-03
 ErrMax= 5.25D-03  0.00D+00 EMaxC= 1.00D-01 BMatC= 3.83D-03 BMatP= 2.21D-02
 IDIUse=3 WtCom= 9.47D-01 WtEn= 5.25D-02
 Coeff-Com: -0.597D-03 0.312D-01 0.338D+00 0.631D+00
 Coeff-En:   0.000D+00 0.000D+00 0.120D+00 0.880D+00
 Coeff:     -0.565D-03 0.296D-01 0.327D+00 0.644D+00
 Gap=     0.381 Goal=   None    Shift=    0.000
 RMSDP=1.06D-03 MaxDP=2.59D-02 DE=-1.29D-02 OVMax= 2.01D-02

 Cycle   5  Pass 1  IDiag  1:
 E= -529.924358320872     Delta-E=       -0.002666815590 Rises=F Damp=F
 DIIS: error= 1.83D-03 at cycle   5 NSaved=   5.
 NSaved= 5 IEnMin= 5 EnMin= -529.924358320872     IErMin= 5 ErrMin= 1.83D-03
 ErrMax= 1.83D-03  0.00D+00 EMaxC= 1.00D-01 BMatC= 3.36D-04 BMatP= 3.83D-03
 IDIUse=3 WtCom= 9.82D-01 WtEn= 1.83D-02
 Coeff-Com: -0.823D-02-0.376D-02 0.144D+00 0.367D+00 0.501D+00
 Coeff-En:   0.000D+00 0.000D+00 0.000D+00 0.000D+00 0.100D+01
 Coeff:     -0.808D-02-0.369D-02 0.141D+00 0.360D+00 0.510D+00
 Gap=     0.385 Goal=   None    Shift=    0.000
 RMSDP=7.32D-04 MaxDP=3.52D-02 DE=-2.67D-03 OVMax= 5.22D-03

 Cycle   6  Pass 1  IDiag  1:
 E= -529.924601373149     Delta-E=       -0.000243052276 Rises=F Damp=F
 DIIS: error= 3.32D-04 at cycle   6 NSaved=   6.
 NSaved= 6 IEnMin= 6 EnMin= -529.924601373149     IErMin= 6 ErrMin= 3.32D-04
 ErrMax= 3.32D-04  0.00D+00 EMaxC= 1.00D-01 BMatC= 7.71D-06 BMatP= 3.36D-04
 IDIUse=3 WtCom= 9.97D-01 WtEn= 3.32D-03
 Coeff-Com: -0.132D-02-0.446D-02-0.422D-02 0.717D-02 0.126D+00 0.877D+00
 Coeff-En:   0.000D+00 0.000D+00 0.000D+00 0.000D+00 0.000D+00 0.100D+01
 Coeff:     -0.132D-02-0.444D-02-0.420D-02 0.715D-02 0.125D+00 0.878D+00
 Gap=     0.384 Goal=   None    Shift=    0.000
 RMSDP=1.52D-04 MaxDP=7.04D-03 DE=-2.43D-04 OVMax= 1.42D-03

 Cycle   7  Pass 1  IDiag  1:
 E= -529.924610035990     Delta-E=       -0.000008662841 Rises=F Damp=F
 DIIS: error= 5.42D-05 at cycle   7 NSaved=   7.
 NSaved= 7 IEnMin= 7 EnMin= -529.924610035990     IErMin= 7 ErrMin= 5.42D-05
 ErrMax= 5.42D-05  0.00D+00 EMaxC= 1.00D-01 BMatC= 6.35D-07 BMatP= 7.71D-06
 IDIUse=1 WtCom= 1.00D+00 WtEn= 0.00D+00
 Coeff-Com:  0.273D-03-0.144D-02-0.151D-01-0.301D-01-0.868D-02 0.294D+00
 Coeff-Com:  0.761D+00
 Coeff:      0.273D-03-0.144D-02-0.151D-01-0.301D-01-0.868D-02 0.294D+00
 Coeff:      0.761D+00
 Gap=     0.384 Goal=   None    Shift=    0.000
 RMSDP=6.03D-05 MaxDP=2.97D-03 DE=-8.66D-06 OVMax= 2.86D-04

 Cycle   8  Pass 1  IDiag  1:
 E= -529.924610839564     Delta-E=       -0.000000803574 Rises=F Damp=F
 DIIS: error= 1.22D-05 at cycle   8 NSaved=   8.
 NSaved= 8 IEnMin= 8 EnMin= -529.924610839564     IErMin= 8 ErrMin= 1.22D-05
 ErrMax= 1.22D-05  0.00D+00 EMaxC= 1.00D-01 BMatC= 2.31D-08 BMatP= 6.35D-07
 IDIUse=1 WtCom= 1.00D+00 WtEn= 0.00D+00
 Coeff-Com:  0.105D-03 0.126D-03-0.129D-02-0.283D-02-0.126D-01-0.244D-01
 Coeff-Com:  0.654D-01 0.975D+00
 Coeff:      0.105D-03 0.126D-03-0.129D-02-0.283D-02-0.126D-01-0.244D-01
 Coeff:      0.654D-01 0.975D+00
 Gap=     0.384 Goal=   None    Shift=    0.000
 RMSDP=1.75D-05 MaxDP=7.75D-04 DE=-8.04D-07 OVMax= 9.50D-05

 Cycle   9  Pass 1  IDiag  1:
 E= -529.924610877151     Delta-E=       -0.000000037588 Rises=F Damp=F
 DIIS: error= 2.51D-06 at cycle   9 NSaved=   9.
 NSaved= 9 IEnMin= 9 EnMin= -529.924610877151     IErMin= 9 ErrMin= 2.51D-06
 ErrMax= 2.51D-06  0.00D+00 EMaxC= 1.00D-01 BMatC= 1.14D-09 BMatP= 2.31D-08
 IDIUse=1 WtCom= 1.00D+00 WtEn= 0.00D+00
 Coeff-Com: -0.983D-06 0.949D-04 0.651D-03 0.139D-02-0.130D-02-0.173D-01
 Coeff-Com: -0.266D-01 0.996D-01 0.943D+00
 Coeff:     -0.983D-06 0.949D-04 0.651D-03 0.139D-02-0.130D-02-0.173D-01
 Coeff:     -0.266D-01 0.996D-01 0.943D+00
 Gap=     0.384 Goal=   None    Shift=    0.000
 RMSDP=2.67D-06 MaxDP=6.32D-05 DE=-3.76D-08 OVMax= 2.63D-05

 Cycle  10  Pass 1  IDiag  1:
 E= -529.924610879068     Delta-E=       -0.000000001917 Rises=F Damp=F
 DIIS: error= 1.82D-06 at cycle  10 NSaved=  10.
 NSaved=10 IEnMin=10 EnMin= -529.924610879068     IErMin=10 ErrMin= 1.82D-06
 ErrMax= 1.82D-06  0.00D+00 EMaxC= 1.00D-01 BMatC= 5.55D-10 BMatP= 1.14D-09
 IDIUse=1 WtCom= 1.00D+00 WtEn= 0.00D+00
 Coeff-Com: -0.114D-04 0.305D-04 0.439D-03 0.974D-03 0.817D-03-0.458D-02
 Coeff-Com: -0.193D-01-0.775D-01 0.486D+00 0.613D+00
 Coeff:     -0.114D-04 0.305D-04 0.439D-03 0.974D-03 0.817D-03-0.458D-02
 Coeff:     -0.193D-01-0.775D-01 0.486D+00 0.613D+00
 Gap=     0.384 Goal=   None    Shift=    0.000
 RMSDP=6.36D-07 MaxDP=1.31D-05 DE=-1.92D-09 OVMax= 8.82D-06

 Cycle  11  Pass 1  IDiag  1:
 E= -529.924610879579     Delta-E=       -0.000000000511 Rises=F Damp=F
 DIIS: error= 6.40D-07 at cycle  11 NSaved=  11.
 NSaved=11 IEnMin=11 EnMin= -529.924610879579     IErMin=11 ErrMin= 6.40D-07
 ErrMax= 6.40D-07  0.00D+00 EMaxC= 1.00D-01 BMatC= 2.74D-11 BMatP= 5.55D-10
 IDIUse=1 WtCom= 1.00D+00 WtEn= 0.00D+00
 Coeff-Com: -0.132D-05-0.267D-05 0.995D-05 0.410D-04 0.205D-03 0.104D-02
 Coeff-Com: -0.957D-03-0.256D-01-0.486D-02 0.117D+00 0.913D+00
 Coeff:     -0.132D-05-0.267D-05 0.995D-05 0.410D-04 0.205D-03 0.104D-02
 Coeff:     -0.957D-03-0.256D-01-0.486D-02 0.117D+00 0.913D+00
 Gap=     0.384 Goal=   None    Shift=    0.000
 RMSDP=2.57D-07 MaxDP=3.86D-06 DE=-5.11D-10 OVMax= 6.42D-06

 Cycle  12  Pass 1  IDiag  1:
 E= -529.924610879643     Delta-E=       -0.000000000064 Rises=F Damp=F
 DIIS: error= 3.48D-07 at cycle  12 NSaved=  12.
 NSaved=12 IEnMin=12 EnMin= -529.924610879643     IErMin=12 ErrMin= 3.48D-07
 ErrMax= 3.48D-07  0.00D+00 EMaxC= 1.00D-01 BMatC= 4.42D-12 BMatP= 2.74D-11
 IDIUse=1 WtCom= 1.00D+00 WtEn= 0.00D+00
 Coeff-Com:  0.114D-05-0.547D-05-0.607D-04-0.126D-03-0.701D-04 0.996D-03
 Coeff-Com:  0.244D-02 0.413D-02-0.752D-01-0.596D-01 0.256D+00 0.872D+00
 Coeff:      0.114D-05-0.547D-05-0.607D-04-0.126D-03-0.701D-04 0.996D-03
 Coeff:      0.244D-02 0.413D-02-0.752D-01-0.596D-01 0.256D+00 0.872D+00
 Gap=     0.384 Goal=   None    Shift=    0.000
 RMSDP=1.10D-07 MaxDP=1.89D-06 DE=-6.43D-11 OVMax= 3.88D-06

 Cycle  13  Pass 1  IDiag  1:
 E= -529.924610879666     Delta-E=       -0.000000000023 Rises=F Damp=F
 DIIS: error= 1.64D-07 at cycle  13 NSaved=  13.
 NSaved=13 IEnMin=13 EnMin= -529.924610879666     IErMin=13 ErrMin= 1.64D-07
 ErrMax= 1.64D-07  0.00D+00 EMaxC= 1.00D-01 BMatC= 5.17D-13 BMatP= 4.42D-12
 IDIUse=1 WtCom= 1.00D+00 WtEn= 0.00D+00
 Coeff-Com: -0.193D-06 0.164D-05 0.161D-04 0.298D-04-0.899D-05-0.448D-03
 Coeff-Com: -0.597D-03 0.294D-02 0.231D-01-0.936D-03-0.218D+00-0.263D+00
 Coeff-Com:  0.146D+01
 Coeff:     -0.193D-06 0.164D-05 0.161D-04 0.298D-04-0.899D-05-0.448D-03
 Coeff:     -0.597D-03 0.294D-02 0.231D-01-0.936D-03-0.218D+00-0.263D+00
 Coeff:      0.146D+01
 Gap=     0.384 Goal=   None    Shift=    0.000
 RMSDP=7.65D-08 MaxDP=1.53D-06 DE=-2.32D-11 OVMax= 2.97D-06

 Cycle  14  Pass 1  IDiag  1:
 E= -529.924610879673     Delta-E=       -0.000000000007 Rises=F Damp=F
 DIIS: error= 3.71D-08 at cycle  14 NSaved=  14.
 NSaved=14 IEnMin=14 EnMin= -529.924610879673     IErMin=14 ErrMin= 3.71D-08
 ErrMax= 3.71D-08  0.00D+00 EMaxC= 1.00D-01 BMatC= 6.85D-14 BMatP= 5.17D-13
 IDIUse=1 WtCom= 1.00D+00 WtEn= 0.00D+00
 Coeff-Com: -0.125D-06 0.867D-06 0.878D-05 0.167D-04 0.820D-05-0.185D-03
 Coeff-Com: -0.325D-03 0.149D-03 0.117D-01 0.515D-02-0.696D-01-0.144D+00
 Coeff-Com:  0.311D+00 0.886D+00
 Coeff:     -0.125D-06 0.867D-06 0.878D-05 0.167D-04 0.820D-05-0.185D-03
 Coeff:     -0.325D-03 0.149D-03 0.117D-01 0.515D-02-0.696D-01-0.144D+00
 Coeff:      0.311D+00 0.886D+00
 Gap=     0.384 Goal=   None    Shift=    0.000
 RMSDP=1.77D-08 MaxDP=5.57D-07 DE=-6.59D-12 OVMax= 6.25D-07

 Cycle  15  Pass 1  IDiag  1:
 E= -529.924610879665     Delta-E=        0.000000000008 Rises=F Damp=F
 DIIS: error= 9.00D-09 at cycle  15 NSaved=  15.
 NSaved=15 IEnMin=14 EnMin= -529.924610879673     IErMin=15 ErrMin= 9.00D-09
 ErrMax= 9.00D-09  0.00D+00 EMaxC= 1.00D-01 BMatC= 1.31D-14 BMatP= 6.85D-14
 IDIUse=1 WtCom= 1.00D+00 WtEn= 0.00D+00
 Coeff-Com: -0.150D-07 0.511D-07 0.384D-06 0.781D-06 0.507D-05 0.717D-05
 Coeff-Com: -0.847D-06-0.377D-03-0.302D-03 0.188D-02 0.164D-01-0.536D-03
 Coeff-Com: -0.156D+00 0.271D+00 0.867D+00
 Coeff:     -0.150D-07 0.511D-07 0.384D-06 0.781D-06 0.507D-05 0.717D-05
 Coeff:     -0.847D-06-0.377D-03-0.302D-03 0.188D-02 0.164D-01-0.536D-03
 Coeff:     -0.156D+00 0.271D+00 0.867D+00
 Gap=     0.384 Goal=   None    Shift=    0.000
 RMSDP=7.41D-09 MaxDP=3.02D-07 DE= 7.96D-12 OVMax= 1.89D-07

 SCF Done:  E(RwB97XD) =  -529.924610880     A.U. after   15 cycles
            NFock= 15  Conv=0.74D-08     -V/T= 2.0052
 KE= 5.271853031747D+02 PE=-2.057783917251D+03 EE= 5.971026989369D+02
 Leave Link  502 at Wed May 26 09:20:54 2021, MaxMem=  2147483648 cpu:        30.8
 (Enter /opt/cluster/programs/g09_d.01/g09/l601.exe)
 Copying SCF densities to generalized density rwf, IOpCl= 0 IROHF=0.

 **********************************************************************

            Population analysis using the SCF density.

 **********************************************************************

 Orbital symmetries:
       Occupied  (A) (A) (A) (A) (A) (A) (A) (A) (A) (A) (A) (A)
                 (A) (A) (A) (A) (A) (A) (A) (A) (A) (A) (A) (A)
                 (A) (A) (A) (A) (A) (A) (A) (A)
       Virtual   (A) (A) (A) (A) (A) (A) (A) (A) (A) (A) (A) (A)
                 (A) (A) (A) (A) (A) (A) (A) (A) (A) (A) (A) (A)
                 (A) (A) (A) (A) (A) (A) (A) (A) (A) (A) (A) (A)
                 (A) (A) (A) (A) (A) (A) (A) (A) (A) (A) (A) (A)
                 (A) (A) (A) (A) (A) (A) (A) (A) (A) (A) (A) (A)
                 (A) (A) (A) (A) (A) (A) (A) (A) (A) (A) (A) (A)
                 (A) (A) (A) (A) (A) (A) (A) (A) (A) (A)
 The electronic state is 1-A.
 Alpha  occ. eigenvalues --  -24.87927 -24.87836 -24.87791 -19.30276 -10.58500
 Alpha  occ. eigenvalues --  -10.43891 -10.36502 -10.32766  -1.42770  -1.34386
 Alpha  occ. eigenvalues --   -1.34060  -1.19562  -0.94949  -0.87953  -0.79146
 Alpha  occ. eigenvalues --   -0.70426  -0.69228  -0.68462  -0.63308  -0.59522
 Alpha  occ. eigenvalues --   -0.59050  -0.56132  -0.56007  -0.55168  -0.53834
 Alpha  occ. eigenvalues --   -0.52880  -0.51745  -0.51288  -0.50572  -0.49107
 Alpha  occ. eigenvalues --   -0.46488  -0.36848
 Alpha virt. eigenvalues --    0.01596   0.05251   0.07884   0.09138   0.09729
 Alpha virt. eigenvalues --    0.10249   0.11820   0.12071   0.12374   0.13184
 Alpha virt. eigenvalues --    0.14445   0.15120   0.16222   0.17208   0.18109
 Alpha virt. eigenvalues --    0.18740   0.19437   0.21100   0.22658   0.24032
 Alpha virt. eigenvalues --    0.24382   0.27184   0.28570   0.30091   0.31714
 Alpha virt. eigenvalues --    0.32794   0.33851   0.35438   0.35818   0.36556
 Alpha virt. eigenvalues --    0.37641   0.38676   0.40009   0.41000   0.42758
 Alpha virt. eigenvalues --    0.43606   0.44734   0.45180   0.45499   0.47089
 Alpha virt. eigenvalues --    0.47877   0.51692   0.52537   0.53275   0.57255
 Alpha virt. eigenvalues --    0.69008   0.71287   0.73615   0.75249   0.78650
 Alpha virt. eigenvalues --    0.83592   0.84788   0.86490   0.88233   0.91362
 Alpha virt. eigenvalues --    0.94483   1.07590   1.09408   1.14501   1.15630
 Alpha virt. eigenvalues --    1.18133   1.21309   1.23191   1.34862   1.39111
 Alpha virt. eigenvalues --    1.44737   1.46520   1.52689   1.57484   1.59683
 Alpha virt. eigenvalues --    1.66314   1.68306   1.69165   1.74383   1.79783
 Alpha virt. eigenvalues --    1.82083   1.84228   1.85834   1.99012   2.30302
 Alpha virt. eigenvalues --    2.33253   2.70396
          Condensed to atoms (all electrons):
               1          2          3          4          5          6
     1  C    8.085238  -0.552484   0.351307   0.359923   0.324474  -1.763189
     2  C   -0.552484   6.688621  -0.069308  -0.035680  -0.004052  -1.166360
     3  H    0.351307  -0.069308   0.489864  -0.021313  -0.025550   0.040721
     4  H    0.359923  -0.035680  -0.021313   0.437364  -0.017236   0.029181
     5  H    0.324474  -0.004052  -0.025550  -0.017236   0.462772   0.017286
     6  C   -1.763189  -1.166360   0.040721   0.029181   0.017286   9.539840
     7  O   -0.113614   0.373114   0.005444  -0.004264   0.000810  -0.170949
     8  C    0.066282   0.101476   0.003119  -0.003794  -0.007046  -0.106859
     9  H   -0.004356   0.021307  -0.000314  -0.000103   0.000167   0.274562
    10  H    0.040129  -0.023074  -0.001208   0.000083  -0.000408   0.338507
    11  F    0.025623  -0.016358  -0.000071   0.000010  -0.000004  -0.103644
    12  F    0.006956   0.027444   0.000030   0.000009  -0.000020  -0.127991
    13  F    0.000742   0.030283   0.000036   0.000002  -0.000032  -0.169675
               7          8          9         10         11         12
     1  C   -0.113614   0.066282  -0.004356   0.040129   0.025623   0.006956
     2  C    0.373114   0.101476   0.021307  -0.023074  -0.016358   0.027444
     3  H    0.005444   0.003119  -0.000314  -0.001208  -0.000071   0.000030
     4  H   -0.004264  -0.003794  -0.000103   0.000083   0.000010   0.000009
     5  H    0.000810  -0.007046   0.000167  -0.000408  -0.000004  -0.000020
     6  C   -0.170949  -0.106859   0.274562   0.338507  -0.103644  -0.127991
     7  O    8.272756   0.019444  -0.000609   0.004599   0.004798  -0.001105
     8  C    0.019444   5.093352   0.008527  -0.058974   0.107420   0.118843
     9  H   -0.000609   0.008527   0.427006  -0.020005  -0.005076  -0.000913
    10  H    0.004599  -0.058974  -0.020005   0.445028   0.007338  -0.001797
    11  F    0.004798   0.107420  -0.005076   0.007338   9.265201  -0.054283
    12  F   -0.001105   0.118843  -0.000913  -0.001797  -0.054283   9.302572
    13  F   -0.005927   0.156973   0.007314  -0.005248  -0.055821  -0.051131
              13
     1  C    0.000742
     2  C    0.030283
     3  H    0.000036
     4  H    0.000002
     5  H   -0.000032
     6  C   -0.169675
     7  O   -0.005927
     8  C    0.156973
     9  H    0.007314
    10  H   -0.005248
    11  F   -0.055821
    12  F   -0.051131
    13  F    9.281506
 Mulliken charges:
               1
     1  C   -0.827029
     2  C    0.625072
     3  H    0.227242
     4  H    0.255816
     5  H    0.248837
     6  C   -0.631431
     7  O   -0.384497
     8  C    0.501237
     9  H    0.292491
    10  H    0.275031
    11  F   -0.175132
    12  F   -0.218615
    13  F   -0.189023
 Sum of Mulliken charges =   0.00000
 Mulliken charges with hydrogens summed into heavy atoms:
               1
     1  C   -0.095135
     2  C    0.625072
     6  C   -0.063908
     7  O   -0.384497
     8  C    0.501237
    11  F   -0.175132
    12  F   -0.218615
    13  F   -0.189023
 Electronic spatial extent (au):  <R**2>=           1008.7160
 Charge=              0.0000 electrons
 Dipole moment (field-independent basis, Debye):
    X=             -3.1990    Y=             -4.2681    Z=             -0.7090  Tot=              5.3808
 Quadrupole moment (field-independent basis, Debye-Ang):
   XX=            -45.5649   YY=            -49.0944   ZZ=            -45.2603
   XY=              5.5475   XZ=             -0.0302   YZ=              0.4418
 Traceless Quadrupole moment (field-independent basis, Debye-Ang):
   XX=              1.0750   YY=             -2.4545   ZZ=              1.3796
   XY=              5.5475   XZ=             -0.0302   YZ=              0.4418
 Octapole moment (field-independent basis, Debye-Ang**2):
  XXX=              1.5211  YYY=             -3.3072  ZZZ=             -1.2116  XYY=              9.1556
  XXY=             -2.6389  XXZ=              1.9588  XZZ=              3.9847  YZZ=             -1.8405
  YYZ=              1.5147  XYZ=              0.5564
 Hexadecapole moment (field-independent basis, Debye-Ang**3):
 XXXX=           -775.8872 YYYY=           -231.8782 ZZZZ=           -127.6912 XXXY=             12.3506
 XXXZ=              1.1370 YYYX=              6.4016 YYYZ=             -1.3732 ZZZX=             -2.6622
 ZZZY=              0.0565 XXYY=           -184.9607 XXZZ=           -156.3909 YYZZ=            -56.4593
 XXYZ=             -0.9199 YYXZ=              1.7117 ZZXY=             -1.3196
 N-N= 4.035713042601D+02 E-N=-2.057783917469D+03  KE= 5.271853031747D+02
 No NMR shielding tensors so no spin-rotation constants.
 Leave Link  601 at Wed May 26 09:20:54 2021, MaxMem=  2147483648 cpu:         0.6
 (Enter /opt/cluster/programs/g09_d.01/g09/l701.exe)
 Compute integral first derivatives.
 ... and contract with generalized density number  0.
 R6Disp: Adding Grimme-D2 dispersion energy 1st derivatives to the gradient.
 Leave Link  701 at Wed May 26 09:20:54 2021, MaxMem=  2147483648 cpu:         0.6
 (Enter /opt/cluster/programs/g09_d.01/g09/l702.exe)
 L702 exits ... SP integral derivatives will be done elsewhere.
 Leave Link  702 at Wed May 26 09:20:54 2021, MaxMem=  2147483648 cpu:         0.2
 (Enter /opt/cluster/programs/g09_d.01/g09/l703.exe)
 Compute integral first derivatives, UseDBF=F ICtDFT=           0.
 Integral derivatives from FoFJK, PRISM(SPDF).
 Calling FoFJK, ICntrl=      2127 FMM=F ISym2X=0 I1Cent= 0 IOpClX= 0 NMat=1 NMatS=1 NMatT=0.
 FoFJK:  IHMeth= 1 ICntrl=    2127 DoSepK=T KAlg= 0 I1Cent=   0 FoldK=F
 IRaf=         1 NMat=   1 IRICut=       1 DoRegI=T DoRafI=F ISym2E= 0.
 FoFCou: FMM=F IPFlag=           0 FMFlag=      100000 FMFlg1=         800
         NFxFlg=           0 DoJE=F BraDBF=F KetDBF=F FulRan=T
         wScrn=  0.000000 ICntrl=    2527 IOpCl=  0 I1Cent=           0 NGrid=           0
         NMat0=    1 NMatS0=      1 NMatT0=    0 NMatD0=    1 NMtDS0=    0 NMtDT0=    0
 Symmetry not used in FoFCou.
 Leave Link  703 at Wed May 26 09:20:56 2021, MaxMem=  2147483648 cpu:         8.3
 (Enter /opt/cluster/programs/g09_d.01/g09/l716.exe)
 Dipole        =-1.25856925D+00-1.67919851D+00-2.78936052D-01
 ***** Axes restored to original set *****
 -------------------------------------------------------------------
 Center     Atomic                   Forces (Hartrees/Bohr)
 Number     Number              X              Y              Z
 -------------------------------------------------------------------
      1        6           0.000111990   -0.000030428   -0.000620625
      2        6          -0.000162630   -0.000082419    0.000647211
      3        1           0.000001776   -0.000001522    0.000011948
      4        1          -0.000003801   -0.000007013   -0.000000081
      5        1          -0.000001274   -0.000010484    0.000006179
      6        6           0.000089354    0.000297452    0.000600492
      7        8           0.000001460    0.000022438   -0.000012868
      8        6          -0.000022394   -0.000206693   -0.000611405
      9        1           0.000000417    0.000008244    0.000009468
     10        1          -0.000001964   -0.000003137    0.000008787
     11        9          -0.000001434    0.000008095   -0.000016641
     12        9          -0.000007275    0.000012758   -0.000007367
     13        9          -0.000004223   -0.000007291   -0.000015100
 -------------------------------------------------------------------
 Cartesian Forces:  Max     0.000647211 RMS     0.000210436
 Leave Link  716 at Wed May 26 09:20:56 2021, MaxMem=  2147483648 cpu:         0.2
 (Enter /opt/cluster/programs/g09_d.01/g09/l103.exe)

 GradGradGradGradGradGradGradGradGradGradGradGradGradGradGradGradGradGrad
 Berny optimization.
 FormGI is forming the generalized inverse of G from B-inverse, IUseBI=4.
 Internal  Forces:  Max     0.000651535 RMS     0.000142177
 Search for a local minimum.
 Step number   1 out of a maximum of   64
 All quantities printed in internal units (Hartrees-Bohrs-Radians)
 RMS Force = .52666D-05 SwitMx=.10000D-02 MixMth= 2
 Mixed Optimization -- En-DIIS/RFO-DIIS
 Second derivative matrix not updated -- first step.
 ITU=  0
     Eigenvalues ---    0.00527   0.00702   0.00719   0.02909   0.05551
     Eigenvalues ---    0.07237   0.07471   0.08077   0.08818   0.09751
     Eigenvalues ---    0.12053   0.16000   0.16000   0.16000   0.22024
     Eigenvalues ---    0.25000   0.25000   0.25000   0.25000   0.25000
     Eigenvalues ---    0.29925   0.31872   0.32009   0.34003   0.34071
     Eigenvalues ---    0.34182   0.34313   0.34750   0.45599   0.47774
     Eigenvalues ---    0.48607   0.906731000.000001000.000001000.00000
     Eigenvalues --- 1000.000001000.000001000.000001000.000001000.00000
     Eigenvalues --- 1000.000001000.000001000.000001000.000001000.00000
     Eigenvalues --- 1000.000001000.000001000.000001000.000001000.00000
     Eigenvalues --- 1000.000001000.000001000.000001000.00000
 RFO step:  Lambda= 0.00000000D+00 EMin= 5.27295115D-03
 Linear search not attempted -- first point.
 Iteration  1 RMS(Cart)=  0.00005925 RMS(Int)=  0.00000000
 Iteration  2 RMS(Cart)=  0.00000000 RMS(Int)=  0.00000000
 Iteration  1 RMS(Cart)=  0.00000000 RMS(Int)=  0.00000000
 ITry= 1 IFail=0 DXMaxC= 1.63D-04 DCOld= 1.00D+10 DXMaxT= 3.00D-01 DXLimC= 3.00D+00 Rises=F
 Variable       Old X    -DE/DX   Delta X   Delta X   Delta X     New X
                                 (Linear)    (Quad)   (Total)
    R1        2.84378   0.00002   0.00000   0.00005   0.00005   2.84383
    R2        2.07024   0.00000   0.00000   0.00000   0.00000   2.07023
    R3        2.06082   0.00000   0.00000   0.00000   0.00000   2.06082
    R4        2.07324   0.00000   0.00000  -0.00001  -0.00001   2.07323
    R5        2.88114   0.00001   0.00000   0.00003   0.00003   2.88116
    R6        2.32624  -0.00002   0.00000  -0.00003  -0.00003   2.32622
    R7        2.84128  -0.00001   0.00000  -0.00003  -0.00003   2.84126
    R8        2.07211  -0.00001   0.00000  -0.00002  -0.00002   2.07209
    R9        2.06805   0.00000   0.00000   0.00000   0.00000   2.06805
   R10        2.61298   0.00000   0.00000   0.00001   0.00001   2.61298
   R11        2.64586   0.00001   0.00000   0.00002   0.00002   2.64589
   R12        2.62180   0.00000   0.00000  -0.00001  -0.00001   2.62180
    A1        1.94282   0.00000   0.00000  -0.00004  -0.00004   1.94278
    A2        1.91563   0.00000   0.00000  -0.00002  -0.00002   1.91560
    A3        1.91180   0.00000   0.00000   0.00004   0.00004   1.91184
    A4        1.91698   0.00000   0.00000  -0.00001  -0.00001   1.91697
    A5        1.87582   0.00000   0.00000   0.00000   0.00000   1.87582
    A6        1.89995   0.00000   0.00000   0.00004   0.00004   1.89999
    A7        2.00924   0.00000   0.00000  -0.00001  -0.00001   2.00923
    A8        2.14057   0.00000   0.00000  -0.00001  -0.00001   2.14056
    A9        2.13337   0.00001   0.00000   0.00002   0.00002   2.13340
   A10        2.01728   0.00001   0.00000   0.00002   0.00002   2.01730
   A11        1.89629   0.00001   0.00000   0.00003   0.00003   1.89632
   A12        1.91490  -0.00001   0.00000   0.00001   0.00001   1.91491
   A13        1.88382  -0.00028   0.00000  -0.00003  -0.00003   1.88379
   A14        1.87856   0.00027   0.00000  -0.00004  -0.00004   1.87852
   A15        1.86729   0.00000   0.00000   0.00001   0.00001   1.86730
   A16        1.98196   0.00000   0.00000  -0.00001  -0.00001   1.98194
   A17        1.91540   0.00000   0.00000   0.00001   0.00001   1.91541
   A18        1.96423   0.00000   0.00000   0.00001   0.00001   1.96424
   A19        1.85635   0.00000   0.00000  -0.00002  -0.00002   1.85633
   A20        1.88218   0.00000   0.00000  -0.00001  -0.00001   1.88216
   A21        1.85650   0.00000   0.00000   0.00003   0.00003   1.85653
    D1       -0.79564   0.00014   0.00000   0.00007   0.00007  -0.79557
    D2        2.34357  -0.00014   0.00000  -0.00009  -0.00009   2.34349
    D3       -2.92170   0.00014   0.00000   0.00013   0.00013  -2.92157
    D4        0.21752  -0.00014   0.00000  -0.00003  -0.00003   0.21749
    D5        1.27641   0.00014   0.00000   0.00007   0.00007   1.27648
    D6       -1.86756  -0.00014   0.00000  -0.00009  -0.00009  -1.86764
    D7       -2.79631  -0.00065   0.00000   0.00000   0.00000  -2.79631
    D8        1.36700  -0.00030   0.00000   0.00001   0.00001   1.36701
    D9       -0.66889  -0.00030   0.00000  -0.00003  -0.00003  -0.66892
   D10        0.34765  -0.00037   0.00000   0.00015   0.00015   0.34780
   D11       -1.77222  -0.00002   0.00000   0.00016   0.00016  -1.77206
   D12        2.47507  -0.00002   0.00000   0.00012   0.00012   2.47519
   D13       -1.17028   0.00013   0.00000   0.00002   0.00002  -1.17026
   D14        3.03805   0.00013   0.00000   0.00005   0.00005   3.03809
   D15        0.97435   0.00013   0.00000   0.00000   0.00000   0.97435
   D16        0.95628  -0.00006   0.00000   0.00005   0.00005   0.95633
   D17       -1.11858  -0.00006   0.00000   0.00007   0.00007  -1.11851
   D18        3.10090  -0.00007   0.00000   0.00003   0.00003   3.10093
   D19        2.96617  -0.00007   0.00000   0.00002   0.00002   2.96619
   D20        0.89131  -0.00007   0.00000   0.00004   0.00004   0.89135
   D21       -1.17239  -0.00007   0.00000   0.00000   0.00000  -1.17239
         Item               Value     Threshold  Converged?
 Maximum Force            0.000024     0.000450     YES
 RMS     Force            0.000005     0.000300     YES
 Maximum Displacement     0.000163     0.001800     YES
 RMS     Displacement     0.000059     0.001200     YES
 Predicted change in Energy=-2.632129D-09
 Optimization completed.
    -- Stationary point found.
                           ----------------------------
                           !   Optimized Parameters   !
                           ! (Angstroms and Degrees)  !
 --------------------------                            --------------------------
 ! Name  Definition              Value          Derivative Info.                !
 --------------------------------------------------------------------------------
 ! R1    R(1,2)                  1.5049         -DE/DX =    0.0                 !
 ! R2    R(1,3)                  1.0955         -DE/DX =    0.0                 !
 ! R3    R(1,4)                  1.0905         -DE/DX =    0.0                 !
 ! R4    R(1,5)                  1.0971         -DE/DX =    0.0                 !
 ! R5    R(2,6)                  1.5246         -DE/DX =    0.0                 !
 ! R6    R(2,7)                  1.231          -DE/DX =    0.0                 !
 ! R7    R(6,8)                  1.5035         -DE/DX =    0.0                 !
 ! R8    R(6,9)                  1.0965         -DE/DX =    0.0                 !
 ! R9    R(6,10)                 1.0944         -DE/DX =    0.0                 !
 ! R10   R(8,11)                 1.3827         -DE/DX =    0.0                 !
 ! R11   R(8,12)                 1.4001         -DE/DX =    0.0                 !
 ! R12   R(8,13)                 1.3874         -DE/DX =    0.0                 !
 ! A1    A(2,1,3)              111.3153         -DE/DX =    0.0                 !
 ! A2    A(2,1,4)              109.7573         -DE/DX =    0.0                 !
 ! A3    A(2,1,5)              109.538          -DE/DX =    0.0                 !
 ! A4    A(3,1,4)              109.8351         -DE/DX =    0.0                 !
 ! A5    A(3,1,5)              107.4766         -DE/DX =    0.0                 !
 ! A6    A(4,1,5)              108.8591         -DE/DX =    0.0                 !
 ! A7    A(1,2,6)              115.121          -DE/DX =    0.0                 !
 ! A8    A(1,2,7)              122.6455         -DE/DX =    0.0                 !
 ! A9    A(6,2,7)              122.2334         -DE/DX =    0.0                 !
 ! A10   A(2,6,8)              115.5814         -DE/DX =    0.0                 !
 ! A11   A(2,6,9)              108.6497         -DE/DX =    0.0                 !
 ! A12   A(2,6,10)             109.7156         -DE/DX =    0.0                 !
 ! A13   A(8,6,9)              107.9352         -DE/DX =   -0.0003              !
 ! A14   A(8,6,10)             107.6336         -DE/DX =    0.0003              !
 ! A15   A(9,6,10)             106.9881         -DE/DX =    0.0                 !
 ! A16   A(6,8,11)             113.5577         -DE/DX =    0.0                 !
 ! A17   A(6,8,12)             109.7444         -DE/DX =    0.0                 !
 ! A18   A(6,8,13)             112.5418         -DE/DX =    0.0                 !
 ! A19   A(11,8,12)            106.3609         -DE/DX =    0.0                 !
 ! A20   A(11,8,13)            107.8408         -DE/DX =    0.0                 !
 ! A21   A(12,8,13)            106.3697         -DE/DX =    0.0                 !
 ! D1    D(3,1,2,6)            -45.5869         -DE/DX =    0.0001              !
 ! D2    D(3,1,2,7)            134.2768         -DE/DX =   -0.0001              !
 ! D3    D(4,1,2,6)           -167.4008         -DE/DX =    0.0001              !
 ! D4    D(4,1,2,7)             12.4629         -DE/DX =   -0.0001              !
 ! D5    D(5,1,2,6)             73.1332         -DE/DX =    0.0001              !
 ! D6    D(5,1,2,7)           -107.0031         -DE/DX =   -0.0001              !
 ! D7    D(1,2,6,8)           -160.2167         -DE/DX =   -0.0007              !
 ! D8    D(1,2,6,9)             78.3235         -DE/DX =   -0.0003              !
 ! D9    D(1,2,6,10)           -38.3248         -DE/DX =   -0.0003              !
 ! D10   D(7,2,6,8)             19.9189         -DE/DX =   -0.0004              !
 ! D11   D(7,2,6,9)           -101.5408         -DE/DX =    0.0                 !
 ! D12   D(7,2,6,10)           141.8109         -DE/DX =    0.0                 !
 ! D13   D(2,6,8,11)           -67.0521         -DE/DX =    0.0001              !
 ! D14   D(2,6,8,12)           174.0672         -DE/DX =    0.0001              !
 ! D15   D(2,6,8,13)            55.8259         -DE/DX =    0.0001              !
 ! D16   D(9,6,8,11)            54.7908         -DE/DX =   -0.0001              !
 ! D17   D(9,6,8,12)           -64.0899         -DE/DX =   -0.0001              !
 ! D18   D(9,6,8,13)           177.6687         -DE/DX =   -0.0001              !
 ! D19   D(10,6,8,11)          169.949          -DE/DX =   -0.0001              !
 ! D20   D(10,6,8,12)           51.0683         -DE/DX =   -0.0001              !
 ! D21   D(10,6,8,13)          -67.173          -DE/DX =   -0.0001              !
 --------------------------------------------------------------------------------
 Lowest energy point so far.  Saving SCF results.
 GradGradGradGradGradGradGradGradGradGradGradGradGradGradGradGradGradGrad

 Largest change from initial coordinates is atom    5       0.000 Angstoms.
 Leave Link  103 at Wed May 26 09:20:56 2021, MaxMem=  2147483648 cpu:         0.1
 (Enter /opt/cluster/programs/g09_d.01/g09/l202.exe)
                          Input orientation:                          
 ---------------------------------------------------------------------
 Center     Atomic      Atomic             Coordinates (Angstroms)
 Number     Number       Type             X           Y           Z
 ---------------------------------------------------------------------
      1          6           0        2.765772    0.663784    0.063522
      2          6           0        1.479361   -0.103422   -0.081945
      3          1           0        2.855203    1.440451   -0.703915
      4          1           0        3.612463   -0.020394   -0.001988
      5          1           0        2.787291    1.162115    1.040692
      6          6           0        0.237939    0.751785   -0.309976
      7          8           0        1.428762   -1.332027   -0.024328
      8          6           0       -1.074456    0.086687   -0.000293
      9          1           0        0.217288    1.066942   -1.360018
     10          1           0        0.299773    1.661198    0.295651
     11          9           0       -1.381109   -0.955711   -0.855458
     12          9           0       -2.115418    1.015213   -0.121129
     13          9           0       -1.131676   -0.398068    1.298404
 ---------------------------------------------------------------------
                    Distance matrix (angstroms):
                    1          2          3          4          5
     1  C    0.000000
     2  C    1.504865   0.000000
     3  H    1.095522   2.159475   0.000000
     4  H    1.090540   2.136214   1.788914   0.000000
     5  H    1.097114   2.138359   1.767975   1.779443   0.000000
     6  C    2.556792   1.524633   2.734871   3.475418   2.914081
     7  O    2.403867   1.230996   3.191114   2.547436   3.033251
     8  C    3.883872   2.562185   4.215445   4.688142   4.141652
     9  H    2.946824   2.143840   2.743825   3.814939   3.518150
    10  H    2.670182   2.155897   2.752832   3.726963   2.644223
    11  F    4.545757   3.083344   4.869384   5.151601   5.045407
    12  F    4.897307   3.765012   5.022702   5.821967   5.040631
    13  F    4.224046   2.968113   4.825416   4.933610   4.225978
                    6          7          8          9         10
     6  C    0.000000
     7  O    2.417008   0.000000
     8  C    1.503542   2.877399   0.000000
     9  H    1.096512   3.001131   2.116212   0.000000
    10  H    1.094367   3.215027   2.110728   1.761018   0.000000
    11  F    2.415452   2.954279   1.382728   2.626895   3.316418
    12  F    2.375573   4.252072   1.400130   2.641787   2.534591
    13  F    2.405181   3.029479   1.387399   3.321621   2.700951
                   11         12         13
    11  F    0.000000
    12  F    2.227777   0.000000
    13  F    2.238818   2.231633   0.000000
 Stoichiometry    C4H5F3O
 Framework group  C1[X(C4H5F3O)]
 Deg. of freedom    33
 Full point group                 C1      NOp   1
 RotChk:  IX=0 Diff= 3.19D-16
 Largest Abelian subgroup         C1      NOp   1
 Largest concise Abelian subgroup C1      NOp   1
                         Standard orientation:                         
 ---------------------------------------------------------------------
 Center     Atomic      Atomic             Coordinates (Angstroms)
 Number     Number       Type             X           Y           Z
 ---------------------------------------------------------------------
      1          6           0       -2.765772   -0.663784    0.063522
      2          6           0       -1.479361    0.103422   -0.081945
      3          1           0       -2.855203   -1.440451   -0.703915
      4          1           0       -3.612463    0.020394   -0.001988
      5          1           0       -2.787291   -1.162115    1.040692
      6          6           0       -0.237939   -0.751785   -0.309976
      7          8           0       -1.428762    1.332027   -0.024328
      8          6           0        1.074456   -0.086687   -0.000293
      9          1           0       -0.217288   -1.066942   -1.360018
     10          1           0       -0.299773   -1.661198    0.295651
     11          9           0        1.381109    0.955711   -0.855458
     12          9           0        2.115418   -1.015213   -0.121129
     13          9           0        1.131676    0.398068    1.298404
 ---------------------------------------------------------------------
 Rotational constants (GHZ):      3.6499937      1.2962899      1.1854826
 Leave Link  202 at Wed May 26 09:20:56 2021, MaxMem=  2147483648 cpu:         0.0
 (Enter /opt/cluster/programs/g09_d.01/g09/l9999.exe)
 1\1\GINC-NODE09\FOpt\RwB97XD\6-31+G\C4H5F3O1\BOITTIER\26-May-2021\0\\#
 p wB97XD/6-31+G Opt=ModRedun\\N.pdb\\0,1\C,2.765772,0.663784,0.063522\
 C,1.479361,-0.103422,-0.081945\H,2.855203,1.440451,-0.703915\H,3.61246
 3,-0.020394,-0.001988\H,2.787291,1.162115,1.040692\C,0.237939,0.751785
 ,-0.309976\O,1.428762,-1.332027,-0.024328\C,-1.074456,0.086687,-0.0002
 93\H,0.217288,1.066942,-1.360018\H,0.299773,1.661198,0.295651\F,-1.381
 109,-0.955711,-0.855458\F,-2.115418,1.015213,-0.121129\F,-1.131676,-0.
 398068,1.298404\\Version=ES64L-G09RevD.01\State=1-A\HF=-529.9246109\RM
 SD=7.412e-09\RMSF=2.104e-04\Dipole=1.2585693,1.6791984,-0.2789361\Quad
 rupole=0.7992074,-1.8248803,1.025673,4.1244405,0.022437,-0.3284734\PG=
 C01 [X(C4H5F3O1)]\\@


 THE MEEK SHALL INHERIT THE EARTH.
 (THE REST OF US WILL ESCAPE TO THE STARS)
 Job cpu time:       0 days  0 hours  0 minutes 49.5 seconds.
 File lengths (MBytes):  RWF=      7 Int=      0 D2E=      0 Chk=      3 Scr=      1
 Normal termination of Gaussian 09 at Wed May 26 09:20:56 2021.
