N.pdb                                                                   
FOpt      RwB97XD                                                     6-31+G              
Number of atoms                            I               13
Info1-9                                    I   N=           9
          24          24           0           0           0         100
           2          18        -802
Charge                                     I                0
Multiplicity                               I                1
Number of electrons                        I               64
Number of alpha electrons                  I               32
Number of beta electrons                   I               32
Number of basis functions                  I              114
Number of independent functions            I              114
Number of point charges in /Mol/           I                0
Number of translation vectors              I                0
Atomic numbers                             I   N=          13
           6           6           1           1           1           6
           8           6           1           1           9           9
           9
Nuclear charges                            R   N=          13
  6.00000000E+00  6.00000000E+00  1.00000000E+00  1.00000000E+00  1.00000000E+00
  6.00000000E+00  8.00000000E+00  6.00000000E+00  1.00000000E+00  1.00000000E+00
  9.00000000E+00  9.00000000E+00  9.00000000E+00
Current cartesian coordinates              R   N=          39
 -5.22655206E+00 -1.25437009E+00  1.20039213E-01 -2.79558765E+00  1.95439278E-01
 -1.54853578E-01 -5.39555207E+00 -2.72205802E+00 -1.33020654E+00 -6.82656624E+00
  3.85388720E-02 -3.75674603E-03 -5.26721702E+00 -2.19607920E+00  1.96662290E+00
 -4.49639969E-01 -1.42066761E+00 -5.85769718E-01 -2.69996953E+00  2.51716626E+00
 -4.59732278E-02  2.03042709E+00 -1.63814399E-01 -5.53660230E-04 -4.10615202E-01
 -2.01622803E+00 -2.57006153E+00 -5.66489199E-01 -3.13920913E+00  5.58699450E-01
  2.60991717E+00  1.80603237E+00 -1.61658131E+00  3.99756028E+00 -1.91847414E+00
 -2.28900607E-01  2.13855717E+00  7.52239798E-01  2.45362800E+00
Force Field                                I                0
Int Atom Types                             I   N=          13
           0           0           0           0           0           0
           0           0           0           0           0           0
           0
MM charges                                 R   N=          13
  0.00000000E+00  0.00000000E+00  0.00000000E+00  0.00000000E+00  0.00000000E+00
  0.00000000E+00  0.00000000E+00  0.00000000E+00  0.00000000E+00  0.00000000E+00
  0.00000000E+00  0.00000000E+00  0.00000000E+00
Integer atomic weights                     I   N=          13
          12          12           1           1           1          12
          16          12           1           1          19          19
          19
Real atomic weights                        R   N=          13
  1.20000000E+01  1.20000000E+01  1.00782504E+00  1.00782504E+00  1.00782504E+00
  1.20000000E+01  1.59949146E+01  1.20000000E+01  1.00782504E+00  1.00782504E+00
  1.89984032E+01  1.89984032E+01  1.89984032E+01
Atom fragment info                         I   N=          13
           0           0           0           0           0           0
           0           0           0           0           0           0
           0
Atom residue num                           I   N=          13
           0           0           0           0           0           0
           0           0           0           0           0           0
           0
Nuclear spins                              I   N=          13
           0           0           1           1           1           0
           0           0           1           1           1           1
           1
Nuclear ZEff                               R   N=          13
 -3.60000000E+00 -3.60000000E+00 -1.00000000E+00 -1.00000000E+00 -1.00000000E+00
 -3.60000000E+00 -5.60000000E+00 -3.60000000E+00 -1.00000000E+00 -1.00000000E+00
 -6.75000000E+00 -6.75000000E+00 -6.75000000E+00
Nuclear ZNuc                               R   N=          13
  6.00000000E+00  6.00000000E+00  1.00000000E+00  1.00000000E+00  1.00000000E+00
  6.00000000E+00  8.00000000E+00  6.00000000E+00  1.00000000E+00  1.00000000E+00
  9.00000000E+00  9.00000000E+00  9.00000000E+00
Nuclear QMom                               R   N=          13
  0.00000000E+00  0.00000000E+00  0.00000000E+00  0.00000000E+00  0.00000000E+00
  0.00000000E+00  0.00000000E+00  0.00000000E+00  0.00000000E+00  0.00000000E+00
  0.00000000E+00  0.00000000E+00  0.00000000E+00
Nuclear GFac                               R   N=          13
  0.00000000E+00  0.00000000E+00  2.79284600E+00  2.79284600E+00  2.79284600E+00
  0.00000000E+00  0.00000000E+00  0.00000000E+00  2.79284600E+00  2.79284600E+00
  2.62886700E+00  2.62886700E+00  2.62886700E+00
MicOpt                                     I   N=          13
          -1          -1          -1          -1          -1          -1
          -1          -1          -1          -1          -1          -1
          -1
Number of contracted shells                I               42
Number of primitive shells                 I              108
Pure/Cartesian d shells                    I                1
Pure/Cartesian f shells                    I                0
Highest angular momentum                   I                1
Largest degree of contraction              I                6
Shell types                                I   N=          42
           0          -1          -1          -1           0          -1
          -1          -1           0           0           0           0
           0           0           0          -1          -1          -1
           0          -1          -1          -1           0          -1
          -1          -1           0           0           0           0
           0          -1          -1          -1           0          -1
          -1          -1           0          -1          -1          -1
Number of primitives per shell             I   N=          42
           6           3           1           1           6           3
           1           1           3           1           3           1
           3           1           6           3           1           1
           6           3           1           1           6           3
           1           1           3           1           3           1
           6           3           1           1           6           3
           1           1           6           3           1           1
Shell to atom map                          I   N=          42
           1           1           1           1           2           2
           2           2           3           3           4           4
           5           5           6           6           6           6
           7           7           7           7           8           8
           8           8           9           9          10          10
          11          11          11          11          12          12
          12          12          13          13          13          13
Primitive exponents                        R   N=         108
  3.04752488E+03  4.57369518E+02  1.03948685E+02  2.92101553E+01  9.28666296E+00
  3.16392696E+00  7.86827235E+00  1.88128854E+00  5.44249258E-01  1.68714478E-01
  4.38000000E-02  3.04752488E+03  4.57369518E+02  1.03948685E+02  2.92101553E+01
  9.28666296E+00  3.16392696E+00  7.86827235E+00  1.88128854E+00  5.44249258E-01
  1.68714478E-01  4.38000000E-02  1.87311370E+01  2.82539436E+00  6.40121692E-01
  1.61277759E-01  1.87311370E+01  2.82539436E+00  6.40121692E-01  1.61277759E-01
  1.87311370E+01  2.82539436E+00  6.40121692E-01  1.61277759E-01  3.04752488E+03
  4.57369518E+02  1.03948685E+02  2.92101553E+01  9.28666296E+00  3.16392696E+00
  7.86827235E+00  1.88128854E+00  5.44249258E-01  1.68714478E-01  4.38000000E-02
  5.48467166E+03  8.25234946E+02  1.88046958E+02  5.29645000E+01  1.68975704E+01
  5.79963534E+00  1.55396162E+01  3.59993359E+00  1.01376175E+00  2.70005823E-01
  8.45000000E-02  3.04752488E+03  4.57369518E+02  1.03948685E+02  2.92101553E+01
  9.28666296E+00  3.16392696E+00  7.86827235E+00  1.88128854E+00  5.44249258E-01
  1.68714478E-01  4.38000000E-02  1.87311370E+01  2.82539436E+00  6.40121692E-01
  1.61277759E-01  1.87311370E+01  2.82539436E+00  6.40121692E-01  1.61277759E-01
  7.00171309E+03  1.05136609E+03  2.39285690E+02  6.73974453E+01  2.15199573E+01
  7.40310130E+00  2.08479528E+01  4.80830834E+00  1.34406986E+00  3.58151393E-01
  1.07600000E-01  7.00171309E+03  1.05136609E+03  2.39285690E+02  6.73974453E+01
  2.15199573E+01  7.40310130E+00  2.08479528E+01  4.80830834E+00  1.34406986E+00
  3.58151393E-01  1.07600000E-01  7.00171309E+03  1.05136609E+03  2.39285690E+02
  6.73974453E+01  2.15199573E+01  7.40310130E+00  2.08479528E+01  4.80830834E+00
  1.34406986E+00  3.58151393E-01  1.07600000E-01
Contraction coefficients                   R   N=         108
  1.83473713E-03  1.40373228E-02  6.88426223E-02  2.32184443E-01  4.67941348E-01
  3.62311985E-01 -1.19332420E-01 -1.60854152E-01  1.14345644E+00  1.00000000E+00
  1.00000000E+00  1.83473713E-03  1.40373228E-02  6.88426223E-02  2.32184443E-01
  4.67941348E-01  3.62311985E-01 -1.19332420E-01 -1.60854152E-01  1.14345644E+00
  1.00000000E+00  1.00000000E+00  3.34946043E-02  2.34726953E-01  8.13757326E-01
  1.00000000E+00  3.34946043E-02  2.34726953E-01  8.13757326E-01  1.00000000E+00
  3.34946043E-02  2.34726953E-01  8.13757326E-01  1.00000000E+00  1.83473713E-03
  1.40373228E-02  6.88426223E-02  2.32184443E-01  4.67941348E-01  3.62311985E-01
 -1.19332420E-01 -1.60854152E-01  1.14345644E+00  1.00000000E+00  1.00000000E+00
  1.83107443E-03  1.39501722E-02  6.84450781E-02  2.32714336E-01  4.70192898E-01
  3.58520853E-01 -1.10777550E-01 -1.48026263E-01  1.13076702E+00  1.00000000E+00
  1.00000000E+00  1.83473713E-03  1.40373228E-02  6.88426223E-02  2.32184443E-01
  4.67941348E-01  3.62311985E-01 -1.19332420E-01 -1.60854152E-01  1.14345644E+00
  1.00000000E+00  1.00000000E+00  3.34946043E-02  2.34726953E-01  8.13757326E-01
  1.00000000E+00  3.34946043E-02  2.34726953E-01  8.13757326E-01  1.00000000E+00
  1.81961690E-03  1.39160796E-02  6.84053245E-02  2.33185760E-01  4.71267439E-01
  3.56618546E-01 -1.08506975E-01 -1.46451658E-01  1.12868858E+00  1.00000000E+00
  1.00000000E+00  1.81961690E-03  1.39160796E-02  6.84053245E-02  2.33185760E-01
  4.71267439E-01  3.56618546E-01 -1.08506975E-01 -1.46451658E-01  1.12868858E+00
  1.00000000E+00  1.00000000E+00  1.81961690E-03  1.39160796E-02  6.84053245E-02
  2.33185760E-01  4.71267439E-01  3.56618546E-01 -1.08506975E-01 -1.46451658E-01
  1.12868858E+00  1.00000000E+00  1.00000000E+00
P(S=P) Contraction coefficients            R   N=         108
  0.00000000E+00  0.00000000E+00  0.00000000E+00  0.00000000E+00  0.00000000E+00
  0.00000000E+00  6.89990666E-02  3.16423961E-01  7.44308291E-01  1.00000000E+00
  1.00000000E+00  0.00000000E+00  0.00000000E+00  0.00000000E+00  0.00000000E+00
  0.00000000E+00  0.00000000E+00  6.89990666E-02  3.16423961E-01  7.44308291E-01
  1.00000000E+00  1.00000000E+00  0.00000000E+00  0.00000000E+00  0.00000000E+00
  0.00000000E+00  0.00000000E+00  0.00000000E+00  0.00000000E+00  0.00000000E+00
  0.00000000E+00  0.00000000E+00  0.00000000E+00  0.00000000E+00  0.00000000E+00
  0.00000000E+00  0.00000000E+00  0.00000000E+00  0.00000000E+00  0.00000000E+00
  6.89990666E-02  3.16423961E-01  7.44308291E-01  1.00000000E+00  1.00000000E+00
  0.00000000E+00  0.00000000E+00  0.00000000E+00  0.00000000E+00  0.00000000E+00
  0.00000000E+00  7.08742682E-02  3.39752839E-01  7.27158577E-01  1.00000000E+00
  1.00000000E+00  0.00000000E+00  0.00000000E+00  0.00000000E+00  0.00000000E+00
  0.00000000E+00  0.00000000E+00  6.89990666E-02  3.16423961E-01  7.44308291E-01
  1.00000000E+00  1.00000000E+00  0.00000000E+00  0.00000000E+00  0.00000000E+00
  0.00000000E+00  0.00000000E+00  0.00000000E+00  0.00000000E+00  0.00000000E+00
  0.00000000E+00  0.00000000E+00  0.00000000E+00  0.00000000E+00  0.00000000E+00
  0.00000000E+00  7.16287242E-02  3.45912103E-01  7.22469956E-01  1.00000000E+00
  1.00000000E+00  0.00000000E+00  0.00000000E+00  0.00000000E+00  0.00000000E+00
  0.00000000E+00  0.00000000E+00  7.16287242E-02  3.45912103E-01  7.22469956E-01
  1.00000000E+00  1.00000000E+00  0.00000000E+00  0.00000000E+00  0.00000000E+00
  0.00000000E+00  0.00000000E+00  0.00000000E+00  7.16287242E-02  3.45912103E-01
  7.22469956E-01  1.00000000E+00  1.00000000E+00
Coordinates of each shell                  R   N=         126
 -5.22655206E+00 -1.25437009E+00  1.20039213E-01 -5.22655206E+00 -1.25437009E+00
  1.20039213E-01 -5.22655206E+00 -1.25437009E+00  1.20039213E-01 -5.22655206E+00
 -1.25437009E+00  1.20039213E-01 -2.79558765E+00  1.95439278E-01 -1.54853578E-01
 -2.79558765E+00  1.95439278E-01 -1.54853578E-01 -2.79558765E+00  1.95439278E-01
 -1.54853578E-01 -2.79558765E+00  1.95439278E-01 -1.54853578E-01 -5.39555207E+00
 -2.72205802E+00 -1.33020654E+00 -5.39555207E+00 -2.72205802E+00 -1.33020654E+00
 -6.82656624E+00  3.85388720E-02 -3.75674603E-03 -6.82656624E+00  3.85388720E-02
 -3.75674603E-03 -5.26721702E+00 -2.19607920E+00  1.96662290E+00 -5.26721702E+00
 -2.19607920E+00  1.96662290E+00 -4.49639969E-01 -1.42066761E+00 -5.85769718E-01
 -4.49639969E-01 -1.42066761E+00 -5.85769718E-01 -4.49639969E-01 -1.42066761E+00
 -5.85769718E-01 -4.49639969E-01 -1.42066761E+00 -5.85769718E-01 -2.69996953E+00
  2.51716626E+00 -4.59732278E-02 -2.69996953E+00  2.51716626E+00 -4.59732278E-02
 -2.69996953E+00  2.51716626E+00 -4.59732278E-02 -2.69996953E+00  2.51716626E+00
 -4.59732278E-02  2.03042709E+00 -1.63814399E-01 -5.53660230E-04  2.03042709E+00
 -1.63814399E-01 -5.53660230E-04  2.03042709E+00 -1.63814399E-01 -5.53660230E-04
  2.03042709E+00 -1.63814399E-01 -5.53660230E-04 -4.10615202E-01 -2.01622803E+00
 -2.57006153E+00 -4.10615202E-01 -2.01622803E+00 -2.57006153E+00 -5.66489199E-01
 -3.13920913E+00  5.58699450E-01 -5.66489199E-01 -3.13920913E+00  5.58699450E-01
  2.60991717E+00  1.80603237E+00 -1.61658131E+00  2.60991717E+00  1.80603237E+00
 -1.61658131E+00  2.60991717E+00  1.80603237E+00 -1.61658131E+00  2.60991717E+00
  1.80603237E+00 -1.61658131E+00  3.99756028E+00 -1.91847414E+00 -2.28900607E-01
  3.99756028E+00 -1.91847414E+00 -2.28900607E-01  3.99756028E+00 -1.91847414E+00
 -2.28900607E-01  3.99756028E+00 -1.91847414E+00 -2.28900607E-01  2.13855717E+00
  7.52239798E-01  2.45362800E+00  2.13855717E+00  7.52239798E-01  2.45362800E+00
  2.13855717E+00  7.52239798E-01  2.45362800E+00  2.13855717E+00  7.52239798E-01
  2.45362800E+00
Constraint Structure                       R   N=          39
 -5.22655206E+00 -1.25437009E+00  1.20039213E-01 -2.79558765E+00  1.95439278E-01
 -1.54853578E-01 -5.39555207E+00 -2.72205802E+00 -1.33020654E+00 -6.82656624E+00
  3.85388720E-02 -3.75674603E-03 -5.26721702E+00 -2.19607920E+00  1.96662290E+00
 -4.49639969E-01 -1.42066761E+00 -5.85769718E-01 -2.69996953E+00  2.51716626E+00
 -4.59732278E-02  2.03042709E+00 -1.63814399E-01 -5.53660230E-04 -4.10615202E-01
 -2.01622803E+00 -2.57006153E+00 -5.66489199E-01 -3.13920913E+00  5.58699450E-01
  2.60991717E+00  1.80603237E+00 -1.61658131E+00  3.99756028E+00 -1.91847414E+00
 -2.28900607E-01  2.13855717E+00  7.52239798E-01  2.45362800E+00
Num ILSW                                   I              100
ILSW                                       I   N=         100
           0           1           0           0           2           0
           0           0           0           0        4639          -1
           0           0           0           0           2           0
           0           0           0           0           1           0
           1           0           0           0           0           0
           0           0      100000           0          -1           0
           0           0           0           0           0           0
           0           0           0           1           0           0
           0           0           1           0           0           0
           0           0         121          41           0           0
           0           0          58           0           0           0
           0           0           0          13           0           0
           0           0           0           0           0           0
           0           0           0           0           0           0
           0           0           0           0           0           0
           0           0           0           0           0           0
           0           0           0           0
Num RLSW                                   I               41
RLSW                                       R   N=          41
  1.00000000E+00  1.00000000E+00  1.00000000E+00  1.00000000E+00  1.00000000E+00
  0.00000000E+00  2.00000000E-01  2.22036000E-01  0.00000000E+00  7.77964000E-01
  0.00000000E+00  2.00000000E-01  0.00000000E+00  0.00000000E+00  1.00000000E+00
  0.00000000E+00  0.00000000E+00  1.00000000E+00  0.00000000E+00  0.00000000E+00
  0.00000000E+00  0.00000000E+00  1.00000000E+00  0.00000000E+00  0.00000000E+00
  0.00000000E+00  0.00000000E+00  1.00000000E+00  0.00000000E+00  0.00000000E+00
  0.00000000E+00  0.00000000E+00  1.00000000E+00  0.00000000E+00  0.00000000E+00
  0.00000000E+00  0.00000000E+00  0.00000000E+00  1.00000000E+00  1.00000000E+00
  0.00000000E+00
MxBond                                     I                4
NBond                                      I   N=          13
           4           3           1           1           1           4
           1           4           1           1           1           1
           1
IBond                                      I   N=          52
           2           3           4           5           1           6
           7           0           1           0           0           0
           1           0           0           0           1           0
           0           0           2           8           9          10
           2           0           0           0           6          11
          12          13           6           0           0           0
           6           0           0           0           8           0
           0           0           8           0           0           0
           8           0           0           0
RBond                                      R   N=          52
  1.00000000E+00  1.00000000E+00  1.00000000E+00  1.00000000E+00  1.00000000E+00
  1.00000000E+00  2.00000000E+00  0.00000000E+00  1.00000000E+00  0.00000000E+00
  0.00000000E+00  0.00000000E+00  1.00000000E+00  0.00000000E+00  0.00000000E+00
  0.00000000E+00  1.00000000E+00  0.00000000E+00  0.00000000E+00  0.00000000E+00
  1.00000000E+00  1.00000000E+00  1.00000000E+00  1.00000000E+00  2.00000000E+00
  0.00000000E+00  0.00000000E+00  0.00000000E+00  1.00000000E+00  1.00000000E+00
  1.00000000E+00  1.00000000E+00  1.00000000E+00  0.00000000E+00  0.00000000E+00
  0.00000000E+00  1.00000000E+00  0.00000000E+00  0.00000000E+00  0.00000000E+00
  1.00000000E+00  0.00000000E+00  0.00000000E+00  0.00000000E+00  1.00000000E+00
  0.00000000E+00  0.00000000E+00  0.00000000E+00  1.00000000E+00  0.00000000E+00
  0.00000000E+00  0.00000000E+00
Virial Ratio                               R      2.005196100286670E+00
SCF Energy                                 R     -5.299246108796647E+02
Total Energy                               R     -5.299246108796647E+02
RMS Force                                  R      2.104362579988194E-04
RMS Density                                R      7.412356993029862E-09
External E-field                           R   N=          35
  0.00000000E+00  0.00000000E+00  0.00000000E+00  0.00000000E+00  0.00000000E+00
  0.00000000E+00  0.00000000E+00  0.00000000E+00  0.00000000E+00  0.00000000E+00
  0.00000000E+00  0.00000000E+00  0.00000000E+00  0.00000000E+00  0.00000000E+00
  0.00000000E+00  0.00000000E+00  0.00000000E+00  0.00000000E+00  0.00000000E+00
  0.00000000E+00  0.00000000E+00  0.00000000E+00  0.00000000E+00  0.00000000E+00
  0.00000000E+00  0.00000000E+00  0.00000000E+00  0.00000000E+00  0.00000000E+00
  0.00000000E+00  0.00000000E+00  0.00000000E+00  0.00000000E+00  0.00000000E+00
IOpCl                                      I                0
IROHF                                      I                0
Alpha Orbital Energies                     R   N=         114
 -2.48792749E+01 -2.48783594E+01 -2.48779148E+01 -1.93027568E+01 -1.05849960E+01
 -1.04389112E+01 -1.03650233E+01 -1.03276551E+01 -1.42770400E+00 -1.34385625E+00
 -1.34059751E+00 -1.19562436E+00 -9.49487240E-01 -8.79534868E-01 -7.91462031E-01
 -7.04259576E-01 -6.92282624E-01 -6.84618360E-01 -6.33082965E-01 -5.95223006E-01
 -5.90497204E-01 -5.61323364E-01 -5.60069060E-01 -5.51683637E-01 -5.38343797E-01
 -5.28804988E-01 -5.17450783E-01 -5.12884578E-01 -5.05722484E-01 -4.91066412E-01
 -4.64877748E-01 -3.68477293E-01  1.59604587E-02  5.25092572E-02  7.88376081E-02
  9.13756854E-02  9.72870428E-02  1.02487076E-01  1.18200222E-01  1.20705462E-01
  1.23744475E-01  1.31839713E-01  1.44446124E-01  1.51196271E-01  1.62222611E-01
  1.72084359E-01  1.81093571E-01  1.87395737E-01  1.94370552E-01  2.10998219E-01
  2.26575751E-01  2.40324101E-01  2.43820690E-01  2.71837314E-01  2.85699963E-01
  3.00909412E-01  3.17135046E-01  3.27939652E-01  3.38512739E-01  3.54381801E-01
  3.58183854E-01  3.65560371E-01  3.76405292E-01  3.86756312E-01  4.00087608E-01
  4.09998536E-01  4.27582676E-01  4.36060507E-01  4.47340159E-01  4.51802843E-01
  4.54994119E-01  4.70890541E-01  4.78770072E-01  5.16920182E-01  5.25368445E-01
  5.32750561E-01  5.72554025E-01  6.90080087E-01  7.12873738E-01  7.36148940E-01
  7.52488186E-01  7.86503737E-01  8.35923976E-01  8.47884250E-01  8.64904840E-01
  8.82334625E-01  9.13622065E-01  9.44828521E-01  1.07590248E+00  1.09407647E+00
  1.14501196E+00  1.15629958E+00  1.18132537E+00  1.21308541E+00  1.23191423E+00
  1.34862191E+00  1.39110786E+00  1.44737460E+00  1.46520138E+00  1.52688593E+00
  1.57483886E+00  1.59682637E+00  1.66313949E+00  1.68305554E+00  1.69165101E+00
  1.74383053E+00  1.79783302E+00  1.82082698E+00  1.84228338E+00  1.85834274E+00
  1.99012342E+00  2.30301946E+00  2.33252963E+00  2.70395697E+00
Alpha MO coefficients                      R   N=       12996
  4.42016283E-06 -6.69327761E-06 -8.59601767E-05 -1.71814913E-05 -2.66530019E-05
 -6.09064227E-04 -1.60007719E-04 -9.13193682E-05  1.60768926E-04  1.34214430E-02
  2.96287587E-03  1.46731185E-03 -5.15837762E-04 -5.43491044E-07  7.41095540E-05
  2.05157882E-04  5.93648357E-05  1.72234173E-05  1.06859023E-03 -3.77341112E-04
 -9.65752566E-04  1.79102325E-04 -6.47954024E-03  6.07290912E-03  2.53896750E-03
 -3.22031758E-04  6.32869165E-05 -1.14169999E-04  3.09473980E-05 -4.40973470E-05
  1.68535316E-05 -2.19146455E-04  7.61450901E-05  3.79869719E-04 -2.37793118E-04
 -1.38379612E-04  2.87855523E-05 -2.66639593E-03 -1.43298972E-04 -2.76580178E-04
 -1.85488714E-03  1.18569370E-02  5.15486542E-03  1.19024785E-03  6.94360066E-04
 -3.70371863E-06 -4.44940964E-06  8.32551800E-05 -2.93358094E-05  5.55680612E-05
  5.63936436E-04 -1.53413129E-04  4.52805313E-05 -2.05109456E-04 -8.25616426E-04
 -2.43397814E-04  1.53467101E-04 -1.55544226E-04 -1.78345552E-04 -8.33484094E-04
  1.73385132E-04  2.89541381E-04  7.03116270E-04  6.79555285E-03  3.28367879E-04
  7.14057547E-04  1.59517782E-03 -2.19948655E-02  5.69026736E-03  1.36536404E-03
  2.96170872E-04 -9.55099956E-05 -9.14511798E-05  2.73426514E-04  8.11449854E-04
  9.11020115E-03  6.38193264E-04 -1.92635397E-05 -1.83221108E-05  4.23908435E-05
 -1.68177875E-03  1.90165562E-04  4.16383971E-04 -8.56425852E-04 -2.67590179E-04
 -5.47951989E-05  1.43750735E-04 -1.13357690E-03  7.55941535E-03  5.00134922E-04
 -2.68271256E-05  2.78148661E-05  2.64749464E-05 -1.34425964E-03  5.50140471E-04
 -6.60277806E-04 -4.61687178E-04 -9.02100640E-04  2.50354380E-04 -6.66908018E-04
 -7.25311752E-04  9.94970095E-01  2.79442447E-02 -8.14716263E-05 -5.30774370E-04
 -1.36862148E-03 -1.65693332E-02  1.64689740E-04  9.96067694E-04  2.73818107E-03
  1.00246712E-02 -4.59750560E-04 -9.42867679E-04 -2.39669660E-03 -6.69482242E-06
 -2.28223048E-05  1.12847570E-04 -1.22617971E-05  2.83328326E-07  1.25364551E-03
  1.50117271E-04  3.73729357E-04 -2.13309087E-04 -3.78151066E-03 -7.12240227E-04
 -6.92322322E-04 -1.92021738E-05  2.79608534E-06  1.56419560E-05 -1.53614135E-04
 -1.44071345E-05 -1.33790230E-05 -5.18040679E-04  1.02111486E-03  1.74589017E-03
  2.30440020E-04 -5.24128085E-03 -4.06618291E-03  2.13278160E-04  5.33458622E-04
  9.50689499E-06 -1.82610776E-04 -6.19103196E-05 -2.02754777E-04 -8.82436123E-07
  7.00582551E-05  7.43783266E-05  2.96474910E-04 -9.03377068E-05 -7.44168842E-05
 -6.21743841E-05 -2.63784415E-03 -2.93741464E-03 -1.86828942E-04  3.81326445E-05
  2.09918197E-02  1.26326632E-03  3.33547232E-03  1.22118450E-03  1.26517837E-05
  1.72332381E-04  8.04299393E-06 -2.39045003E-05  1.23089226E-06 -1.15527185E-03
 -1.78607355E-04  4.26267757E-04  5.05983504E-07  7.85132585E-05  3.44592704E-04
  8.94809851E-05 -2.00252259E-05 -2.23123639E-04 -1.11341178E-03  5.45069606E-04
 -3.90817707E-04 -4.49764953E-05  9.43241249E-03  1.58469518E-03 -1.39971995E-03
 -3.99839841E-04 -1.39080141E-02  2.34506140E-03  2.58962246E-03  7.86354521E-04
  2.96184990E-04 -3.77783443E-04  2.26572023E-04 -6.25216471E-04  1.78907371E-02
  8.11151112E-04  1.35372786E-05 -6.42577823E-05  2.12533118E-05 -1.63961314E-03
 -1.91267047E-04  1.00329276E-03 -4.68408807E-04 -1.62493180E-03 -3.33686989E-04
  1.08825657E-03 -4.02873888E-04  9.94850806E-01  2.79273539E-02 -1.08642030E-03
  9.42064309E-04  1.14676387E-04 -1.65991560E-02  2.26325541E-03 -2.04508647E-03
 -2.31903118E-04  8.62256362E-03 -1.62950625E-03  1.33356167E-03  2.19416237E-04
 -7.67588221E-03  7.20257141E-05  2.09201052E-05 -2.71308889E-05 -1.08110540E-05
 -1.07351894E-03 -3.54751239E-04  5.84177125E-04  7.54029446E-04 -1.94306601E-03
 -3.79451039E-04  8.23246479E-04  1.01125249E-03  2.77820689E-05  2.63960602E-04
  8.83520414E-06 -1.75653909E-05 -5.85753458E-06 -1.09415837E-03 -3.41087821E-04
 -9.25140936E-05  1.92205983E-04  2.17298510E-03  1.32826980E-04  2.50545607E-04
 -1.53534146E-04 -2.54599835E-05 -1.16885327E-04  1.47339297E-04  6.94779494E-05
  2.68433260E-05  2.87383587E-03  2.06595863E-04  2.33038954E-04 -4.52144146E-04
  1.11583446E-02  4.95903487E-03 -3.18356116E-04 -5.18028762E-04  7.17439046E-05
  1.98181329E-04  2.58981542E-05  1.73301883E-04  3.94662406E-05  8.70188279E-05
  9.09471399E-05  4.99285500E-04 -1.64002996E-04 -6.67108007E-05 -1.15240140E-04
 -3.38353940E-03 -7.04196535E-04 -1.75483598E-03  1.06927068E-03 -5.02894262E-04
  4.58769268E-03 -1.09249453E-03 -8.71613601E-05  8.14136907E-06  1.55043893E-04
  9.26214445E-05 -4.98330693E-05 -2.50366653E-05 -4.46221888E-04 -2.41085405E-04
  5.65006591E-04  1.52311510E-04 -2.53517353E-03 -5.08655684E-04  4.66891301E-04
  3.74655090E-04 -1.74762527E-04 -8.16553067E-04  2.71574173E-04  5.96960695E-04
 -4.51984435E-04  7.03753128E-03  2.58927060E-04  1.17777937E-03 -8.26744696E-04
 -1.52693808E-02  4.09780910E-03  5.18096617E-04  1.44704379E-03  2.96305119E-04
  6.73821246E-04 -9.70900277E-05  3.56269149E-06  9.94838414E-01  2.79580149E-02
 -3.38096637E-04 -1.12605698E-03  9.04469310E-04 -1.66272802E-02  7.29068191E-04
  2.15019777E-03 -1.81619314E-03  1.03790171E-02 -1.08956692E-03 -2.02923698E-03
  1.66503458E-03 -1.79117208E-02 -1.95229079E-04 -3.96739046E-06  1.59281272E-05
 -1.38010912E-05 -1.00246231E-03  4.83124122E-04 -7.89455391E-04  1.83286409E-04
 -1.11501559E-03  5.63186455E-05 -8.84702625E-04  3.48689276E-04 -8.92071354E-03
  1.27567988E-04 -7.64890865E-06  1.29989292E-05 -2.94344709E-05 -1.38641950E-03
 -9.12639411E-06 -5.14898195E-05  9.56004870E-04 -6.78131098E-04 -3.62496636E-04
 -4.49750184E-04  1.06533539E-03 -9.26633874E-06 -2.37885583E-04 -9.59914850E-06
 -1.28353110E-04  3.28586541E-06  2.54980543E-03  1.75433611E-03 -1.09474123E-03
 -4.00030542E-04  5.68385570E-03  1.25195100E-03  1.10630845E-03 -1.03059450E-04
  2.50203224E-04  5.26826041E-04 -1.05562160E-04 -1.21910996E-04 -7.71139240E-06
  6.00772043E-03  1.23760097E-03  1.02453972E-02  3.31948466E-04 -2.12635948E-02
 -2.59374275E-03 -2.83139056E-04  1.44413669E-04 -1.35448099E-04 -4.85993763E-04
  1.29839749E-04  1.08954604E-04 -4.04340972E-05 -1.94771645E-04  3.98519015E-05
  8.61053730E-05  1.60590114E-04 -1.50675996E-04 -1.12302951E-04 -7.04274967E-04
 -3.48114561E-03 -1.95025457E-03  7.56805795E-04  1.10953636E-02 -1.21674366E-03
  3.02142236E-03  4.33464914E-04  9.95244594E-01  2.98765336E-02 -2.49349887E-05
 -2.28166135E-03 -1.11156434E-04 -2.38667947E-02 -1.50727385E-04  5.88737326E-03
  3.03843491E-04  7.84759350E-03  5.52973156E-04 -6.95066821E-04  5.96848187E-06
 -6.01052178E-05 -4.16337630E-04 -1.73422315E-05  2.58358462E-05  5.92059259E-05
  4.43172301E-03 -2.33059409E-04 -1.28818490E-03 -1.29491915E-03  1.88485231E-03
 -9.36900312E-04 -9.92553177E-05  1.82692019E-04  2.02187774E-04 -8.70519864E-05
 -1.27199769E-04 -8.32515015E-04  6.14349962E-06  1.73528187E-04 -4.69890840E-05
 -3.65595517E-05  1.38074684E-05 -5.42859569E-04  1.96049831E-04  3.54392943E-04
 -1.30366338E-04 -9.50442604E-04  2.38419216E-04  1.36205154E-04  1.73004671E-04
  8.75554549E-06  1.64095646E-04 -2.55638378E-05  3.69176582E-05 -2.52006447E-05
 -7.60557004E-04  3.71427548E-04 -3.30959899E-04  1.36253607E-04 -1.24078850E-03
  3.24501591E-04 -1.98658633E-04  2.02241907E-05 -2.84470641E-06  4.45809881E-06
 -7.81870547E-05  6.28853627E-06 -4.01731944E-05  3.14329141E-04  2.17899901E-04
  1.14967386E-05  1.63569172E-04 -1.25398297E-03  2.68001907E-04  1.77907398E-04