O.pdb                                                                   
Freq      RwB97XD                                                     6-31+G              
Number of atoms                            I               11
Info1-9                                    I   N=           9
          20          20        1002           0           0         100
           6          18        -802
Charge                                     I                0
Multiplicity                               I                1
Number of electrons                        I               40
Number of alpha electrons                  I               20
Number of beta electrons                   I               20
Number of basis functions                  I               77
Number of independent functions            I               77
Number of point charges in /Mol/           I                0
Number of translation vectors              I                0
Atomic numbers                             I   N=          11
           6           6           1           1           1           8
           8           6           1           1           1
Nuclear charges                            R   N=          11
  6.00000000E+00  6.00000000E+00  1.00000000E+00  1.00000000E+00  1.00000000E+00
  8.00000000E+00  8.00000000E+00  6.00000000E+00  1.00000000E+00  1.00000000E+00
  1.00000000E+00
Current cartesian coordinates              R   N=          33
  3.40889879E+00 -1.01373206E+00  2.60898781E-03  9.14051101E-01  3.19833152E-01
 -7.81742522E-03  3.63875092E+00 -2.05397895E+00  1.77465822E+00  4.92351634E+00
  3.68271642E-01 -1.86390106E-01  3.49620877E+00 -2.38182814E+00 -1.54188183E+00
 -1.05685527E+00 -1.34898890E+00 -9.96412627E-03  5.95532136E-01  2.62543269E+00
 -6.12366587E-04 -3.60993875E+00 -2.94543667E-01  6.38979625E-03 -3.89822279E+00
  8.27902006E-01  1.71265638E+00 -4.85174824E+00 -1.93088467E+00 -2.36676100E-02
 -3.89598678E+00  8.89623214E-01 -1.65785126E+00
Force Field                                I                0
Int Atom Types                             I   N=          11
           0           0           0           0           0           0
           0           0           0           0           0
MM charges                                 R   N=          11
  0.00000000E+00  0.00000000E+00  0.00000000E+00  0.00000000E+00  0.00000000E+00
  0.00000000E+00  0.00000000E+00  0.00000000E+00  0.00000000E+00  0.00000000E+00
  0.00000000E+00
Integer atomic weights                     I   N=          11
          12          12           1           1           1          16
          16          12           1           1           1
Real atomic weights                        R   N=          11
  1.20000000E+01  1.20000000E+01  1.00782504E+00  1.00782504E+00  1.00782504E+00
  1.59949146E+01  1.59949146E+01  1.20000000E+01  1.00782504E+00  1.00782504E+00
  1.00782504E+00
Atom fragment info                         I   N=          11
           0           0           0           0           0           0
           0           0           0           0           0
Atom residue num                           I   N=          11
           0           0           0           0           0           0
           0           0           0           0           0
Nuclear spins                              I   N=          11
           0           0           1           1           1           0
           0           0           1           1           1
Nuclear ZEff                               R   N=          11
 -3.60000000E+00 -3.60000000E+00 -1.00000000E+00 -1.00000000E+00 -1.00000000E+00
 -5.60000000E+00 -5.60000000E+00 -3.60000000E+00 -1.00000000E+00 -1.00000000E+00
 -1.00000000E+00
Nuclear ZNuc                               R   N=          11
  6.00000000E+00  6.00000000E+00  1.00000000E+00  1.00000000E+00  1.00000000E+00
  8.00000000E+00  8.00000000E+00  6.00000000E+00  1.00000000E+00  1.00000000E+00
  1.00000000E+00
Nuclear QMom                               R   N=          11
  0.00000000E+00  0.00000000E+00  0.00000000E+00  0.00000000E+00  0.00000000E+00
  0.00000000E+00  0.00000000E+00  0.00000000E+00  0.00000000E+00  0.00000000E+00
  0.00000000E+00
Nuclear GFac                               R   N=          11
  0.00000000E+00  0.00000000E+00  2.79284600E+00  2.79284600E+00  2.79284600E+00
  0.00000000E+00  0.00000000E+00  0.00000000E+00  2.79284600E+00  2.79284600E+00
  2.79284600E+00
MicOpt                                     I   N=          11
          -1          -1          -1          -1          -1          -1
          -1          -1          -1          -1          -1
Number of contracted shells                I               32
Number of primitive shells                 I               79
Pure/Cartesian d shells                    I                1
Pure/Cartesian f shells                    I                0
Highest angular momentum                   I                1
Largest degree of contraction              I                6
Shell types                                I   N=          32
           0          -1          -1          -1           0          -1
          -1          -1           0           0           0           0
           0           0           0          -1          -1          -1
           0          -1          -1          -1           0          -1
          -1          -1           0           0           0           0
           0           0
Number of primitives per shell             I   N=          32
           6           3           1           1           6           3
           1           1           3           1           3           1
           3           1           6           3           1           1
           6           3           1           1           6           3
           1           1           3           1           3           1
           3           1
Shell to atom map                          I   N=          32
           1           1           1           1           2           2
           2           2           3           3           4           4
           5           5           6           6           6           6
           7           7           7           7           8           8
           8           8           9           9          10          10
          11          11
Primitive exponents                        R   N=          79
  3.04752488E+03  4.57369518E+02  1.03948685E+02  2.92101553E+01  9.28666296E+00
  3.16392696E+00  7.86827235E+00  1.88128854E+00  5.44249258E-01  1.68714478E-01
  4.38000000E-02  3.04752488E+03  4.57369518E+02  1.03948685E+02  2.92101553E+01
  9.28666296E+00  3.16392696E+00  7.86827235E+00  1.88128854E+00  5.44249258E-01
  1.68714478E-01  4.38000000E-02  1.87311370E+01  2.82539436E+00  6.40121692E-01
  1.61277759E-01  1.87311370E+01  2.82539436E+00  6.40121692E-01  1.61277759E-01
  1.87311370E+01  2.82539436E+00  6.40121692E-01  1.61277759E-01  5.48467166E+03
  8.25234946E+02  1.88046958E+02  5.29645000E+01  1.68975704E+01  5.79963534E+00
  1.55396162E+01  3.59993359E+00  1.01376175E+00  2.70005823E-01  8.45000000E-02
  5.48467166E+03  8.25234946E+02  1.88046958E+02  5.29645000E+01  1.68975704E+01
  5.79963534E+00  1.55396162E+01  3.59993359E+00  1.01376175E+00  2.70005823E-01
  8.45000000E-02  3.04752488E+03  4.57369518E+02  1.03948685E+02  2.92101553E+01
  9.28666296E+00  3.16392696E+00  7.86827235E+00  1.88128854E+00  5.44249258E-01
  1.68714478E-01  4.38000000E-02  1.87311370E+01  2.82539436E+00  6.40121692E-01
  1.61277759E-01  1.87311370E+01  2.82539436E+00  6.40121692E-01  1.61277759E-01
  1.87311370E+01  2.82539436E+00  6.40121692E-01  1.61277759E-01
Contraction coefficients                   R   N=          79
  1.83473713E-03  1.40373228E-02  6.88426223E-02  2.32184443E-01  4.67941348E-01
  3.62311985E-01 -1.19332420E-01 -1.60854152E-01  1.14345644E+00  1.00000000E+00
  1.00000000E+00  1.83473713E-03  1.40373228E-02  6.88426223E-02  2.32184443E-01
  4.67941348E-01  3.62311985E-01 -1.19332420E-01 -1.60854152E-01  1.14345644E+00
  1.00000000E+00  1.00000000E+00  3.34946043E-02  2.34726953E-01  8.13757326E-01
  1.00000000E+00  3.34946043E-02  2.34726953E-01  8.13757326E-01  1.00000000E+00
  3.34946043E-02  2.34726953E-01  8.13757326E-01  1.00000000E+00  1.83107443E-03
  1.39501722E-02  6.84450781E-02  2.32714336E-01  4.70192898E-01  3.58520853E-01
 -1.10777550E-01 -1.48026263E-01  1.13076702E+00  1.00000000E+00  1.00000000E+00
  1.83107443E-03  1.39501722E-02  6.84450781E-02  2.32714336E-01  4.70192898E-01
  3.58520853E-01 -1.10777550E-01 -1.48026263E-01  1.13076702E+00  1.00000000E+00
  1.00000000E+00  1.83473713E-03  1.40373228E-02  6.88426223E-02  2.32184443E-01
  4.67941348E-01  3.62311985E-01 -1.19332420E-01 -1.60854152E-01  1.14345644E+00
  1.00000000E+00  1.00000000E+00  3.34946043E-02  2.34726953E-01  8.13757326E-01
  1.00000000E+00  3.34946043E-02  2.34726953E-01  8.13757326E-01  1.00000000E+00
  3.34946043E-02  2.34726953E-01  8.13757326E-01  1.00000000E+00
P(S=P) Contraction coefficients            R   N=          79
  0.00000000E+00  0.00000000E+00  0.00000000E+00  0.00000000E+00  0.00000000E+00
  0.00000000E+00  6.89990666E-02  3.16423961E-01  7.44308291E-01  1.00000000E+00
  1.00000000E+00  0.00000000E+00  0.00000000E+00  0.00000000E+00  0.00000000E+00
  0.00000000E+00  0.00000000E+00  6.89990666E-02  3.16423961E-01  7.44308291E-01
  1.00000000E+00  1.00000000E+00  0.00000000E+00  0.00000000E+00  0.00000000E+00
  0.00000000E+00  0.00000000E+00  0.00000000E+00  0.00000000E+00  0.00000000E+00
  0.00000000E+00  0.00000000E+00  0.00000000E+00  0.00000000E+00  0.00000000E+00
  0.00000000E+00  0.00000000E+00  0.00000000E+00  0.00000000E+00  0.00000000E+00
  7.08742682E-02  3.39752839E-01  7.27158577E-01  1.00000000E+00  1.00000000E+00
  0.00000000E+00  0.00000000E+00  0.00000000E+00  0.00000000E+00  0.00000000E+00
  0.00000000E+00  7.08742682E-02  3.39752839E-01  7.27158577E-01  1.00000000E+00
  1.00000000E+00  0.00000000E+00  0.00000000E+00  0.00000000E+00  0.00000000E+00
  0.00000000E+00  0.00000000E+00  6.89990666E-02  3.16423961E-01  7.44308291E-01
  1.00000000E+00  1.00000000E+00  0.00000000E+00  0.00000000E+00  0.00000000E+00
  0.00000000E+00  0.00000000E+00  0.00000000E+00  0.00000000E+00  0.00000000E+00
  0.00000000E+00  0.00000000E+00  0.00000000E+00  0.00000000E+00
Coordinates of each shell                  R   N=          96
  3.40889879E+00 -1.01373206E+00  2.60898781E-03  3.40889879E+00 -1.01373206E+00
  2.60898781E-03  3.40889879E+00 -1.01373206E+00  2.60898781E-03  3.40889879E+00
 -1.01373206E+00  2.60898781E-03  9.14051101E-01  3.19833152E-01 -7.81742522E-03
  9.14051101E-01  3.19833152E-01 -7.81742522E-03  9.14051101E-01  3.19833152E-01
 -7.81742522E-03  9.14051101E-01  3.19833152E-01 -7.81742522E-03  3.63875092E+00
 -2.05397895E+00  1.77465822E+00  3.63875092E+00 -2.05397895E+00  1.77465822E+00
  4.92351634E+00  3.68271642E-01 -1.86390106E-01  4.92351634E+00  3.68271642E-01
 -1.86390106E-01  3.49620877E+00 -2.38182814E+00 -1.54188183E+00  3.49620877E+00
 -2.38182814E+00 -1.54188183E+00 -1.05685527E+00 -1.34898890E+00 -9.96412627E-03
 -1.05685527E+00 -1.34898890E+00 -9.96412627E-03 -1.05685527E+00 -1.34898890E+00
 -9.96412627E-03 -1.05685527E+00 -1.34898890E+00 -9.96412627E-03  5.95532136E-01
  2.62543269E+00 -6.12366587E-04  5.95532136E-01  2.62543269E+00 -6.12366587E-04
  5.95532136E-01  2.62543269E+00 -6.12366587E-04  5.95532136E-01  2.62543269E+00
 -6.12366587E-04 -3.60993875E+00 -2.94543667E-01  6.38979625E-03 -3.60993875E+00
 -2.94543667E-01  6.38979625E-03 -3.60993875E+00 -2.94543667E-01  6.38979625E-03
 -3.60993875E+00 -2.94543667E-01  6.38979625E-03 -3.89822279E+00  8.27902006E-01
  1.71265638E+00 -3.89822279E+00  8.27902006E-01  1.71265638E+00 -4.85174824E+00
 -1.93088467E+00 -2.36676100E-02 -4.85174824E+00 -1.93088467E+00 -2.36676100E-02
 -3.89598678E+00  8.89623214E-01 -1.65785126E+00 -3.89598678E+00  8.89623214E-01
 -1.65785126E+00
Constraint Structure                       R   N=          33
  3.40889879E+00 -1.01373206E+00  2.60898781E-03  9.14051101E-01  3.19833152E-01
 -7.81742522E-03  3.63875092E+00 -2.05397895E+00  1.77465822E+00  4.92351634E+00
  3.68271642E-01 -1.86390106E-01  3.49620877E+00 -2.38182814E+00 -1.54188183E+00
 -1.05685527E+00 -1.34898890E+00 -9.96412627E-03  5.95532136E-01  2.62543269E+00
 -6.12366587E-04 -3.60993875E+00 -2.94543667E-01  6.38979625E-03 -3.89822279E+00
  8.27902006E-01  1.71265638E+00 -4.85174824E+00 -1.93088467E+00 -2.36676100E-02
 -3.89598678E+00  8.89623214E-01 -1.65785126E+00
Num ILSW                                   I              100
ILSW                                       I   N=         100
           0           1           0           1           2           0
           0           0           0           0        4639          -1
           0           0           0           0           2           0
           0           0           0           0           1           0
           1           0           0           0           0           0
           0           0      100000           0          -1           0
           0           0           0           0           0           0
           0           0           0           1           0           0
           0           0           1           0           0           0
           0           0         121          41           0           0
           0           0          58           0           0           0
           0           0           0          11           0           0
           0           0           0           0           0           0
           0           0           0           0           0           0
           0           0           0           0           0           0
           0           0           0           0           0           0
           0           0           0           0
Num RLSW                                   I               41
RLSW                                       R   N=          41
  1.00000000E+00  1.00000000E+00  1.00000000E+00  1.00000000E+00  1.00000000E+00
  0.00000000E+00  2.00000000E-01  2.22036000E-01  0.00000000E+00  7.77964000E-01
  0.00000000E+00  2.00000000E-01  0.00000000E+00  0.00000000E+00  1.00000000E+00
  0.00000000E+00  0.00000000E+00  1.00000000E+00  0.00000000E+00  0.00000000E+00
  0.00000000E+00  0.00000000E+00  1.00000000E+00  0.00000000E+00  0.00000000E+00
  0.00000000E+00  0.00000000E+00  1.00000000E+00  0.00000000E+00  0.00000000E+00
  0.00000000E+00  0.00000000E+00  1.00000000E+00  0.00000000E+00  0.00000000E+00
  0.00000000E+00  0.00000000E+00  0.00000000E+00  1.00000000E+00  1.00000000E+00
  0.00000000E+00
MxBond                                     I                4
NBond                                      I   N=          11
           4           3           1           1           1           2
           1           4           1           1           1
IBond                                      I   N=          44
           2           3           4           5           1           6
           7           0           1           0           0           0
           1           0           0           0           1           0
           0           0           2           8           0           0
           2           0           0           0           6           9
          10          11           8           0           0           0
           8           0           0           0           8           0
           0           0
RBond                                      R   N=          44
  1.00000000E+00  1.00000000E+00  1.00000000E+00  1.00000000E+00  1.00000000E+00
  1.00000000E+00  2.00000000E+00  0.00000000E+00  1.00000000E+00  0.00000000E+00
  0.00000000E+00  0.00000000E+00  1.00000000E+00  0.00000000E+00  0.00000000E+00
  0.00000000E+00  1.00000000E+00  0.00000000E+00  0.00000000E+00  0.00000000E+00
  1.00000000E+00  1.00000000E+00  0.00000000E+00  0.00000000E+00  2.00000000E+00
  0.00000000E+00  0.00000000E+00  0.00000000E+00  1.00000000E+00  1.00000000E+00
  1.00000000E+00  1.00000000E+00  1.00000000E+00  0.00000000E+00  0.00000000E+00
  0.00000000E+00  1.00000000E+00  0.00000000E+00  0.00000000E+00  0.00000000E+00
  1.00000000E+00  0.00000000E+00  0.00000000E+00  0.00000000E+00
Virial Ratio                               R      2.005746052883889E+00
SCF Energy                                 R     -2.682217251865666E+02
Total Energy                               R     -2.682217251865666E+02
RMS Force                                  R      1.221158141463627E-05
RMS Density                                R      2.316798842600284E-09
External E-field                           R   N=          35
  0.00000000E+00  0.00000000E+00  0.00000000E+00  0.00000000E+00  0.00000000E+00
  0.00000000E+00  0.00000000E+00  0.00000000E+00  0.00000000E+00  0.00000000E+00
  0.00000000E+00  0.00000000E+00  0.00000000E+00  0.00000000E+00  0.00000000E+00
  0.00000000E+00  0.00000000E+00  0.00000000E+00  0.00000000E+00  0.00000000E+00
  0.00000000E+00  0.00000000E+00  0.00000000E+00  0.00000000E+00  0.00000000E+00
  0.00000000E+00  0.00000000E+00  0.00000000E+00  0.00000000E+00  0.00000000E+00
  0.00000000E+00  0.00000000E+00  0.00000000E+00  0.00000000E+00  0.00000000E+00
IOpCl                                      I                0
IROHF                                      I                0
Alpha Orbital Energies                     R   N=          77
 -1.93262833E+01 -1.92759678E+01 -1.04499414E+01 -1.03556101E+01 -1.03101050E+01
 -1.22459944E+00 -1.13514107E+00 -8.81355681E-01 -8.13347350E-01 -6.65369733E-01
 -5.96548237E-01 -5.85776606E-01 -5.68761358E-01 -5.28876944E-01 -5.15792102E-01
 -4.94569652E-01 -4.62349144E-01 -4.43312709E-01 -3.91722787E-01 -3.67517385E-01
  6.39765397E-02  7.23609573E-02  7.89060019E-02  1.00645357E-01  1.02485761E-01
  1.11852871E-01  1.27204114E-01  1.34294095E-01  1.51618473E-01  1.59401259E-01
  1.67542948E-01  1.99247071E-01  2.05725553E-01  2.32011563E-01  2.52464229E-01
  2.59723432E-01  2.66511105E-01  2.74464548E-01  3.03264834E-01  3.14922566E-01
  3.33361261E-01  3.44211748E-01  3.62308579E-01  3.66693568E-01  3.68550834E-01
  4.06945224E-01  4.20647489E-01  4.27737161E-01  4.39195838E-01  4.67536338E-01
  5.58770012E-01  7.38474983E-01  7.39082289E-01  7.59624021E-01  7.72971740E-01
  7.98506279E-01  8.17592342E-01  8.18888419E-01  9.17657296E-01  9.58271064E-01
  1.06404270E+00  1.10081218E+00  1.13485066E+00  1.15305138E+00  1.18411221E+00
  1.21723435E+00  1.26180847E+00  1.26562881E+00  1.28501552E+00  1.37012809E+00
  1.39722399E+00  1.46580433E+00  1.48643311E+00  1.57407927E+00  1.67517849E+00
  1.99066500E+00  2.00687674E+00
Alpha MO coefficients                      R   N=        5929
 -2.63302463E-05 -3.52881948E-04  6.25108240E-05 -4.28287722E-05  8.71360211E-07
  1.92312210E-03  2.63582357E-04  1.51229485E-03 -1.91828202E-05  1.85612977E-02
 -4.59025658E-03  1.22735606E-03 -2.81759484E-05  8.81721422E-05  3.43809496E-04
 -3.91299450E-04 -1.55427750E-04 -4.89147104E-07  3.83283225E-03 -4.87265330E-03
 -1.79422880E-03  8.53268673E-06 -2.18243764E-02 -4.00106408E-03  5.55302129E-03
 -6.97173836E-06  6.54614748E-05 -3.84108110E-04 -1.76062871E-04 -7.49787301E-04
  8.66477993E-05 -3.63112673E-04  9.95238892E-01  2.99108641E-02 -1.25008701E-04
  1.93565813E-03  1.37272551E-05 -2.18114140E-02 -2.35581344E-04 -4.14232598E-03
 -2.67759114E-05  9.49742882E-03  1.01274134E-03  1.26598403E-03  1.02295197E-05
 -3.14945116E-04 -8.58042927E-05 -5.96919700E-05  7.06395106E-05  3.72494785E-07
 -3.10162916E-04  1.05980137E-03  6.60964177E-04  1.27328602E-06 -1.53114372E-03
  1.03267432E-03  1.82353514E-04 -1.79612344E-05 -3.71893775E-05 -2.18451836E-04
  7.09748083E-04 -2.07712879E-04 -3.28325372E-06  4.69894064E-03  1.43600348E-03
 -3.15865475E-04 -1.18616986E-05  7.84134432E-04 -2.70529602E-04  5.11482484E-05
  6.21514305E-06 -3.23357447E-04 -1.31463566E-03 -2.46277231E-04 -1.01263038E-03
 -3.26244987E-04 -1.32390605E-03 -7.16189762E-06 -1.79246174E-04 -1.67628037E-05
 -9.25794884E-05  1.07477455E-06  2.81487848E-03 -2.02975239E-03 -1.18530187E-03
 -4.67914069E-05 -4.81072620E-03  1.47360398E-03  4.26772571E-04  2.12094251E-05
  2.36645478E-04  3.76756023E-04  1.70620578E-04 -5.69152428E-05 -3.35901635E-06
  7.11890790E-03 -2.91795052E-03  1.02553547E-02  4.90693087E-05 -2.05906867E-03
  3.22736987E-03 -3.77686934E-03 -1.76480433E-05 -1.17734137E-04 -1.15855196E-04
  1.47750356E-04  3.66195917E-04 -1.75718301E-04 -2.10490881E-04  3.32453220E-04
 -1.18050995E-04 -2.62498769E-04  7.98861869E-06 -5.00282654E-07  5.00903097E-04
  1.75468362E-03 -1.26762188E-03 -2.58445298E-06 -1.93430108E-03  1.11164738E-03
 -4.24558437E-04 -4.40308133E-05  9.95239470E-01  2.98516608E-02  1.97612020E-04
 -2.27772274E-03 -4.42785595E-06 -2.38641248E-02 -3.94295408E-04  5.99761583E-03
  8.42640533E-06  6.69634214E-03 -3.74994049E-04 -1.31354968E-04  1.51174844E-05
 -1.37188184E-05 -1.42748049E-04  1.24933326E-04 -1.39643841E-04 -5.36553225E-06
  2.14747415E-03  2.23455557E-04 -7.70087094E-04  1.00619816E-05  4.19363970E-03
  1.39787235E-03  5.56426382E-04  8.45020633E-06 -3.01216156E-06 -4.07552203E-04
 -1.89976882E-04 -4.34075839E-04 -9.28851919E-06 -3.84531343E-04  7.41390945E-04
 -8.01643749E-04  1.92447898E-04 -2.99500784E-04  4.05422764E-05  6.48139412E-03
 -1.74931456E-03  2.26619046E-03 -3.07509626E-04  1.44839633E-02 -3.05887358E-03
  4.75404976E-04 -1.75844086E-04  9.95573278E-01  3.71188419E-02 -1.18825523E-03
  5.41508913E-04  2.17949308E-06 -3.63703659E-02  3.11946637E-04  2.58664861E-04
  7.01498370E-05 -2.53426985E-02 -1.23459166E-03  5.41452672E-03  1.10236331E-04
 -1.45925764E-04 -1.49505330E-04 -1.33578800E-04 -1.86487838E-03 -1.12670284E-04
 -6.40419334E-04  3.99527986E-05  4.68726719E-04 -1.73497805E-04 -2.08559494E-04
  3.47987748E-07 -2.36087391E-04 -2.12202876E-04  2.30128979E-05 -7.96770657E-06
  1.28698830E-02  6.43846667E-03  4.49482892E-03 -4.92028230E-05 -1.32110934E-04
  1.32727803E-05 -1.26549316E-04  5.16031170E-04  3.51857002E-06  8.99722034E-04
  4.63697578E-04 -1.63582655E-06 -1.39732739E-05  9.36807091E-03  1.12676856E-03
 -5.34361263E-03 -4.95237519E-05 -5.64155612E-05 -3.05310440E-04  1.09510495E-04
  3.37026616E-05 -7.78339808E-06  7.63491852E-04 -7.17518021E-04  4.26728575E-04
  5.93170092E-05  6.39942729E-03  2.12361255E-03 -1.00656601E-03 -2.56188257E-06
  3.19422167E-05 -1.96490715E-03 -1.96928149E-05  3.32173666E-04  2.89922973E-05
 -1.90936293E-03 -2.58628626E-04 -8.19716410E-04 -2.70153395E-06  1.05172251E-04
 -2.22659884E-05  5.75787430E-03 -3.05313381E-03 -7.68385813E-06  1.69873371E-04
  2.02802431E-03 -1.77175924E-03 -1.06441650E-04  1.05867602E-04 -1.26527125E-05
 -1.46505137E-04  1.81190364E-04 -1.74620071E-04  2.72687285E-06 -1.43222783E-03
 -2.91117049E-03  3.96104840E-03 -5.87682020E-05  1.38714881E-03  1.65598935E-03
 -1.75343792E-03 -1.00172119E-04 -1.71513950E-04 -7.87444102E-04 -8.61885222E-05
  4.67917645E-04 -1.99337983E-04 -5.15658167E-04  4.32267520E-05  3.25267747E-04
 -5.30341694E-06 -2.51688145E-06 -2.04525440E-06  1.68911080E-03  1.77083643E-04
  8.65947798E-06  1.74904192E-05  1.55587338E-02 -9.35881114E-03  4.33405132E-03
  5.00624254E-05  1.32064527E-05  1.91188262E-05  8.80928121E-05  1.02862751E-04
 -1.54863758E-06 -1.71450063E-03  2.48924037E-04  2.74352226E-04  1.29077455E-05
 -2.20476384E-03 -5.11240283E-04  2.37868323E-03  4.94128648E-05  9.95569277E-01
  3.75240088E-02  1.27133326E-03 -4.50389464E-04 -8.19172961E-06 -3.67294200E-02
 -3.90285407E-03  1.03989977E-03  2.06597581E-05 -9.13072463E-03 -3.12926041E-03
  1.20076951E-03  2.68390991E-05 -4.63816231E-04  5.54754019E-03 -4.52319407E-04
  4.73582526E-03 -4.58634615E-04  5.53725457E-03  9.95494797E-01  3.77990425E-02
 -5.06871286E-04 -5.16043586E-05  5.61572045E-05 -3.96813881E-02  4.23245101E-03
 -1.11865263E-03 -2.14339747E-04 -3.54503553E-02  7.11954285E-03 -4.48089309E-03
  7.05471686E-05 -7.44711841E-04 -9.26750453E-04 -6.61429926E-04  3.52521329E-04
  1.77077686E-05  8.07768093E-03  7.53695251E-03 -2.48021970E-03 -2.09158212E-05
  2.45175638E-02  1.42986581E-02 -2.91770411E-03 -2.35996869E-04 -5.11762141E-04
  8.22005315E-03 -5.61727612E-04  7.03009910E-03 -4.97408234E-04  7.96499723E-03
 -6.07275502E-06 -2.55769991E-04 -2.37785922E-04 -2.37819170E-05 -1.54055013E-06
  1.33160575E-04  1.34699981E-03  3.73105673E-04 -2.90245860E-06 -7.28806619E-04
  4.35987478E-03 -1.36078337E-03  1.69522729E-04  1.71549196E-06 -1.09511861E-04
 -3.83672664E-05  8.97866667E-05  3.90332074E-06 -1.20322773E-04 -7.15607850E-04
 -1.35660739E-04 -2.70389806E-05  1.73391496E-03 -1.30590205E-03 -1.33610915E-03
  1.60927012E-04  5.70662261E-05 -8.12646736E-04 -1.03266860E-05  5.34694750E-06
  1.68257006E-05  4.12209273E-03  1.84948007E-03 -5.46173771E-04 -1.05521816E-04
  8.08573956E-03  2.49959156E-03  3.18429580E-04  9.06981013E-08 -1.53872789E-04
  1.83923647E-04 -1.82353551E-04  4.69320011E-04 -1.83172290E-04  1.76784672E-04
 -1.69562138E-02  3.09554487E-02 -2.22574030E-02  1.09787430E-02 -6.78086946E-05
  5.85996201E-03  1.11000612E-03 -5.83948238E-03  7.21401780E-04 -4.26121623E-02
  1.29008176E-02 -2.87332185E-03  1.64990093E-04 -1.18478941E-01  2.42693083E-01
 -9.16015729E-02  4.77462615E-02  4.32410311E-04  3.04873655E-02  3.84966586E-02
 -3.12852978E-02 -1.78939608E-04  1.01175476E-01 -1.19218944E-02 -1.21516018E-02
  2.10405816E-04  4.55870637E-03 -2.21078148E-03  4.91392580E-03  1.46151225E-03
  4.66471103E-03 -1.36818434E-03 -1.51570745E-01  3.25268925E-01  2.02961758E-02
  1.02500788E-01  5.54690368E-04  3.57983183E-01  3.69751684E-03  6.91720140E-02
  3.86980951E-04 -4.01346651E-02 -2.05556536E-02 -1.41448438E-02 -1.05285514E-04
 -1.11090957E-01  2.41723060E-01  4.69247911E-03 -1.16217165E-01 -3.08620111E-04
  2.40373195E-01 -3.17953623E-03 -5.06837003E-02 -9.69254020E-05  1.31096785E-03
 -5.86687427E-03 -4.86748802E-03 -9.80743193E-05 -4.11473690E-02  7.62343353E-02
  5.60570716E-02 -1.59399877E-02 -3.31075698E-04  2.10257309E-02 -5.28639745E-03
  9.42430753E-03  1.62845431E-04 -3.62475024E-02 -9.34678938E-03 -1.83114174E-03
  1.35487003E-05  1.22524793E-02  2.07650495E-03  1.16514146E-02  3.72973989E-03
  1.23392476E-02  2.10682327E-03 -4.78286602E-03  9.21822150E-03 -1.05578182E-03
  1.42853579E-02 -8.88439407E-06 -3.58268934E-04  1.33974610E-02  1.67083011E-02
  5.59773248E-04  1.82025688E-01 -4.36459108E-02  1.58207735E-02 -1.33741001E-04
 -4.62644231E-02  9.69339936E-02  4.73524047E-02  2.27443302E-01  6.44787397E-04
  2.97252421E-02 -1.96555229E-02 -7.62234679E-02 -3.22687856E-04 -1.28008760E-01
 -7.99662741E-02  3.56072264E-02 -1.60061607E-04  9.69064511E-04 -2.43084633E-03
  3.56871987E-03 -6.59776541E-03  6.27514306E-04 -9.25701044E-04  1.35954548E-01
 -2.93617002E-01  1.12458260E-02 -5.90607930E-02 -4.60856951E-04 -3.51794062E-01
  2.94362064E-03 -4.75275468E-02 -4.09908702E-04 -1.05445506E-02 -2.84328388E-02
  4.98846905E-04  4.32042963E-04 -1.59707618E-01  3.51259995E-01  2.72984232E-02
 -1.39101059E-01 -4.25302980E-04  3.59868379E-01  1.06251570E-02 -5.77240329E-02
 -7.15061040E-05  1.28336690E-02  1.85635754E-02 -1.12744865E-02 -2.63389806E-04
  4.29722051E-02 -8.56311618E-02 -5.49545553E-02  2.31928696E-02  3.61778673E-04
 -2.83195020E-02  1.34284104E-02  4.93744032E-03 -1.58486635E-04 -4.86947635E-02
 -1.99992850E-02  2.71803245E-04  6.64008372E-05 -1.41916566E-02 -2.85068745E-03
 -1.42270422E-02 -6.02459177E-04 -1.41178502E-02 -3.04392184E-03 -1.47130633E-01
  2.76428098E-01 -5.68597526E-02  1.46521875E-02  8.78358021E-04  2.79265309E-01
 -1.52244312E-02 -1.66782719E-03  8.01713918E-04  3.54739938E-02 -8.63219882E-03
  9.53085225E-03 -1.65397092E-04 -8.36831487E-02  1.77973897E-01  9.17997947E-02
 -1.59375774E-01  3.96413682E-04  1.35106221E-01  1.08205615E-02 -7.17422403E-03
  4.43905719E-04  1.97530163E-02 -1.18786279E-02 -1.93404557E-02  6.73372522E-04
  8.65893200E-02  3.95427548E-03  7.90169043E-02  3.40518315E-03  8.65795718E-02
  4.38101871E-03  7.23979079E-03 -1.55563342E-02  1.87566605E-01 -3.03008415E-03
 -3.70008221E-04 -2.21022616E-02  8.11500376E-02 -6.18054347E-03 -3.06031745E-04
  9.70307937E-03 -3.23064379E-02  4.88995872E-03 -3.71552188E-04  4.46839794E-02
 -1.01308104E-01  2.35741917E-02  5.17982896E-03  2.23125637E-04 -1.15970252E-01
  1.07021230E-02  4.06065808E-03  1.51418505E-05 -2.31601652E-02 -4.81612668E-03
  1.72293492E-02 -3.24833280E-04  9.51319345E-02 -1.83363105E-01 -3.26614040E-02
  1.93133139E-02  2.65563193E-04 -1.81132771E-01 -4.61791110E-03 -4.13558910E-03
  2.34131283E-04 -5.03475204E-02 -1.82332622E-02  5.40427582E-03  4.33422320E-05
 -5.34349601E-02 -1.32086255E-03 -5.76550487E-02 -1.12777434E-02 -5.33879504E-02
 -1.12612170E-03 -1.17067831E-01  2.19931177E-01  1.70590135E-02  9.36366299E-03
  1.37068929E-03  2.49927922E-01  7.92824523E-03  1.04829342E-02 -7.95517676E-05
  1.95613040E-01 -3.87682732E-02  2.25831249E-02 -9.12271674E-04  1.33527115E-02
 -3.39596653E-02  1.70032567E-01  4.13194998E-02  8.00517807E-04 -2.37350711E-02
  4.46758119E-03 -9.48698543E-03  5.73312320E-04 -2.12221496E-01 -5.57003516E-02
  3.46843948E-02  8.60569100E-04  7.92362488E-02  8.44860539E-03  8.61584229E-02
  4.74535436E-03  7.71003344E-02  6.79130490E-03  3.97658203E-02 -9.10397059E-02
 -1.89808045E-01 -4.20391733E-02  8.52878284E-04 -1.34480572E-01 -8.65981179E-02
 -2.55631139E-02  2.08602884E-04 -3.75058451E-02  2.81980462E-02 -2.08723722E-03
 -4.20916502E-04  2.20288475E-03 -6.58902579E-03  3.29349451E-02  1.18605083E-02
  2.94003133E-04 -1.34271559E-03  1.20440433E-02  2.66472727E-03  5.53604591E-05
  1.70754317E-02  1.11418967E-02 -7.93955506E-03 -5.55263211E-04 -1.49417470E-01
  2.91931826E-01 -2.87598586E-02 -9.21036257E-03  1.44339155E-04  3.17629428E-01
 -8.97664132E-03 -3.27309548E-03  1.72876577E-04  4.81497947E-02  1.51721476E-02