 Entering Gaussian System, Link 0=/opt/cluster/programs/g09_d.01/g09//g09
 Input=/home/unibas/boittier/RDKit_G2/O.pdb/OPT_wB97XD_6-31+G/OPT_O.pdb.com
 Output=/scratch/boittier/OPT_O.pdb/OPT_O.pdb.out
 Initial command:
 /opt/cluster/programs/g09_d.01/g09/l1.exe "/scratch/boittier/OPT_O.pdb/Gau-158081.inp" -scrdir="/scratch/boittier/OPT_O.pdb/"
 Entering Link 1 = /opt/cluster/programs/g09_d.01/g09/l1.exe PID=    158082.
  
 Copyright (c) 1988,1990,1992,1993,1995,1998,2003,2009,2013,
            Gaussian, Inc.  All Rights Reserved.
  
 This is part of the Gaussian(R) 09 program.  It is based on
 the Gaussian(R) 03 system (copyright 2003, Gaussian, Inc.),
 the Gaussian(R) 98 system (copyright 1998, Gaussian, Inc.),
 the Gaussian(R) 94 system (copyright 1995, Gaussian, Inc.),
 the Gaussian 92(TM) system (copyright 1992, Gaussian, Inc.),
 the Gaussian 90(TM) system (copyright 1990, Gaussian, Inc.),
 the Gaussian 88(TM) system (copyright 1988, Gaussian, Inc.),
 the Gaussian 86(TM) system (copyright 1986, Carnegie Mellon
 University), and the Gaussian 82(TM) system (copyright 1983,
 Carnegie Mellon University). Gaussian is a federally registered
 trademark of Gaussian, Inc.
  
 This software contains proprietary and confidential information,
 including trade secrets, belonging to Gaussian, Inc.
  
 This software is provided under written license and may be
 used, copied, transmitted, or stored only in accord with that
 written license.
  
 The following legend is applicable only to US Government
 contracts under FAR:
  
                    RESTRICTED RIGHTS LEGEND
  
 Use, reproduction and disclosure by the US Government is
 subject to restrictions as set forth in subparagraphs (a)
 and (c) of the Commercial Computer Software - Restricted
 Rights clause in FAR 52.227-19.
  
 Gaussian, Inc.
 340 Quinnipiac St., Bldg. 40, Wallingford CT 06492
  
  
 ---------------------------------------------------------------
 Warning -- This program may not be used in any manner that
 competes with the business of Gaussian, Inc. or will provide
 assistance to any competitor of Gaussian, Inc.  The licensee
 of this program is prohibited from giving any competitor of
 Gaussian, Inc. access to this program.  By using this program,
 the user acknowledges that Gaussian, Inc. is engaged in the
 business of creating and licensing software in the field of
 computational chemistry and represents and warrants to the
 licensee that it is not a competitor of Gaussian, Inc. and that
 it will not use this program in any manner prohibited above.
 ---------------------------------------------------------------
  

 Cite this work as:
 Gaussian 09, Revision D.01,
 M. J. Frisch, G. W. Trucks, H. B. Schlegel, G. E. Scuseria, 
 M. A. Robb, J. R. Cheeseman, G. Scalmani, V. Barone, B. Mennucci, 
 G. A. Petersson, H. Nakatsuji, M. Caricato, X. Li, H. P. Hratchian, 
 A. F. Izmaylov, J. Bloino, G. Zheng, J. L. Sonnenberg, M. Hada, 
 M. Ehara, K. Toyota, R. Fukuda, J. Hasegawa, M. Ishida, T. Nakajima, 
 Y. Honda, O. Kitao, H. Nakai, T. Vreven, J. A. Montgomery, Jr., 
 J. E. Peralta, F. Ogliaro, M. Bearpark, J. J. Heyd, E. Brothers, 
 K. N. Kudin, V. N. Staroverov, T. Keith, R. Kobayashi, J. Normand, 
 K. Raghavachari, A. Rendell, J. C. Burant, S. S. Iyengar, J. Tomasi, 
 M. Cossi, N. Rega, J. M. Millam, M. Klene, J. E. Knox, J. B. Cross, 
 V. Bakken, C. Adamo, J. Jaramillo, R. Gomperts, R. E. Stratmann, 
 O. Yazyev, A. J. Austin, R. Cammi, C. Pomelli, J. W. Ochterski, 
 R. L. Martin, K. Morokuma, V. G. Zakrzewski, G. A. Voth, 
 P. Salvador, J. J. Dannenberg, S. Dapprich, A. D. Daniels, 
 O. Farkas, J. B. Foresman, J. V. Ortiz, J. Cioslowski, 
 and D. J. Fox, Gaussian, Inc., Wallingford CT, 2013.
 
 ******************************************
 Gaussian 09:  ES64L-G09RevD.01 24-Apr-2013
                26-May-2021 
 ******************************************
 %chk=/home/unibas/boittier/RDKit_G2/O.pdb/OPT_wB97XD_6-31+G/O.pdb.chk
 %nproc=8
 Will use up to    8 processors via shared memory.
 %mem=16GB
 ---------------------------------
 #p wB97XD/6-31+G Opt Freq=NoRaman
 ---------------------------------
 1/14=-1,18=20,19=15,26=3,38=1/1,3;
 2/9=110,12=2,17=6,18=5,40=1/2;
 3/5=1,6=6,7=10,11=2,16=1,25=1,30=1,71=1,74=-58/1,2,3;
 4//1;
 5/5=2,38=5/2;
 6/7=2,8=2,9=2,10=2,28=1/1;
 7//1,2,3,16;
 1/14=-1,18=20,19=15,26=3/3(2);
 2/9=110/2;
 99//99;
 2/9=110/2;
 3/5=1,6=6,7=10,11=2,16=1,25=1,30=1,71=1,74=-58/1,2,3;
 4/5=5,16=3,69=1/1;
 5/5=2,38=5/2;
 7//1,2,3,16;
 1/14=-1,18=20,19=15,26=3/3(-5);
 2/9=110/2;
 6/7=2,8=2,9=2,10=2,19=2,28=1/1;
 99/9=1/99;
 Leave Link    1 at Wed May 26 08:16:45 2021, MaxMem=  2147483648 cpu:         0.2
 (Enter /opt/cluster/programs/g09_d.01/g09/l101.exe)
 -----
 O.pdb
 -----
 Symbolic Z-matrix:
 Charge =  0 Multiplicity = 1
 C                    -3.095     1.547     1.371 
 C                    -2.542     1.225     0.01 
 H                    -3.795     0.76      1.676 
 H                    -3.598     2.519     1.336 
 H                    -2.307     1.621     2.12 
 O                    -1.116     0.711    -0.077 
 O                    -3.239     1.329    -1.009 
 C                    -1.03     -0.801    -0.001 
 H                    -1.391    -1.163     0.967 
 H                     0.005    -1.135    -0.121 
 H                    -1.632    -1.27     -0.786 
 
 NAtoms=     11 NQM=       11 NQMF=       0 NMMI=      0 NMMIF=      0
                NMic=       0 NMicF=      0.
                    Isotopes and Nuclear Properties:
 (Nuclear quadrupole moments (NQMom) in fm**2, nuclear magnetic moments (NMagM)
  in nuclear magnetons)

  Atom         1           2           3           4           5           6           7           8           9          10
 IAtWgt=          12          12           1           1           1          16          16          12           1           1
 AtmWgt=  12.0000000  12.0000000   1.0078250   1.0078250   1.0078250  15.9949146  15.9949146  12.0000000   1.0078250   1.0078250
 NucSpn=           0           0           1           1           1           0           0           0           1           1
 AtZEff=   0.0000000   0.0000000   0.0000000   0.0000000   0.0000000   0.0000000   0.0000000   0.0000000   0.0000000   0.0000000
 NQMom=    0.0000000   0.0000000   0.0000000   0.0000000   0.0000000   0.0000000   0.0000000   0.0000000   0.0000000   0.0000000
 NMagM=    0.0000000   0.0000000   2.7928460   2.7928460   2.7928460   0.0000000   0.0000000   0.0000000   2.7928460   2.7928460
 AtZNuc=   6.0000000   6.0000000   1.0000000   1.0000000   1.0000000   8.0000000   8.0000000   6.0000000   1.0000000   1.0000000

  Atom        11
 IAtWgt=           1
 AtmWgt=   1.0078250
 NucSpn=           1
 AtZEff=   0.0000000
 NQMom=    0.0000000
 NMagM=    2.7928460
 AtZNuc=   1.0000000
 Leave Link  101 at Wed May 26 08:16:46 2021, MaxMem=  2147483648 cpu:         4.2
 (Enter /opt/cluster/programs/g09_d.01/g09/l103.exe)

 GradGradGradGradGradGradGradGradGradGradGradGradGradGradGradGradGradGrad
 Berny optimization.
 Initialization pass.
                           ----------------------------
                           !    Initial Parameters    !
                           ! (Angstroms and Degrees)  !
 --------------------------                            --------------------------
 ! Name  Definition              Value          Derivative Info.                !
 --------------------------------------------------------------------------------
 ! R1    R(1,2)                  1.5039         estimate D2E/DX2                !
 ! R2    R(1,3)                  1.0965         estimate D2E/DX2                !
 ! R3    R(1,4)                  1.095          estimate D2E/DX2                !
 ! R4    R(1,5)                  1.0897         estimate D2E/DX2                !
 ! R5    R(2,6)                  1.5183         estimate D2E/DX2                !
 ! R6    R(2,7)                  1.2389         estimate D2E/DX2                !
 ! R7    R(6,8)                  1.5163         estimate D2E/DX2                !
 ! R8    R(8,9)                  1.0947         estimate D2E/DX2                !
 ! R9    R(8,10)                 1.0942         estimate D2E/DX2                !
 ! R10   R(8,11)                 1.0948         estimate D2E/DX2                !
 ! A1    A(2,1,3)              109.4375         estimate D2E/DX2                !
 ! A2    A(2,1,4)              109.2711         estimate D2E/DX2                !
 ! A3    A(2,1,5)              111.7567         estimate D2E/DX2                !
 ! A4    A(3,1,4)              110.6551         estimate D2E/DX2                !
 ! A5    A(3,1,5)              108.6138         estimate D2E/DX2                !
 ! A6    A(4,1,5)              107.09           estimate D2E/DX2                !
 ! A7    A(1,2,6)              118.0139         estimate D2E/DX2                !
 ! A8    A(1,2,7)              121.2969         estimate D2E/DX2                !
 ! A9    A(6,2,7)              120.6414         estimate D2E/DX2                !
 ! A10   A(2,6,8)              112.8276         estimate D2E/DX2                !
 ! A11   A(6,8,9)              110.8148         estimate D2E/DX2                !
 ! A12   A(6,8,10)             110.6424         estimate D2E/DX2                !
 ! A13   A(6,8,11)             111.1024         estimate D2E/DX2                !
 ! A14   A(9,8,10)             107.9372         estimate D2E/DX2                !
 ! A15   A(9,8,11)             108.122          estimate D2E/DX2                !
 ! A16   A(10,8,11)            108.1035         estimate D2E/DX2                !
 ! D1    D(3,1,2,6)           -105.054          estimate D2E/DX2                !
 ! D2    D(3,1,2,7)             72.4492         estimate D2E/DX2                !
 ! D3    D(4,1,2,6)            133.6374         estimate D2E/DX2                !
 ! D4    D(4,1,2,7)            -48.8594         estimate D2E/DX2                !
 ! D5    D(5,1,2,6)             15.2957         estimate D2E/DX2                !
 ! D6    D(5,1,2,7)           -167.2011         estimate D2E/DX2                !
 ! D7    D(1,2,6,8)             90.4766         estimate D2E/DX2                !
 ! D8    D(7,2,6,8)            -87.0436         estimate D2E/DX2                !
 ! D9    D(2,6,8,9)            -63.3592         estimate D2E/DX2                !
 ! D10   D(2,6,8,10)           176.9515         estimate D2E/DX2                !
 ! D11   D(2,6,8,11)            56.8653         estimate D2E/DX2                !
 --------------------------------------------------------------------------------
 Trust Radius=3.00D-01 FncErr=1.00D-07 GrdErr=1.00D-06
 Number of steps in this run=     47 maximum allowed number of steps=    100.
 GradGradGradGradGradGradGradGradGradGradGradGradGradGradGradGradGradGrad

 Leave Link  103 at Wed May 26 08:16:46 2021, MaxMem=  2147483648 cpu:         0.1
 (Enter /opt/cluster/programs/g09_d.01/g09/l202.exe)
                          Input orientation:                          
 ---------------------------------------------------------------------
 Center     Atomic      Atomic             Coordinates (Angstroms)
 Number     Number       Type             X           Y           Z
 ---------------------------------------------------------------------
      1          6           0       -3.095000    1.547000    1.371000
      2          6           0       -2.542000    1.225000    0.010000
      3          1           0       -3.795000    0.760000    1.676000
      4          1           0       -3.598000    2.519000    1.336000
      5          1           0       -2.307000    1.621000    2.120000
      6          8           0       -1.116000    0.711000   -0.077000
      7          8           0       -3.239000    1.329000   -1.009000
      8          6           0       -1.030000   -0.801000   -0.001000
      9          1           0       -1.391000   -1.163000    0.967000
     10          1           0        0.005000   -1.135000   -0.121000
     11          1           0       -1.632000   -1.270000   -0.786000
 ---------------------------------------------------------------------
                    Distance matrix (angstroms):
                    1          2          3          4          5
     1  C    0.000000
     2  C    1.503933   0.000000
     3  H    1.096537   2.135835   0.000000
     4  H    1.094997   2.132568   1.802357   0.000000
     5  H    1.089688   2.159662   1.775557   1.757197   0.000000
     6  O    2.590761   1.518302   3.201945   3.380201   2.659585
     7  O    2.394297   1.238946   2.800379   2.654055   3.277885
     8  C    3.414632   2.528031   3.590860   4.405064   3.463445
     9  H    3.226598   2.818367   3.159086   4.308612   3.149464
    10  H    4.362246   3.474762   4.610882   5.334433   4.238273
    11  H    3.837774   2.772497   3.854985   4.767029   4.154316
                    6          7          8          9         10
     6  O    0.000000
     7  O    2.399516   0.000000
     8  C    1.516350   3.229961   0.000000
     9  H    2.162738   3.678280   1.094710   0.000000
    10  H    2.160160   4.169338   1.094158   1.770125   0.000000
    11  H    2.166402   3.063818   1.094801   1.772721   1.772066
                   11
    11  H    0.000000
 Stoichiometry    C3H6O2
 Framework group  C1[X(C3H6O2)]
 Deg. of freedom    27
 Full point group                 C1      NOp   1
 Largest Abelian subgroup         C1      NOp   1
 Largest concise Abelian subgroup C1      NOp   1
                         Standard orientation:                         
 ---------------------------------------------------------------------
 Center     Atomic      Atomic             Coordinates (Angstroms)
 Number     Number       Type             X           Y           Z
 ---------------------------------------------------------------------
      1          6           0        1.413777   -1.016203    0.107641
      2          6           0        0.563203    0.200828   -0.131471
      3          1           0        1.440678   -1.237384    1.181302
      4          1           0        2.423397   -0.832198   -0.274231
      5          1           0        1.026834   -1.888973   -0.417687
      6          8           0       -0.823282   -0.001809   -0.716141
      7          8           0        0.957590    1.333101    0.180624
      8          6           0       -1.889180   -0.183770    0.346906
      9          1           0       -1.705083   -1.091100    0.931072
     10          1           0       -2.879086   -0.272654   -0.110660
     11          1           0       -1.908003    0.666847    1.035880
 ---------------------------------------------------------------------
 Rotational constants (GHZ):      8.0566268      3.7596068      2.9871662
 Leave Link  202 at Wed May 26 08:16:46 2021, MaxMem=  2147483648 cpu:         0.0
 (Enter /opt/cluster/programs/g09_d.01/g09/l301.exe)
 Standard basis: 6-31+G (6D, 7F)
 Ernie: Thresh=  0.10000D-02 Tol=  0.10000D-05 Strict=F.
 There are    77 symmetry adapted cartesian basis functions of A   symmetry.
 There are    77 symmetry adapted basis functions of A   symmetry.
    77 basis functions,   154 primitive gaussians,    77 cartesian basis functions
    20 alpha electrons       20 beta electrons
       nuclear repulsion energy       173.2042919499 Hartrees.
 IExCor= 4639 DFT=T Ex+Corr=wB97XD ExCW=0 ScaHFX=  1.000000
 ScaDFX=  1.000000  1.000000  1.000000  1.000000 ScalE2=  1.000000  1.000000
 IRadAn=      0 IRanWt=     -1 IRanGd=            0 ICorTp=0 IEmpDi=121
  HFx wShort=  0.000000 wLong=  0.200000 cFull=  0.222036 cShort=  0.000000 cLong=  0.777964
  DFx wShort=  0.000000 wLong=  0.200000 cFull=  0.000000 cShort=  0.000000 cLong=  1.000000
 NAtoms=   11 NActive=   11 NUniq=   11 SFac= 1.00D+00 NAtFMM=   60 NAOKFM=F Big=F
 Integral buffers will be    131072 words long.
 Raffenetti 2 integral format.
 Two-electron integral symmetry is turned on.
 R6Disp:  Grimme-D2 Dispersion energy=       -0.0034107946 Hartrees.
 Nuclear repulsion after empirical dispersion term =      173.2008811553 Hartrees.
 Leave Link  301 at Wed May 26 08:16:46 2021, MaxMem=  2147483648 cpu:         0.3
 (Enter /opt/cluster/programs/g09_d.01/g09/l302.exe)
 NPDir=0 NMtPBC=     1 NCelOv=     1 NCel=       1 NClECP=     1 NCelD=      1
         NCelK=      1 NCelE2=     1 NClLst=     1 CellRange=     0.0.
 One-electron integrals computed using PRISM.
 NBasis=    77 RedAO= T EigKep=  1.90D-04  NBF=    77
 NBsUse=    77 1.00D-06 EigRej= -1.00D+00 NBFU=    77
 Precomputing XC quadrature grid using
 IXCGrd= 4 IRadAn=           0 IRanWt=          -1 IRanGd=           0 AccXCQ= 0.00D+00.
 Generated NRdTot=       0 NPtTot=           0 NUsed=           0 NTot=          32
 NSgBfM=    77    77    77    77    77 MxSgAt=    11 MxSgA2=    11.
 Leave Link  302 at Wed May 26 08:16:46 2021, MaxMem=  2147483648 cpu:         0.9
 (Enter /opt/cluster/programs/g09_d.01/g09/l303.exe)
 DipDrv:  MaxL=1.
 Leave Link  303 at Wed May 26 08:16:46 2021, MaxMem=  2147483648 cpu:         0.3
 (Enter /opt/cluster/programs/g09_d.01/g09/l401.exe)
 ExpMin= 4.38D-02 ExpMax= 5.48D+03 ExpMxC= 8.25D+02 IAcc=2 IRadAn=         4 AccDes= 0.00D+00
 Harris functional with IExCor= 4639 and IRadAn=       4 diagonalized for initial guess.
 HarFok:  IExCor= 4639 AccDes= 0.00D+00 IRadAn=         4 IDoV= 1 UseB2=F ITyADJ=14
 ICtDFT=  3500011 ScaDFX=  1.000000  1.000000  1.000000  1.000000
 FoFCou: FMM=F IPFlag=           0 FMFlag=      100000 FMFlg1=           0
         NFxFlg=           0 DoJE=T BraDBF=F KetDBF=T FulRan=T
         wScrn=  0.000000 ICntrl=     500 IOpCl=  0 I1Cent=   200000004 NGrid=           0
         NMat0=    1 NMatS0=      1 NMatT0=    0 NMatD0=    1 NMtDS0=    0 NMtDT0=    0
 Petite list used in FoFCou.
 Harris En= -257.369882230593    
 JPrj=0 DoOrth=F DoCkMO=F.
 Leave Link  401 at Wed May 26 08:16:46 2021, MaxMem=  2147483648 cpu:         1.4
 (Enter /opt/cluster/programs/g09_d.01/g09/l502.exe)
 Closed shell SCF:
 Using DIIS extrapolation, IDIIS=  1040.
 Integral symmetry usage will be decided dynamically.
 Keep R1 ints in memory in canonical form, NReq=9956864.
 IVT=       37546 IEndB=       37546 NGot=  2147483648 MDV=  2138425091
 LenX=  2138425091 LenY=  2138418721
 Requested convergence on RMS density matrix=1.00D-08 within 128 cycles.
 Requested convergence on MAX density matrix=1.00D-06.
 Requested convergence on             energy=1.00D-06.
 No special actions if energy rises.
 FoFCou: FMM=F IPFlag=           0 FMFlag=           0 FMFlg1=           0
         NFxFlg=           0 DoJE=F BraDBF=F KetDBF=F FulRan=T
         wScrn=  0.000000 ICntrl=     600 IOpCl=  0 I1Cent=           0 NGrid=           0
         NMat0=    1 NMatS0=   3003 NMatT0=    0 NMatD0=    1 NMtDS0=    0 NMtDT0=    0
 Symmetry not used in FoFCou.

 Cycle   1  Pass 1  IDiag  1:
 E= -268.086360452737    
 DIIS: error= 2.64D-02 at cycle   1 NSaved=   1.
 NSaved= 1 IEnMin= 1 EnMin= -268.086360452737     IErMin= 1 ErrMin= 2.64D-02
 ErrMax= 2.64D-02  0.00D+00 EMaxC= 1.00D-01 BMatC= 1.50D-01 BMatP= 1.50D-01
 IDIUse=3 WtCom= 7.36D-01 WtEn= 2.64D-01
 Coeff-Com:  0.100D+01
 Coeff-En:   0.100D+01
 Coeff:      0.100D+01
 Gap=     0.534 Goal=   None    Shift=    0.000
 GapD=    0.534 DampG=2.000 DampE=0.500 DampFc=1.0000 IDamp=-1.
 RMSDP=9.12D-03 MaxDP=1.35D-01              OVMax= 1.03D-01

 Cycle   2  Pass 1  IDiag  1:
 E= -268.113271472129     Delta-E=       -0.026911019392 Rises=F Damp=F
 DIIS: error= 2.58D-02 at cycle   2 NSaved=   2.
 NSaved= 2 IEnMin= 2 EnMin= -268.113271472129     IErMin= 2 ErrMin= 2.58D-02
 ErrMax= 2.58D-02  0.00D+00 EMaxC= 1.00D-01 BMatC= 8.99D-02 BMatP= 1.50D-01
 IDIUse=3 WtCom= 7.42D-01 WtEn= 2.58D-01
 Coeff-Com:  0.427D+00 0.573D+00
 Coeff-En:   0.406D+00 0.594D+00
 Coeff:      0.421D+00 0.579D+00
 Gap=     0.404 Goal=   None    Shift=    0.000
 RMSDP=4.18D-03 MaxDP=7.79D-02 DE=-2.69D-02 OVMax= 7.32D-02

 Cycle   3  Pass 1  IDiag  1:
 E= -268.177623986862     Delta-E=       -0.064352514734 Rises=F Damp=F
 DIIS: error= 9.11D-03 at cycle   3 NSaved=   3.
 NSaved= 3 IEnMin= 3 EnMin= -268.177623986862     IErMin= 3 ErrMin= 9.11D-03
 ErrMax= 9.11D-03  0.00D+00 EMaxC= 1.00D-01 BMatC= 1.07D-02 BMatP= 8.99D-02
 IDIUse=3 WtCom= 9.09D-01 WtEn= 9.11D-02
 Coeff-Com:  0.101D+00 0.278D+00 0.620D+00
 Coeff-En:   0.000D+00 0.000D+00 0.100D+01
 Coeff:      0.921D-01 0.253D+00 0.655D+00
 Gap=     0.409 Goal=   None    Shift=    0.000
 RMSDP=1.68D-03 MaxDP=2.38D-02 DE=-6.44D-02 OVMax= 2.97D-02

 Cycle   4  Pass 1  IDiag  1:
 E= -268.184471136958     Delta-E=       -0.006847150096 Rises=F Damp=F
 DIIS: error= 3.76D-03 at cycle   4 NSaved=   4.
 NSaved= 4 IEnMin= 4 EnMin= -268.184471136958     IErMin= 4 ErrMin= 3.76D-03
 ErrMax= 3.76D-03  0.00D+00 EMaxC= 1.00D-01 BMatC= 1.80D-03 BMatP= 1.07D-02
 IDIUse=3 WtCom= 9.62D-01 WtEn= 3.76D-02
 Coeff-Com: -0.291D-02 0.546D-01 0.343D+00 0.605D+00
 Coeff-En:   0.000D+00 0.000D+00 0.119D+00 0.881D+00
 Coeff:     -0.280D-02 0.526D-01 0.335D+00 0.616D+00
 Gap=     0.394 Goal=   None    Shift=    0.000
 RMSDP=6.01D-04 MaxDP=9.11D-03 DE=-6.85D-03 OVMax= 1.01D-02

 Cycle   5  Pass 1  IDiag  1:
 E= -268.185762586598     Delta-E=       -0.001291449640 Rises=F Damp=F
 DIIS: error= 1.02D-03 at cycle   5 NSaved=   5.
 NSaved= 5 IEnMin= 5 EnMin= -268.185762586598     IErMin= 5 ErrMin= 1.02D-03
 ErrMax= 1.02D-03  0.00D+00 EMaxC= 1.00D-01 BMatC= 1.37D-04 BMatP= 1.80D-03
 IDIUse=3 WtCom= 9.90D-01 WtEn= 1.02D-02
 Coeff-Com: -0.599D-02 0.133D-01 0.154D+00 0.349D+00 0.490D+00
 Coeff-En:   0.000D+00 0.000D+00 0.000D+00 0.000D+00 0.100D+01
 Coeff:     -0.593D-02 0.132D-01 0.152D+00 0.346D+00 0.495D+00
 Gap=     0.389 Goal=   None    Shift=    0.000
 RMSDP=1.47D-04 MaxDP=2.69D-03 DE=-1.29D-03 OVMax= 3.40D-03

 Cycle   6  Pass 1  IDiag  1:
 E= -268.185871657836     Delta-E=       -0.000109071238 Rises=F Damp=F
 DIIS: error= 1.46D-04 at cycle   6 NSaved=   6.
 NSaved= 6 IEnMin= 6 EnMin= -268.185871657836     IErMin= 6 ErrMin= 1.46D-04
 ErrMax= 1.46D-04  0.00D+00 EMaxC= 1.00D-01 BMatC= 4.01D-06 BMatP= 1.37D-04
 IDIUse=3 WtCom= 9.99D-01 WtEn= 1.46D-03
 Coeff-Com: -0.796D-03-0.700D-02-0.194D-01-0.184D-01 0.112D+00 0.933D+00
 Coeff-En:   0.000D+00 0.000D+00 0.000D+00 0.000D+00 0.000D+00 0.100D+01
 Coeff:     -0.795D-03-0.699D-02-0.193D-01-0.184D-01 0.112D+00 0.933D+00
 Gap=     0.390 Goal=   None    Shift=    0.000
 RMSDP=1.15D-04 MaxDP=1.68D-03 DE=-1.09D-04 OVMax= 7.57D-04

 Cycle   7  Pass 1  IDiag  1:
 E= -268.185877282271     Delta-E=       -0.000005624435 Rises=F Damp=F
 DIIS: error= 4.73D-05 at cycle   7 NSaved=   7.
 NSaved= 7 IEnMin= 7 EnMin= -268.185877282271     IErMin= 7 ErrMin= 4.73D-05
 ErrMax= 4.73D-05  0.00D+00 EMaxC= 1.00D-01 BMatC= 3.54D-07 BMatP= 4.01D-06
 IDIUse=1 WtCom= 1.00D+00 WtEn= 0.00D+00
 Coeff-Com:  0.437D-03-0.372D-02-0.216D-01-0.401D-01 0.160D-03 0.297D+00
 Coeff-Com:  0.767D+00
 Coeff:      0.437D-03-0.372D-02-0.216D-01-0.401D-01 0.160D-03 0.297D+00
 Coeff:      0.767D+00
 Gap=     0.390 Goal=   None    Shift=    0.000
 RMSDP=2.45D-05 MaxDP=3.34D-04 DE=-5.62D-06 OVMax= 2.39D-04

 Cycle   8  Pass 1  IDiag  1:
 E= -268.185877874473     Delta-E=       -0.000000592202 Rises=F Damp=F
 DIIS: error= 1.11D-05 at cycle   8 NSaved=   8.
 NSaved= 8 IEnMin= 8 EnMin= -268.185877874473     IErMin= 8 ErrMin= 1.11D-05
 ErrMax= 1.11D-05  0.00D+00 EMaxC= 1.00D-01 BMatC= 1.65D-08 BMatP= 3.54D-07
 IDIUse=1 WtCom= 1.00D+00 WtEn= 0.00D+00
 Coeff-Com:  0.282D-05 0.787D-03 0.270D-02 0.356D-02-0.372D-02-0.104D+00
 Coeff-Com: -0.490D-01 0.115D+01
 Coeff:      0.282D-05 0.787D-03 0.270D-02 0.356D-02-0.372D-02-0.104D+00
 Coeff:     -0.490D-01 0.115D+01
 Gap=     0.390 Goal=   None    Shift=    0.000
 RMSDP=7.60D-06 MaxDP=1.22D-04 DE=-5.92D-07 OVMax= 1.28D-04

 Cycle   9  Pass 1  IDiag  1:
 E= -268.185877921206     Delta-E=       -0.000000046734 Rises=F Damp=F
 DIIS: error= 2.35D-06 at cycle   9 NSaved=   9.
 NSaved= 9 IEnMin= 9 EnMin= -268.185877921206     IErMin= 9 ErrMin= 2.35D-06
 ErrMax= 2.35D-06  0.00D+00 EMaxC= 1.00D-01 BMatC= 8.43D-10 BMatP= 1.65D-08
 IDIUse=1 WtCom= 1.00D+00 WtEn= 0.00D+00
 Coeff-Com: -0.186D-04 0.205D-03 0.114D-02 0.198D-02 0.126D-02-0.174D-01
 Coeff-Com: -0.367D-01 0.187D-01 0.103D+01
 Coeff:     -0.186D-04 0.205D-03 0.114D-02 0.198D-02 0.126D-02-0.174D-01
 Coeff:     -0.367D-01 0.187D-01 0.103D+01
 Gap=     0.390 Goal=   None    Shift=    0.000
 RMSDP=2.45D-06 MaxDP=4.33D-05 DE=-4.67D-08 OVMax= 2.77D-05

 Cycle  10  Pass 1  IDiag  1:
 E= -268.185877923238     Delta-E=       -0.000000002031 Rises=F Damp=F
 DIIS: error= 7.53D-07 at cycle  10 NSaved=  10.
 NSaved=10 IEnMin=10 EnMin= -268.185877923238     IErMin=10 ErrMin= 7.53D-07
 ErrMax= 7.53D-07  0.00D+00 EMaxC= 1.00D-01 BMatC= 1.26D-10 BMatP= 8.43D-10
 IDIUse=1 WtCom= 1.00D+00 WtEn= 0.00D+00
 Coeff-Com: -0.511D-05-0.721D-05 0.941D-04 0.277D-03 0.965D-03 0.402D-02
 Coeff-Com: -0.674D-02-0.958D-01 0.317D+00 0.780D+00
 Coeff:     -0.511D-05-0.721D-05 0.941D-04 0.277D-03 0.965D-03 0.402D-02
 Coeff:     -0.674D-02-0.958D-01 0.317D+00 0.780D+00
 Gap=     0.390 Goal=   None    Shift=    0.000
 RMSDP=6.93D-07 MaxDP=1.23D-05 DE=-2.03D-09 OVMax= 6.82D-06

 Cycle  11  Pass 1  IDiag  1:
 E= -268.185877923479     Delta-E=       -0.000000000241 Rises=F Damp=F
 DIIS: error= 3.65D-07 at cycle  11 NSaved=  11.
 NSaved=11 IEnMin=11 EnMin= -268.185877923479     IErMin=11 ErrMin= 3.65D-07
 ErrMax= 3.65D-07  0.00D+00 EMaxC= 1.00D-01 BMatC= 8.28D-12 BMatP= 1.26D-10
 IDIUse=1 WtCom= 1.00D+00 WtEn= 0.00D+00
 Coeff-Com:  0.152D-05-0.221D-04-0.125D-03-0.197D-03-0.410D-04 0.203D-02
 Coeff-Com:  0.344D-02-0.566D-02-0.105D+00 0.498D-01 0.106D+01
 Coeff:      0.152D-05-0.221D-04-0.125D-03-0.197D-03-0.410D-04 0.203D-02
 Coeff:      0.344D-02-0.566D-02-0.105D+00 0.498D-01 0.106D+01
 Gap=     0.390 Goal=   None    Shift=    0.000
 RMSDP=2.57D-07 MaxDP=4.47D-06 DE=-2.41D-10 OVMax= 4.33D-06

 Cycle  12  Pass 1  IDiag  1:
 E= -268.185877923514     Delta-E=       -0.000000000035 Rises=F Damp=F
 DIIS: error= 1.60D-07 at cycle  12 NSaved=  12.
 NSaved=12 IEnMin=12 EnMin= -268.185877923514     IErMin=12 ErrMin= 1.60D-07
 ErrMax= 1.60D-07  0.00D+00 EMaxC= 1.00D-01 BMatC= 6.11D-13 BMatP= 8.28D-12
 IDIUse=1 WtCom= 1.00D+00 WtEn= 0.00D+00
 Coeff-Com: -0.201D-06 0.813D-05 0.349D-04 0.462D-04-0.737D-04-0.106D-02
 Coeff-Com: -0.729D-03 0.973D-02 0.796D-02-0.761D-01-0.331D+00 0.139D+01
 Coeff:     -0.201D-06 0.813D-05 0.349D-04 0.462D-04-0.737D-04-0.106D-02
 Coeff:     -0.729D-03 0.973D-02 0.796D-02-0.761D-01-0.331D+00 0.139D+01
 Gap=     0.390 Goal=   None    Shift=    0.000
 RMSDP=6.29D-08 MaxDP=7.98D-07 DE=-3.55D-11 OVMax= 2.32D-06

 Cycle  13  Pass 1  IDiag  1:
 E= -268.185877923519     Delta-E=       -0.000000000005 Rises=F Damp=F
 DIIS: error= 4.21D-08 at cycle  13 NSaved=  13.
 NSaved=13 IEnMin=13 EnMin= -268.185877923519     IErMin=13 ErrMin= 4.21D-08
 ErrMax= 4.21D-08  0.00D+00 EMaxC= 1.00D-01 BMatC= 5.09D-14 BMatP= 6.11D-13
 IDIUse=1 WtCom= 1.00D+00 WtEn= 0.00D+00
 Coeff-Com: -0.735D-07-0.343D-06 0.194D-05 0.643D-05 0.212D-04 0.142D-03
 Coeff-Com: -0.765D-04-0.231D-02 0.651D-02 0.192D-01 0.792D-02-0.423D+00
 Coeff-Com:  0.139D+01
 Coeff:     -0.735D-07-0.343D-06 0.194D-05 0.643D-05 0.212D-04 0.142D-03
 Coeff:     -0.765D-04-0.231D-02 0.651D-02 0.192D-01 0.792D-02-0.423D+00
 Coeff:      0.139D+01
 Gap=     0.390 Goal=   None    Shift=    0.000
 RMSDP=2.10D-08 MaxDP=2.67D-07 DE=-4.66D-12 OVMax= 7.81D-07

 Cycle  14  Pass 1  IDiag  1:
 E= -268.185877923519     Delta-E=        0.000000000000 Rises=F Damp=F
 DIIS: error= 6.17D-09 at cycle  14 NSaved=  14.
 NSaved=14 IEnMin=13 EnMin= -268.185877923519     IErMin=14 ErrMin= 6.17D-09
 ErrMax= 6.17D-09  0.00D+00 EMaxC= 1.00D-01 BMatC= 1.90D-15 BMatP= 5.09D-14
 IDIUse=1 WtCom= 1.00D+00 WtEn= 0.00D+00
 Coeff-Com:  0.281D-07-0.194D-06-0.187D-05-0.325D-05-0.259D-05 0.607D-05
 Coeff-Com:  0.531D-04 0.137D-03-0.195D-02-0.105D-02 0.129D-01 0.430D-01
 Coeff-Com: -0.380D+00 0.133D+01
 Coeff:      0.281D-07-0.194D-06-0.187D-05-0.325D-05-0.259D-05 0.607D-05
 Coeff:      0.531D-04 0.137D-03-0.195D-02-0.105D-02 0.129D-01 0.430D-01
 Coeff:     -0.380D+00 0.133D+01
 Gap=     0.390 Goal=   None    Shift=    0.000
 RMSDP=4.40D-09 MaxDP=5.41D-08 DE= 0.00D+00 OVMax= 1.40D-07

 SCF Done:  E(RwB97XD) =  -268.185877924     A.U. after   14 cycles
            NFock= 14  Conv=0.44D-08     -V/T= 2.0071
 KE= 2.662820490952D+02 PE=-9.737511131778D+02 EE= 2.660823050038D+02
 Leave Link  502 at Wed May 26 08:16:49 2021, MaxMem=  2147483648 cpu:        15.3
 (Enter /opt/cluster/programs/g09_d.01/g09/l601.exe)
 Copying SCF densities to generalized density rwf, IOpCl= 0 IROHF=0.

 **********************************************************************

            Population analysis using the SCF density.

 **********************************************************************

 Orbital symmetries:
       Occupied  (A) (A) (A) (A) (A) (A) (A) (A) (A) (A) (A) (A)
                 (A) (A) (A) (A) (A) (A) (A) (A)
       Virtual   (A) (A) (A) (A) (A) (A) (A) (A) (A) (A) (A) (A)
                 (A) (A) (A) (A) (A) (A) (A) (A) (A) (A) (A) (A)
                 (A) (A) (A) (A) (A) (A) (A) (A) (A) (A) (A) (A)
                 (A) (A) (A) (A) (A) (A) (A) (A) (A) (A) (A) (A)
                 (A) (A) (A) (A) (A) (A) (A) (A) (A)
 The electronic state is 1-A.
 Alpha  occ. eigenvalues --  -19.30447 -19.30128 -10.46597 -10.36127 -10.32486
 Alpha  occ. eigenvalues --   -1.19567  -1.10582  -0.87359  -0.80785  -0.65925
 Alpha  occ. eigenvalues --   -0.59077  -0.57229  -0.56054  -0.52800  -0.52588
 Alpha  occ. eigenvalues --   -0.50620  -0.46889  -0.43442  -0.37638  -0.36681
 Alpha virt. eigenvalues --    0.02275   0.06423   0.07568   0.09803   0.10320
 Alpha virt. eigenvalues --    0.10996   0.12179   0.12934   0.14355   0.15022
 Alpha virt. eigenvalues --    0.16469   0.16850   0.18997   0.20800   0.24003
 Alpha virt. eigenvalues --    0.24718   0.26796   0.28770   0.28952   0.30280
 Alpha virt. eigenvalues --    0.32365   0.33663   0.35360   0.37286   0.38698
 Alpha virt. eigenvalues --    0.39071   0.40782   0.42514   0.43229   0.45030
 Alpha virt. eigenvalues --    0.51559   0.70649   0.73012   0.74376   0.75681
 Alpha virt. eigenvalues --    0.78221   0.80780   0.86579   0.88965   0.92816
 Alpha virt. eigenvalues --    1.07454   1.08902   1.11767   1.14013   1.16708
 Alpha virt. eigenvalues --    1.18312   1.22265   1.27309   1.32195   1.38261
 Alpha virt. eigenvalues --    1.41848   1.43406   1.48105   1.53416   1.59735
 Alpha virt. eigenvalues --    1.90815   1.96170
          Condensed to atoms (all electrons):
               1          2          3          4          5          6
     1  C    6.159854  -0.148438   0.354832   0.361339   0.381850  -0.237160
     2  C   -0.148438   5.556427  -0.008737  -0.014500  -0.066314   0.211303
     3  H    0.354832  -0.008737   0.450489  -0.015401  -0.024575  -0.000196
     4  H    0.361339  -0.014500  -0.015401   0.442520  -0.025890   0.003344
     5  H    0.381850  -0.066314  -0.024575  -0.025890   0.470756   0.005813
     6  O   -0.237160   0.211303  -0.000196   0.003344   0.005813   8.434273
     7  O   -0.234857   0.352843  -0.007452  -0.005485   0.010122  -0.119036
     8  C    0.008801  -0.183382  -0.000812  -0.000963   0.002802   0.119487
     9  H    0.007117   0.004527  -0.000225  -0.000034   0.000127  -0.047557
    10  H    0.000816  -0.002361   0.000006   0.000001  -0.000006  -0.034672
    11  H   -0.007202   0.003209   0.000044  -0.000001   0.000023  -0.042342
               7          8          9         10         11
     1  C   -0.234857   0.008801   0.007117   0.000816  -0.007202
     2  C    0.352843  -0.183382   0.004527  -0.002361   0.003209
     3  H   -0.007452  -0.000812  -0.000225   0.000006   0.000044
     4  H   -0.005485  -0.000963  -0.000034   0.000001  -0.000001
     5  H    0.010122   0.002802   0.000127  -0.000006   0.000023
     6  O   -0.119036   0.119487  -0.047557  -0.034672  -0.042342
     7  O    8.339630  -0.002495  -0.003073  -0.000226   0.008563
     8  C   -0.002495   5.347190   0.361407   0.387003   0.372329
     9  H   -0.003073   0.361407   0.556993  -0.031019  -0.044643
    10  H   -0.000226   0.387003  -0.031019   0.482774  -0.028558
    11  H    0.008563   0.372329  -0.044643  -0.028558   0.518899
 Mulliken charges:
               1
     1  C   -0.646953
     2  C    0.295423
     3  H    0.252026
     4  H    0.255069
     5  H    0.245291
     6  O   -0.293257
     7  O   -0.338533
     8  C   -0.411367
     9  H    0.196380
    10  H    0.226241
    11  H    0.219678
 Sum of Mulliken charges =   0.00000
 Mulliken charges with hydrogens summed into heavy atoms:
               1
     1  C    0.105434
     2  C    0.295423
     6  O   -0.293257
     7  O   -0.338533
     8  C    0.230933
 Electronic spatial extent (au):  <R**2>=            457.3175
 Charge=              0.0000 electrons
 Dipole moment (field-independent basis, Debye):
    X=             -0.5806    Y=             -3.2772    Z=              1.7656  Tot=              3.7675
 Quadrupole moment (field-independent basis, Debye-Ang):
   XX=            -25.4962   YY=            -33.9139   ZZ=            -31.5552
   XY=             -3.2437   XZ=             -3.2358   YZ=             -0.8787
 Traceless Quadrupole moment (field-independent basis, Debye-Ang):
   XX=              4.8255   YY=             -3.5922   ZZ=             -1.2334
   XY=             -3.2437   XZ=             -3.2358   YZ=             -0.8787
 Octapole moment (field-independent basis, Debye-Ang**2):
  XXX=             -9.8452  YYY=             -5.1535  ZZZ=              2.2217  XYY=             -2.8211
  XXY=             -4.7085  XXZ=              0.3454  XZZ=              2.2201  YZZ=              0.3320
  YYZ=             -0.4275  XYZ=             -1.3064
 Hexadecapole moment (field-independent basis, Debye-Ang**3):
 XXXX=           -319.0009 YYYY=           -163.9510 ZZZZ=            -69.2497 XXXY=             -1.1425
 XXXZ=             -3.0058 YYYX=             -3.3804 YYYZ=              0.6770 ZZZX=              0.1577
 ZZZY=             -0.7943 XXYY=            -90.4214 XXZZ=            -71.3579 YYZZ=            -36.2617
 XXYZ=             -0.3052 YYXZ=             -1.7553 ZZXY=             -0.4061
 N-N= 1.732008811553D+02 E-N=-9.737511132656D+02  KE= 2.662820490952D+02
 No NMR shielding tensors so no spin-rotation constants.
 Leave Link  601 at Wed May 26 08:16:49 2021, MaxMem=  2147483648 cpu:         0.6
 (Enter /opt/cluster/programs/g09_d.01/g09/l701.exe)
 Compute integral first derivatives.
 ... and contract with generalized density number  0.
 R6Disp: Adding Grimme-D2 dispersion energy 1st derivatives to the gradient.
 Leave Link  701 at Wed May 26 08:16:49 2021, MaxMem=  2147483648 cpu:         0.6
 (Enter /opt/cluster/programs/g09_d.01/g09/l702.exe)
 L702 exits ... SP integral derivatives will be done elsewhere.
 Leave Link  702 at Wed May 26 08:16:49 2021, MaxMem=  2147483648 cpu:         0.2
 (Enter /opt/cluster/programs/g09_d.01/g09/l703.exe)
 Compute integral first derivatives, UseDBF=F ICtDFT=           0.
 Integral derivatives from FoFJK, PRISM(SPDF).
 Calling FoFJK, ICntrl=      2127 FMM=F ISym2X=0 I1Cent= 0 IOpClX= 0 NMat=1 NMatS=1 NMatT=0.
 FoFJK:  IHMeth= 1 ICntrl=    2127 DoSepK=T KAlg= 0 I1Cent=   0 FoldK=F
 IRaf=         1 NMat=   1 IRICut=       1 DoRegI=T DoRafI=F ISym2E= 0.
 FoFCou: FMM=F IPFlag=           0 FMFlag=      100000 FMFlg1=         800
         NFxFlg=           0 DoJE=F BraDBF=F KetDBF=F FulRan=T
         wScrn=  0.000000 ICntrl=    2527 IOpCl=  0 I1Cent=           0 NGrid=           0
         NMat0=    1 NMatS0=      1 NMatT0=    0 NMatD0=    1 NMtDS0=    0 NMtDT0=    0
 Symmetry not used in FoFCou.
 Leave Link  703 at Wed May 26 08:16:49 2021, MaxMem=  2147483648 cpu:         3.6
 (Enter /opt/cluster/programs/g09_d.01/g09/l716.exe)
 Dipole        =-2.28409278D-01-1.28933084D+00 6.94621909D-01
 ***** Axes restored to original set *****
 -------------------------------------------------------------------
 Center     Atomic                   Forces (Hartrees/Bohr)
 Number     Number              X              Y              Z
 -------------------------------------------------------------------
      1        6           0.016845093    0.003842981    0.004939042
      2        6           0.007392704   -0.018549217   -0.029634495
      3        1          -0.001069567    0.002867386   -0.002047801
      4        1          -0.003973760   -0.004322725   -0.001927614
      5        1           0.002177343   -0.002597625    0.000275174
      6        8          -0.040529873   -0.007975581    0.007602337
      7        8           0.028578962   -0.003922929    0.022019401
      8        6          -0.008455360    0.007067095   -0.000663561
      9        1          -0.000200612    0.004432647    0.002434108
     10        1          -0.000246229    0.013492738   -0.000768868
     11        1          -0.000518700    0.005665231   -0.002227723
 -------------------------------------------------------------------
 Cartesian Forces:  Max     0.040529873 RMS     0.012445961
 Leave Link  716 at Wed May 26 08:16:49 2021, MaxMem=  2147483648 cpu:         0.2
 (Enter /opt/cluster/programs/g09_d.01/g09/l103.exe)

 GradGradGradGradGradGradGradGradGradGradGradGradGradGradGradGradGradGrad
 Berny optimization.
 FormGI is forming the generalized inverse of G from B-inverse, IUseBI=4.
 Internal  Forces:  Max     0.054955120 RMS     0.013276685
 Search for a local minimum.
 Step number   1 out of a maximum of   47
 All quantities printed in internal units (Hartrees-Bohrs-Radians)
 RMS Force = .13277D-01 SwitMx=.10000D-02 MixMth= 1
 Mixed Optimization -- RFO/linear search
 Second derivative matrix not updated -- first step.
 ITU=  0
     Eigenvalues ---    0.00230   0.00230   0.00600   0.00714   0.07286
     Eigenvalues ---    0.07456   0.09632   0.09692   0.16000   0.16000
     Eigenvalues ---    0.16000   0.16000   0.16000   0.16000   0.24987
     Eigenvalues ---    0.25000   0.25000   0.30531   0.30721   0.31968
     Eigenvalues ---    0.34068   0.34242   0.34264   0.34274   0.34337
     Eigenvalues ---    0.34849   0.87459
 RFO step:  Lambda=-2.07801544D-02 EMin= 2.30000000D-03
 Linear search not attempted -- first point.
 Iteration  1 RMS(Cart)=  0.09483023 RMS(Int)=  0.00441697
 Iteration  2 RMS(Cart)=  0.00437708 RMS(Int)=  0.00107397
 Iteration  3 RMS(Cart)=  0.00001443 RMS(Int)=  0.00107389
 Iteration  4 RMS(Cart)=  0.00000001 RMS(Int)=  0.00107389
 ITry= 1 IFail=0 DXMaxC= 2.89D-01 DCOld= 1.00D+10 DXMaxT= 3.00D-01 DXLimC= 3.00D+00 Rises=F
 Variable       Old X    -DE/DX   Delta X   Delta X   Delta X     New X
                                 (Linear)    (Quad)   (Total)
    R1        2.84202  -0.00407   0.00000  -0.01195  -0.01195   2.83007
    R2        2.07216  -0.00195   0.00000  -0.00539  -0.00539   2.06677
    R3        2.06924  -0.00195   0.00000  -0.00537  -0.00537   2.06388
    R4        2.05921   0.00159   0.00000   0.00430   0.00430   2.06351
    R5        2.86917  -0.05496   0.00000  -0.16853  -0.16853   2.70065
    R6        2.34127  -0.03451   0.00000  -0.03855  -0.03855   2.30272
    R7        2.86549  -0.03117   0.00000  -0.09502  -0.09502   2.77046
    R8        2.06870   0.00075   0.00000   0.00207   0.00207   2.07077
    R9        2.06766  -0.00427   0.00000  -0.01172  -0.01172   2.05594
   R10        2.06887  -0.00055   0.00000  -0.00150  -0.00150   2.06737
    A1        1.91004  -0.00110   0.00000  -0.01271  -0.01286   1.89719
    A2        1.90714  -0.00051   0.00000  -0.00307  -0.00326   1.90388
    A3        1.95052  -0.00106   0.00000   0.00108   0.00102   1.95155
    A4        1.93130  -0.00272   0.00000  -0.02902  -0.02931   1.90198
    A5        1.89567   0.00133   0.00000   0.00820   0.00818   1.90385
    A6        1.86907   0.00409   0.00000   0.03585   0.03575   1.90483
    A7        2.05973  -0.01439   0.00000  -0.05179  -0.05380   2.00594
    A8        2.11703   0.02006   0.00000   0.07549   0.07336   2.19039
    A9        2.10559  -0.00555   0.00000  -0.01920  -0.02110   2.08449
   A10        1.96921  -0.00546   0.00000  -0.02015  -0.02015   1.94906
   A11        1.93408  -0.00186   0.00000  -0.00701  -0.00787   1.92621
   A12        1.93107  -0.01761   0.00000  -0.10299  -0.10456   1.82651
   A13        1.93910  -0.00388   0.00000  -0.01918  -0.02024   1.91886
   A14        1.88386   0.00828   0.00000   0.04142   0.04001   1.92387
   A15        1.88709   0.00750   0.00000   0.05200   0.05151   1.93860
   A16        1.88676   0.00870   0.00000   0.04195   0.04005   1.92681
    D1       -1.83354  -0.00290   0.00000  -0.06996  -0.07063  -1.90417
    D2        1.26448   0.00008   0.00000   0.04695   0.04785   1.31232
    D3        2.33241   0.00145   0.00000  -0.02440  -0.02526   2.30715
    D4       -0.85276   0.00443   0.00000   0.09251   0.09321  -0.75955
    D5        0.26696  -0.00264   0.00000  -0.06750  -0.06831   0.19865
    D6       -2.91821   0.00033   0.00000   0.04941   0.05016  -2.86805
    D7        1.57912   0.00349   0.00000   0.13177   0.12912   1.70823
    D8       -1.51920  -0.00014   0.00000   0.01318   0.01584  -1.50336
    D9       -1.10583  -0.00268   0.00000  -0.02356  -0.02275  -1.12857
   D10        3.08839  -0.00034   0.00000  -0.00368  -0.00326   3.08513
   D11        0.99249   0.00296   0.00000   0.02459   0.02336   1.01585
         Item               Value     Threshold  Converged?
 Maximum Force            0.054955     0.000450     NO 
 RMS     Force            0.013277     0.000300     NO 
 Maximum Displacement     0.288604     0.001800     NO 
 RMS     Displacement     0.096078     0.001200     NO 
 Predicted change in Energy=-1.151874D-02
 Lowest energy point so far.  Saving SCF results.
 GradGradGradGradGradGradGradGradGradGradGradGradGradGradGradGradGradGrad

 Leave Link  103 at Wed May 26 08:16:49 2021, MaxMem=  2147483648 cpu:         0.1
 (Enter /opt/cluster/programs/g09_d.01/g09/l202.exe)
                          Input orientation:                          
 ---------------------------------------------------------------------
 Center     Atomic      Atomic             Coordinates (Angstroms)
 Number     Number       Type             X           Y           Z
 ---------------------------------------------------------------------
      1          6           0       -3.049198    1.527964    1.369671
      2          6           0       -2.543734    1.133265    0.016323
      3          1           0       -3.766171    0.775211    1.709469
      4          1           0       -3.555903    2.492522    1.294264
      5          1           0       -2.239804    1.604783    2.098616
      6          8           0       -1.185379    0.690148   -0.013751
      7          8           0       -3.164112    1.233556   -1.027674
      8          6           0       -1.092505   -0.772816    0.007735
      9          1           0       -1.481419   -1.165740    0.953858
     10          1           0       -0.028311   -0.982278   -0.077522
     11          1           0       -1.633464   -1.193615   -0.844990
 ---------------------------------------------------------------------
                    Distance matrix (angstroms):
                    1          2          3          4          5
     1  C    0.000000
     2  C    1.497609   0.000000
     3  H    1.093687   2.118797   0.000000
     4  H    1.092157   2.122546   1.779260   0.000000
     5  H    1.091963   2.156536   1.780288   1.779658   0.000000
     6  O    2.467715   1.429120   3.104386   3.252513   2.531890
     7  O    2.418086   1.218547   2.839808   2.670185   3.281135
     8  C    3.313172   2.395680   3.527148   4.287880   3.367648
     9  H    3.144340   2.700539   3.091655   4.219270   3.092155
    10  H    4.185862   3.288111   4.500411   5.138086   4.039698
    11  H    3.783652   2.642882   3.866520   4.675445   4.106520
                    6          7          8          9         10
     6  O    0.000000
     7  O    2.288824   0.000000
     8  C    1.466067   3.064173   0.000000
     9  H    2.113819   3.537591   1.095807   0.000000
    10  H    2.034670   3.955497   1.087957   1.791347   0.000000
    11  H    2.107203   2.875312   1.094006   1.805478   1.791699
                   11
    11  H    0.000000
 Stoichiometry    C3H6O2
 Framework group  C1[X(C3H6O2)]
 Deg. of freedom    27
 Full point group                 C1      NOp   1
 RotChk:  IX=0 Diff= 6.24D-02
 Largest Abelian subgroup         C1      NOp   1
 Largest concise Abelian subgroup C1      NOp   1
                         Standard orientation:                         
 ---------------------------------------------------------------------
 Center     Atomic      Atomic             Coordinates (Angstroms)
 Number     Number       Type             X           Y           Z
 ---------------------------------------------------------------------
      1          6           0        1.411450   -0.973180    0.111861
      2          6           0        0.517095    0.211075   -0.089388
      3          1           0        1.477299   -1.184904    1.182836
      4          1           0        2.408591   -0.735782   -0.265179
      5          1           0        1.034839   -1.858525   -0.404579
      6          8           0       -0.751374   -0.084972   -0.677374
      7          8           0        0.817089    1.370608    0.134985
      8          6           0       -1.803484   -0.204546    0.336587
      9          1           0       -1.605942   -1.060235    0.991999
     10          1           0       -2.716285   -0.369073   -0.232075
     11          1           0       -1.874581    0.723341    0.911758
 ---------------------------------------------------------------------
 Rotational constants (GHZ):      8.1607442      4.1598440      3.1959430
 Leave Link  202 at Wed May 26 08:16:49 2021, MaxMem=  2147483648 cpu:         0.0
 (Enter /opt/cluster/programs/g09_d.01/g09/l301.exe)
 Standard basis: 6-31+G (6D, 7F)
 Ernie: Thresh=  0.10000D-02 Tol=  0.10000D-05 Strict=F.
 There are    77 symmetry adapted cartesian basis functions of A   symmetry.
 There are    77 symmetry adapted basis functions of A   symmetry.
    77 basis functions,   154 primitive gaussians,    77 cartesian basis functions
    20 alpha electrons       20 beta electrons
       nuclear repulsion energy       178.1960336835 Hartrees.
 IExCor= 4639 DFT=T Ex+Corr=wB97XD ExCW=0 ScaHFX=  1.000000
 ScaDFX=  1.000000  1.000000  1.000000  1.000000 ScalE2=  1.000000  1.000000
 IRadAn=      0 IRanWt=     -1 IRanGd=            0 ICorTp=0 IEmpDi=121
  HFx wShort=  0.000000 wLong=  0.200000 cFull=  0.222036 cShort=  0.000000 cLong=  0.777964
  DFx wShort=  0.000000 wLong=  0.200000 cFull=  0.000000 cShort=  0.000000 cLong=  1.000000
 NAtoms=   11 NActive=   11 NUniq=   11 SFac= 1.00D+00 NAtFMM=   60 NAOKFM=F Big=F
 Integral buffers will be    131072 words long.
 Raffenetti 2 integral format.
 Two-electron integral symmetry is turned on.
 R6Disp:  Grimme-D2 Dispersion energy=       -0.0034564117 Hartrees.
 Nuclear repulsion after empirical dispersion term =      178.1925772718 Hartrees.
 Leave Link  301 at Wed May 26 08:16:49 2021, MaxMem=  2147483648 cpu:         0.3
 (Enter /opt/cluster/programs/g09_d.01/g09/l302.exe)
 NPDir=0 NMtPBC=     1 NCelOv=     1 NCel=       1 NClECP=     1 NCelD=      1
         NCelK=      1 NCelE2=     1 NClLst=     1 CellRange=     0.0.
 One-electron integrals computed using PRISM.
 NBasis=    77 RedAO= T EigKep=  1.74D-04  NBF=    77
 NBsUse=    77 1.00D-06 EigRej= -1.00D+00 NBFU=    77
 Precomputing XC quadrature grid using
 IXCGrd= 4 IRadAn=           0 IRanWt=          -1 IRanGd=           0 AccXCQ= 0.00D+00.
 Generated NRdTot=       0 NPtTot=           0 NUsed=           0 NTot=          32
 NSgBfM=    77    77    77    77    77 MxSgAt=    11 MxSgA2=    11.
 Leave Link  302 at Wed May 26 08:16:50 2021, MaxMem=  2147483648 cpu:         0.9
 (Enter /opt/cluster/programs/g09_d.01/g09/l303.exe)
 DipDrv:  MaxL=1.
 Leave Link  303 at Wed May 26 08:16:50 2021, MaxMem=  2147483648 cpu:         0.2
 (Enter /opt/cluster/programs/g09_d.01/g09/l401.exe)
 Initial guess from the checkpoint file:  "/home/unibas/boittier/RDKit_G2/O.pdb/OPT_wB97XD_6-31+G/O.pdb.chk"
 B after Tr=     0.000000    0.000000    0.000000
         Rot=    0.999670    0.016682    0.002987   -0.019294 Ang=   2.94 deg.
 Guess basis will be translated and rotated to current coordinates.
 JPrj=2 DoOrth=T DoCkMO=T.
 Generating alternative initial guess.
 ExpMin= 4.38D-02 ExpMax= 5.48D+03 ExpMxC= 8.25D+02 IAcc=2 IRadAn=         4 AccDes= 0.00D+00
 Harris functional with IExCor= 4639 and IRadAn=       4 diagonalized for initial guess.
 HarFok:  IExCor= 4639 AccDes= 0.00D+00 IRadAn=         4 IDoV= 1 UseB2=F ITyADJ=14
 ICtDFT=  3500011 ScaDFX=  1.000000  1.000000  1.000000  1.000000
 FoFCou: FMM=F IPFlag=           0 FMFlag=      100000 FMFlg1=           0
         NFxFlg=           0 DoJE=T BraDBF=F KetDBF=T FulRan=T
         wScrn=  0.000000 ICntrl=     500 IOpCl=  0 I1Cent=   200000004 NGrid=           0
         NMat0=    1 NMatS0=      1 NMatT0=    0 NMatD0=    1 NMtDS0=    0 NMtDT0=    0
 Petite list used in FoFCou.
 Harris En= -257.353447341377    
 Leave Link  401 at Wed May 26 08:16:50 2021, MaxMem=  2147483648 cpu:         1.8
 (Enter /opt/cluster/programs/g09_d.01/g09/l502.exe)
 Closed shell SCF:
 Using DIIS extrapolation, IDIIS=  1040.
 Integral symmetry usage will be decided dynamically.
 Keep R1 ints in memory in canonical form, NReq=9956864.
 IVT=       37546 IEndB=       37546 NGot=  2147483648 MDV=  2138425091
 LenX=  2138425091 LenY=  2138418721
 Requested convergence on RMS density matrix=1.00D-08 within 128 cycles.
 Requested convergence on MAX density matrix=1.00D-06.
 Requested convergence on             energy=1.00D-06.
 No special actions if energy rises.
 FoFCou: FMM=F IPFlag=           0 FMFlag=           0 FMFlg1=           0
         NFxFlg=           0 DoJE=F BraDBF=F KetDBF=F FulRan=T
         wScrn=  0.000000 ICntrl=     600 IOpCl=  0 I1Cent=           0 NGrid=           0
         NMat0=    1 NMatS0=   3003 NMatT0=    0 NMatD0=    1 NMtDS0=    0 NMtDT0=    0
 Symmetry not used in FoFCou.

 Cycle   1  Pass 1  IDiag  1:
 E= -268.188736396008    
 DIIS: error= 4.26D-03 at cycle   1 NSaved=   1.
 NSaved= 1 IEnMin= 1 EnMin= -268.188736396008     IErMin= 1 ErrMin= 4.26D-03
 ErrMax= 4.26D-03  0.00D+00 EMaxC= 1.00D-01 BMatC= 5.02D-03 BMatP= 5.02D-03
 IDIUse=3 WtCom= 9.57D-01 WtEn= 4.26D-02
 Coeff-Com:  0.100D+01
 Coeff-En:   0.100D+01
 Coeff:      0.100D+01
 Gap=     0.623 Goal=   None    Shift=    0.000
 GapD=    0.623 DampG=2.000 DampE=1.000 DampFc=2.0000 IDamp=-1.
 RMSDP=3.40D-03 MaxDP=5.42D-02              OVMax= 1.97D-02

 Cycle   2  Pass 1  IDiag  1:
 E= -268.196615512782     Delta-E=       -0.007879116774 Rises=F Damp=F
 DIIS: error= 1.50D-03 at cycle   2 NSaved=   2.
 NSaved= 2 IEnMin= 2 EnMin= -268.196615512782     IErMin= 2 ErrMin= 1.50D-03
 ErrMax= 1.50D-03  0.00D+00 EMaxC= 1.00D-01 BMatC= 3.78D-04 BMatP= 5.02D-03
 IDIUse=3 WtCom= 9.85D-01 WtEn= 1.50D-02
 Coeff-Com: -0.245D-01 0.102D+01
 Coeff-En:   0.000D+00 0.100D+01
 Coeff:     -0.242D-01 0.102D+01
 Gap=     0.404 Goal=   None    Shift=    0.000
 RMSDP=6.74D-04 MaxDP=6.63D-03 DE=-7.88D-03 OVMax= 1.10D-02

 Cycle   3  Pass 1  IDiag  1:
 E= -268.196856847277     Delta-E=       -0.000241334496 Rises=F Damp=F
 DIIS: error= 1.70D-03 at cycle   3 NSaved=   3.
 NSaved= 3 IEnMin= 3 EnMin= -268.196856847277     IErMin= 2 ErrMin= 1.50D-03
 ErrMax= 1.70D-03  0.00D+00 EMaxC= 1.00D-01 BMatC= 4.69D-04 BMatP= 3.78D-04
 IDIUse=3 WtCom= 1.95D-01 WtEn= 8.05D-01
 Coeff-Com: -0.912D-01 0.586D+00 0.506D+00
 Coeff-En:   0.000D+00 0.261D+00 0.739D+00
 Coeff:     -0.178D-01 0.324D+00 0.694D+00
 Gap=     0.404 Goal=   None    Shift=    0.000
 RMSDP=4.91D-04 MaxDP=6.06D-03 DE=-2.41D-04 OVMax= 8.70D-03

 Cycle   4  Pass 1  IDiag  1:
 E= -268.197033051768     Delta-E=       -0.000176204491 Rises=F Damp=F
 DIIS: error= 1.44D-03 at cycle   4 NSaved=   4.
 NSaved= 4 IEnMin= 4 EnMin= -268.197033051768     IErMin= 4 ErrMin= 1.44D-03
 ErrMax= 1.44D-03  0.00D+00 EMaxC= 1.00D-01 BMatC= 2.73D-04 BMatP= 3.78D-04
 IDIUse=3 WtCom= 9.86D-01 WtEn= 1.44D-02
 Coeff-Com: -0.381D-01 0.104D+00 0.452D+00 0.483D+00
 Coeff-En:   0.000D+00 0.000D+00 0.363D+00 0.637D+00
 Coeff:     -0.376D-01 0.102D+00 0.450D+00 0.485D+00
 Gap=     0.403 Goal=   None    Shift=    0.000
 RMSDP=1.85D-04 MaxDP=3.25D-03 DE=-1.76D-04 OVMax= 4.38D-03

 Cycle   5  Pass 1  IDiag  1:
 E= -268.197237302644     Delta-E=       -0.000204250876 Rises=F Damp=F
 DIIS: error= 8.12D-05 at cycle   5 NSaved=   5.
 NSaved= 5 IEnMin= 5 EnMin= -268.197237302644     IErMin= 5 ErrMin= 8.12D-05
 ErrMax= 8.12D-05  0.00D+00 EMaxC= 1.00D-01 BMatC= 1.19D-06 BMatP= 2.73D-04
 IDIUse=1 WtCom= 1.00D+00 WtEn= 0.00D+00
 Coeff-Com:  0.373D-02-0.540D-01 0.357D-01 0.106D+00 0.908D+00
 Coeff:      0.373D-02-0.540D-01 0.357D-01 0.106D+00 0.908D+00
 Gap=     0.402 Goal=   None    Shift=    0.000
 RMSDP=4.66D-05 MaxDP=6.11D-04 DE=-2.04D-04 OVMax= 4.17D-04

 Cycle   6  Pass 1  IDiag  1:
 E= -268.197238789374     Delta-E=       -0.000001486730 Rises=F Damp=F
 DIIS: error= 4.97D-05 at cycle   6 NSaved=   6.
 NSaved= 6 IEnMin= 6 EnMin= -268.197238789374     IErMin= 6 ErrMin= 4.97D-05
 ErrMax= 4.97D-05  0.00D+00 EMaxC= 1.00D-01 BMatC= 3.23D-07 BMatP= 1.19D-06
 IDIUse=1 WtCom= 1.00D+00 WtEn= 0.00D+00
 Coeff-Com:  0.465D-02-0.343D-01-0.142D-01 0.184D-01 0.465D+00 0.561D+00
 Coeff:      0.465D-02-0.343D-01-0.142D-01 0.184D-01 0.465D+00 0.561D+00
 Gap=     0.402 Goal=   None    Shift=    0.000
 RMSDP=1.19D-05 MaxDP=1.51D-04 DE=-1.49D-06 OVMax= 1.51D-04

 Cycle   7  Pass 1  IDiag  1:
 E= -268.197239081162     Delta-E=       -0.000000291788 Rises=F Damp=F
 DIIS: error= 1.12D-05 at cycle   7 NSaved=   7.
 NSaved= 7 IEnMin= 7 EnMin= -268.197239081162     IErMin= 7 ErrMin= 1.12D-05
 ErrMax= 1.12D-05  0.00D+00 EMaxC= 1.00D-01 BMatC= 8.45D-09 BMatP= 3.23D-07
 IDIUse=1 WtCom= 1.00D+00 WtEn= 0.00D+00
 Coeff-Com: -0.377D-04 0.317D-02-0.557D-02-0.109D-01-0.680D-01 0.597D-01
 Coeff-Com:  0.102D+01
 Coeff:     -0.377D-04 0.317D-02-0.557D-02-0.109D-01-0.680D-01 0.597D-01
 Coeff:      0.102D+01
 Gap=     0.402 Goal=   None    Shift=    0.000
 RMSDP=6.39D-06 MaxDP=1.24D-04 DE=-2.92D-07 OVMax= 8.25D-05

 Cycle   8  Pass 1  IDiag  1:
 E= -268.197239103089     Delta-E=       -0.000000021927 Rises=F Damp=F
 DIIS: error= 3.90D-06 at cycle   8 NSaved=   8.
 NSaved= 8 IEnMin= 8 EnMin= -268.197239103089     IErMin= 8 ErrMin= 3.90D-06
 ErrMax= 3.90D-06  0.00D+00 EMaxC= 1.00D-01 BMatC= 1.18D-09 BMatP= 8.45D-09
 IDIUse=1 WtCom= 1.00D+00 WtEn= 0.00D+00
 Coeff-Com: -0.333D-03 0.343D-02-0.854D-03-0.475D-02-0.553D-01-0.196D-01
 Coeff-Com:  0.324D+00 0.754D+00
 Coeff:     -0.333D-03 0.343D-02-0.854D-03-0.475D-02-0.553D-01-0.196D-01
 Coeff:      0.324D+00 0.754D+00
 Gap=     0.402 Goal=   None    Shift=    0.000
 RMSDP=1.31D-06 MaxDP=1.95D-05 DE=-2.19D-08 OVMax= 3.15D-05

 Cycle   9  Pass 1  IDiag  1:
 E= -268.197239105819     Delta-E=       -0.000000002730 Rises=F Damp=F
 DIIS: error= 2.16D-06 at cycle   9 NSaved=   9.
 NSaved= 9 IEnMin= 9 EnMin= -268.197239105819     IErMin= 9 ErrMin= 2.16D-06
 ErrMax= 2.16D-06  0.00D+00 EMaxC= 1.00D-01 BMatC= 1.02D-10 BMatP= 1.18D-09
 IDIUse=1 WtCom= 1.00D+00 WtEn= 0.00D+00
 Coeff-Com:  0.328D-04-0.766D-03 0.986D-03 0.220D-02 0.150D-01-0.841D-02
 Coeff-Com: -0.190D+00-0.652D-01 0.125D+01
 Coeff:      0.328D-04-0.766D-03 0.986D-03 0.220D-02 0.150D-01-0.841D-02
 Coeff:     -0.190D+00-0.652D-01 0.125D+01
 Gap=     0.402 Goal=   None    Shift=    0.000
 RMSDP=6.79D-07 MaxDP=7.63D-06 DE=-2.73D-09 OVMax= 2.86D-05

 Cycle  10  Pass 1  IDiag  1:
 E= -268.197239106520     Delta-E=       -0.000000000701 Rises=F Damp=F
 DIIS: error= 5.49D-07 at cycle  10 NSaved=  10.
 NSaved=10 IEnMin=10 EnMin= -268.197239106520     IErMin=10 ErrMin= 5.49D-07
 ErrMax= 5.49D-07  0.00D+00 EMaxC= 1.00D-01 BMatC= 6.79D-12 BMatP= 1.02D-10
 IDIUse=1 WtCom= 1.00D+00 WtEn= 0.00D+00
 Coeff-Com:  0.126D-04-0.257D-04-0.202D-03-0.271D-03-0.224D-03 0.439D-02
 Coeff-Com:  0.271D-01-0.316D-01-0.352D+00 0.135D+01
 Coeff:      0.126D-04-0.257D-04-0.202D-03-0.271D-03-0.224D-03 0.439D-02
 Coeff:      0.271D-01-0.316D-01-0.352D+00 0.135D+01
 Gap=     0.402 Goal=   None    Shift=    0.000
 RMSDP=2.56D-07 MaxDP=3.44D-06 DE=-7.01D-10 OVMax= 9.75D-06

 Cycle  11  Pass 1  IDiag  1:
 E= -268.197239106579     Delta-E=       -0.000000000059 Rises=F Damp=F
 DIIS: error= 9.61D-08 at cycle  11 NSaved=  11.
 NSaved=11 IEnMin=11 EnMin= -268.197239106579     IErMin=11 ErrMin= 9.61D-08
 ErrMax= 9.61D-08  0.00D+00 EMaxC= 1.00D-01 BMatC= 4.96D-13 BMatP= 6.79D-12
 IDIUse=1 WtCom= 1.00D+00 WtEn= 0.00D+00
 Coeff-Com: -0.206D-05 0.573D-04-0.841D-04-0.177D-03-0.114D-02 0.812D-03
 Coeff-Com:  0.155D-01 0.477D-02-0.111D+00 0.467D-01 0.104D+01
 Coeff:     -0.206D-05 0.573D-04-0.841D-04-0.177D-03-0.114D-02 0.812D-03
 Coeff:      0.155D-01 0.477D-02-0.111D+00 0.467D-01 0.104D+01
 Gap=     0.402 Goal=   None    Shift=    0.000
 RMSDP=6.42D-08 MaxDP=9.07D-07 DE=-5.88D-11 OVMax= 1.94D-06

 Cycle  12  Pass 1  IDiag  1:
 E= -268.197239106583     Delta-E=       -0.000000000004 Rises=F Damp=F
 DIIS: error= 2.86D-08 at cycle  12 NSaved=  12.
 NSaved=12 IEnMin=12 EnMin= -268.197239106583     IErMin=12 ErrMin= 2.86D-08
 ErrMax= 2.86D-08  0.00D+00 EMaxC= 1.00D-01 BMatC= 9.02D-14 BMatP= 4.96D-13
 IDIUse=1 WtCom= 1.00D+00 WtEn= 0.00D+00
 Coeff-Com: -0.186D-05 0.200D-04-0.685D-05-0.300D-04-0.329D-03-0.173D-03
 Coeff-Com:  0.206D-02 0.433D-02-0.105D-02-0.108D+00 0.307D+00 0.796D+00
 Coeff:     -0.186D-05 0.200D-04-0.685D-05-0.300D-04-0.329D-03-0.173D-03
 Coeff:      0.206D-02 0.433D-02-0.105D-02-0.108D+00 0.307D+00 0.796D+00
 Gap=     0.402 Goal=   None    Shift=    0.000
 RMSDP=1.24D-08 MaxDP=1.16D-07 DE=-4.15D-12 OVMax= 3.61D-07

 Cycle  13  Pass 1  IDiag  1:
 E= -268.197239106582     Delta-E=        0.000000000001 Rises=F Damp=F
 DIIS: error= 1.42D-08 at cycle  13 NSaved=  13.
 NSaved=13 IEnMin=12 EnMin= -268.197239106583     IErMin=13 ErrMin= 1.42D-08
 ErrMax= 1.42D-08  0.00D+00 EMaxC= 1.00D-01 BMatC= 7.28D-15 BMatP= 9.02D-14
 IDIUse=1 WtCom= 1.00D+00 WtEn= 0.00D+00
 Coeff-Com:  0.257D-06-0.775D-05 0.122D-04 0.237D-04 0.159D-03-0.990D-04
 Coeff-Com: -0.220D-02-0.524D-03 0.160D-01-0.872D-02-0.150D+00 0.137D-01
 Coeff-Com:  0.113D+01
 Coeff:      0.257D-06-0.775D-05 0.122D-04 0.237D-04 0.159D-03-0.990D-04
 Coeff:     -0.220D-02-0.524D-03 0.160D-01-0.872D-02-0.150D+00 0.137D-01
 Coeff:      0.113D+01
 Gap=     0.402 Goal=   None    Shift=    0.000
 RMSDP=5.64D-09 MaxDP=4.87D-08 DE= 7.39D-13 OVMax= 1.68D-07

 SCF Done:  E(RwB97XD) =  -268.197239107     A.U. after   13 cycles
            NFock= 13  Conv=0.56D-08     -V/T= 2.0058
 KE= 2.666489321205D+02 PE=-9.839513432886D+02 EE= 2.709125947897D+02
 Leave Link  502 at Wed May 26 08:16:52 2021, MaxMem=  2147483648 cpu:        14.4
 (Enter /opt/cluster/programs/g09_d.01/g09/l701.exe)
 Compute integral first derivatives.
 ... and contract with generalized density number  0.
 R6Disp: Adding Grimme-D2 dispersion energy 1st derivatives to the gradient.
 Leave Link  701 at Wed May 26 08:16:52 2021, MaxMem=  2147483648 cpu:         0.6
 (Enter /opt/cluster/programs/g09_d.01/g09/l702.exe)
 L702 exits ... SP integral derivatives will be done elsewhere.
 Leave Link  702 at Wed May 26 08:16:52 2021, MaxMem=  2147483648 cpu:         0.2
 (Enter /opt/cluster/programs/g09_d.01/g09/l703.exe)
 Compute integral first derivatives, UseDBF=F ICtDFT=           0.
 Integral derivatives from FoFJK, PRISM(SPDF).
 Calling FoFJK, ICntrl=      2127 FMM=F ISym2X=0 I1Cent= 0 IOpClX= 0 NMat=1 NMatS=1 NMatT=0.
 FoFJK:  IHMeth= 1 ICntrl=    2127 DoSepK=T KAlg= 0 I1Cent=   0 FoldK=F
 IRaf=         1 NMat=   1 IRICut=       1 DoRegI=T DoRafI=F ISym2E= 0.
 FoFCou: FMM=F IPFlag=           0 FMFlag=      100000 FMFlg1=         800
         NFxFlg=           0 DoJE=F BraDBF=F KetDBF=F FulRan=T
         wScrn=  0.000000 ICntrl=    2527 IOpCl=  0 I1Cent=           0 NGrid=           0
         NMat0=    1 NMatS0=      1 NMatT0=    0 NMatD0=    1 NMtDS0=    0 NMtDT0=    0
 Symmetry not used in FoFCou.
 Leave Link  703 at Wed May 26 08:16:52 2021, MaxMem=  2147483648 cpu:         3.6
 (Enter /opt/cluster/programs/g09_d.01/g09/l716.exe)
 Dipole        =-2.44758250D-01-1.23438022D+00 6.51583996D-01
 ***** Axes restored to original set *****
 -------------------------------------------------------------------
 Center     Atomic                   Forces (Hartrees/Bohr)
 Number     Number              X              Y              Z
 -------------------------------------------------------------------
      1        6           0.003078451    0.000415915    0.001497205
      2        6           0.021062178    0.006789811   -0.004942275
      3        1          -0.002267328    0.000917282    0.001436505
      4        1          -0.002574760   -0.001029266    0.000316837
      5        1          -0.000097843   -0.001202160   -0.002078524
      6        8          -0.020154967   -0.001156552    0.007169827
      7        8          -0.005573498   -0.002371138   -0.000883690
      8        6           0.006338768    0.000724284   -0.002780708
      9        1           0.000253492   -0.000543707   -0.000570440
     10        1          -0.000496639   -0.002103312    0.000177913
     11        1           0.000432146   -0.000441157    0.000657349
 -------------------------------------------------------------------
 Cartesian Forces:  Max     0.021062178 RMS     0.005770132
 Leave Link  716 at Wed May 26 08:16:52 2021, MaxMem=  2147483648 cpu:         0.2
 (Enter /opt/cluster/programs/g09_d.01/g09/l103.exe)

 GradGradGradGradGradGradGradGradGradGradGradGradGradGradGradGradGradGrad
 Berny optimization.
 Using GEDIIS/GDIIS optimizer.
 FormGI is forming the generalized inverse of G from B-inverse, IUseBI=4.
 Internal  Forces:  Max     0.014951034 RMS     0.003708914
 Search for a local minimum.
 Step number   2 out of a maximum of   47
 All quantities printed in internal units (Hartrees-Bohrs-Radians)
 RMS Force = .37089D-02 SwitMx=.10000D-02 MixMth= 1
 Mixed Optimization -- RFO/linear search
 Update second derivatives using D2CorX and points    1    2
 DE= -1.14D-02 DEPred=-1.15D-02 R= 9.86D-01
 TightC=F SS=  1.41D+00  RLast= 3.31D-01 DXNew= 5.0454D-01 9.9424D-01
 Trust test= 9.86D-01 RLast= 3.31D-01 DXMaxT set to 5.05D-01
 ITU=  1  0
 Use linear search instead of GDIIS.
     Eigenvalues ---    0.00225   0.00230   0.00691   0.00714   0.07243
     Eigenvalues ---    0.07568   0.09852   0.10450   0.15566   0.16000
     Eigenvalues ---    0.16000   0.16000   0.16000   0.16949   0.21590
     Eigenvalues ---    0.24983   0.25993   0.29051   0.31879   0.33535
     Eigenvalues ---    0.34183   0.34254   0.34268   0.34301   0.34513
     Eigenvalues ---    0.35258   0.88764
 RFO step:  Lambda=-5.51836639D-03 EMin= 2.24887466D-03
 Quartic linear search produced a step of  0.02726.
 Iteration  1 RMS(Cart)=  0.10381166 RMS(Int)=  0.04392861
 Iteration  2 RMS(Cart)=  0.09946557 RMS(Int)=  0.00480300
 Iteration  3 RMS(Cart)=  0.00513029 RMS(Int)=  0.00213250
 Iteration  4 RMS(Cart)=  0.00001310 RMS(Int)=  0.00213248
 Iteration  5 RMS(Cart)=  0.00000000 RMS(Int)=  0.00213248
 ITry= 1 IFail=0 DXMaxC= 5.13D-01 DCOld= 1.00D+10 DXMaxT= 5.05D-01 DXLimC= 3.00D+00 Rises=F
 Variable       Old X    -DE/DX   Delta X   Delta X   Delta X     New X
                                 (Linear)    (Quad)   (Total)
    R1        2.83007   0.00145  -0.00033   0.00170   0.00138   2.83145
    R2        2.06677   0.00130  -0.00015   0.00255   0.00241   2.06918
    R3        2.06388   0.00026  -0.00015  -0.00051  -0.00066   2.06322
    R4        2.06351  -0.00155   0.00012  -0.00343  -0.00331   2.06020
    R5        2.70065  -0.01194  -0.00459  -0.07948  -0.08408   2.61657
    R6        2.30272   0.00341  -0.00105  -0.00547  -0.00652   2.29620
    R7        2.77046   0.00271  -0.00259  -0.01383  -0.01642   2.75405
    R8        2.07077  -0.00039   0.00006  -0.00065  -0.00060   2.07018
    R9        2.05594  -0.00009  -0.00032  -0.00307  -0.00339   2.05255
   R10        2.06737  -0.00056  -0.00004  -0.00201  -0.00205   2.06532
    A1        1.89719   0.00281  -0.00035   0.01271   0.01239   1.90958
    A2        1.90388   0.00118  -0.00009   0.00617   0.00610   1.90998
    A3        1.95155  -0.00275   0.00003  -0.01475  -0.01468   1.93686
    A4        1.90198  -0.00284  -0.00080  -0.02860  -0.02938   1.87260
    A5        1.90385   0.00007   0.00022   0.00307   0.00334   1.90720
    A6        1.90483   0.00149   0.00097   0.02061   0.02161   1.92644
    A7        2.00594  -0.00317  -0.00147  -0.02062  -0.02955   1.97639
    A8        2.19039  -0.00198   0.00200   0.01433   0.00888   2.19927
    A9        2.08449   0.00531  -0.00058   0.02101   0.01291   2.09740
   A10        1.94906   0.01495  -0.00055   0.05504   0.05449   2.00355
   A11        1.92621   0.00037  -0.00021  -0.00047  -0.00071   1.92550
   A12        1.82651   0.00313  -0.00285  -0.00401  -0.00691   1.81960
   A13        1.91886   0.00041  -0.00055  -0.00296  -0.00355   1.91531
   A14        1.92387  -0.00139   0.00109   0.00130   0.00234   1.92621
   A15        1.93860  -0.00101   0.00140   0.00344   0.00483   1.94343
   A16        1.92681  -0.00129   0.00109   0.00224   0.00327   1.93007
    D1       -1.90417   0.00108  -0.00193   0.11997   0.11777  -1.78640
    D2        1.31232  -0.00166   0.00130  -0.11218  -0.11057   1.20176
    D3        2.30715   0.00220  -0.00069   0.14350   0.14251   2.44966
    D4       -0.75955  -0.00055   0.00254  -0.08866  -0.08583  -0.84537
    D5        0.19865   0.00130  -0.00186   0.12298   0.12081   0.31946
    D6       -2.86805  -0.00144   0.00137  -0.10918  -0.10752  -2.97557
    D7        1.70823   0.00184   0.00352   0.27046   0.27410   1.98233
    D8       -1.50336   0.00409   0.00043   0.48728   0.48760  -1.01576
    D9       -1.12857   0.00040  -0.00062   0.00473   0.00414  -1.12444
   D10        3.08513   0.00008  -0.00009   0.00570   0.00563   3.09076
   D11        1.01585  -0.00035   0.00064   0.00676   0.00735   1.02320
         Item               Value     Threshold  Converged?
 Maximum Force            0.014951     0.000450     NO 
 RMS     Force            0.003709     0.000300     NO 
 Maximum Displacement     0.513122     0.001800     NO 
 RMS     Displacement     0.199990     0.001200     NO 
 Predicted change in Energy=-3.915019D-03
 Lowest energy point so far.  Saving SCF results.
 GradGradGradGradGradGradGradGradGradGradGradGradGradGradGradGradGradGrad

 Leave Link  103 at Wed May 26 08:16:52 2021, MaxMem=  2147483648 cpu:         0.1
 (Enter /opt/cluster/programs/g09_d.01/g09/l202.exe)
                          Input orientation:                          
 ---------------------------------------------------------------------
 Center     Atomic      Atomic             Coordinates (Angstroms)
 Number     Number       Type             X           Y           Z
 ---------------------------------------------------------------------
      1          6           0       -3.045176    1.620194    1.395700
      2          6           0       -2.520961    1.113516    0.086696
      3          1           0       -3.719697    0.875246    1.830455
      4          1           0       -3.628999    2.527176    1.226638
      5          1           0       -2.230150    1.817718    2.092316
      6          8           0       -1.225442    0.631419    0.166773
      7          8           0       -3.167133    0.962024   -0.931127
      8          6           0       -1.091928   -0.802409   -0.057428
      9          1           0       -1.608118   -1.360542    0.731327
     10          1           0       -0.021823   -0.982151   -0.009242
     11          1           0       -1.480575   -1.059191   -1.046109
 ---------------------------------------------------------------------
                    Distance matrix (angstroms):
                    1          2          3          4          5
     1  C    0.000000
     2  C    1.498337   0.000000
     3  H    1.094960   2.129421   0.000000
     4  H    1.091809   2.127357   1.761162   0.000000
     5  H    1.090209   2.145455   1.782015   1.791510   0.000000
     6  O    2.408188   1.384629   3.008088   3.239490   2.474763
     7  O    2.421196   1.215094   2.817657   2.705360   3.278926
     8  C    3.434497   2.394510   3.644695   4.378549   3.575194
     9  H    3.375102   2.714737   3.265822   4.409495   3.512912
    10  H    4.229270   3.262930   4.528651   5.182132   4.139144
    11  H    3.948356   2.662012   4.126782   4.758480   4.322982
                    6          7          8          9         10
     6  O    0.000000
     7  O    2.254961   0.000000
     8  C    1.457380   2.860604   0.000000
     9  H    2.105486   3.254013   1.095491   0.000000
    10  H    2.020715   3.810862   1.086165   1.791076   0.000000
    11  H    2.096268   2.634959   1.092919   1.807307   1.791364
                   11
    11  H    0.000000
 Stoichiometry    C3H6O2
 Framework group  C1[X(C3H6O2)]
 Deg. of freedom    27
 Full point group                 C1      NOp   1
 RotChk:  IX=0 Diff= 2.98D-01
 Largest Abelian subgroup         C1      NOp   1
 Largest concise Abelian subgroup C1      NOp   1
                         Standard orientation:                         
 ---------------------------------------------------------------------
 Center     Atomic      Atomic             Coordinates (Angstroms)
 Number     Number       Type             X           Y           Z
 ---------------------------------------------------------------------
      1          6           0        1.579750   -0.778082    0.175492
      2          6           0        0.506095    0.211090   -0.161878
      3          1           0        1.648705   -0.883475    1.263185
      4          1           0        2.542919   -0.402751   -0.175904
      5          1           0        1.367012   -1.751212   -0.267585
      6          8           0       -0.670439   -0.383069   -0.586074
      7          8           0        0.544722    1.407086    0.049206
      8          6           0       -1.803784   -0.204798    0.312649
      9          1           0       -1.612043   -0.701622    1.269990
     10          1           0       -2.631532   -0.683540   -0.202514
     11          1           0       -2.001696    0.861215    0.450192
 ---------------------------------------------------------------------
 Rotational constants (GHZ):      8.6274927      4.2165309      3.2248031
 Leave Link  202 at Wed May 26 08:16:52 2021, MaxMem=  2147483648 cpu:         0.0
 (Enter /opt/cluster/programs/g09_d.01/g09/l301.exe)
 Standard basis: 6-31+G (6D, 7F)
 Ernie: Thresh=  0.10000D-02 Tol=  0.10000D-05 Strict=F.
 There are    77 symmetry adapted cartesian basis functions of A   symmetry.
 There are    77 symmetry adapted basis functions of A   symmetry.
    77 basis functions,   154 primitive gaussians,    77 cartesian basis functions
    20 alpha electrons       20 beta electrons
       nuclear repulsion energy       179.9017275875 Hartrees.
 IExCor= 4639 DFT=T Ex+Corr=wB97XD ExCW=0 ScaHFX=  1.000000
 ScaDFX=  1.000000  1.000000  1.000000  1.000000 ScalE2=  1.000000  1.000000
 IRadAn=      0 IRanWt=     -1 IRanGd=            0 ICorTp=0 IEmpDi=121
  HFx wShort=  0.000000 wLong=  0.200000 cFull=  0.222036 cShort=  0.000000 cLong=  0.777964
  DFx wShort=  0.000000 wLong=  0.200000 cFull=  0.000000 cShort=  0.000000 cLong=  1.000000
 NAtoms=   11 NActive=   11 NUniq=   11 SFac= 1.00D+00 NAtFMM=   60 NAOKFM=F Big=F
 Integral buffers will be    131072 words long.
 Raffenetti 2 integral format.
 Two-electron integral symmetry is turned on.
 R6Disp:  Grimme-D2 Dispersion energy=       -0.0033104257 Hartrees.
 Nuclear repulsion after empirical dispersion term =      179.8984171617 Hartrees.
 Leave Link  301 at Wed May 26 08:16:53 2021, MaxMem=  2147483648 cpu:         0.3
 (Enter /opt/cluster/programs/g09_d.01/g09/l302.exe)
 NPDir=0 NMtPBC=     1 NCelOv=     1 NCel=       1 NClECP=     1 NCelD=      1
         NCelK=      1 NCelE2=     1 NClLst=     1 CellRange=     0.0.
 One-electron integrals computed using PRISM.
 NBasis=    77 RedAO= T EigKep=  1.56D-04  NBF=    77
 NBsUse=    77 1.00D-06 EigRej= -1.00D+00 NBFU=    77
 Precomputing XC quadrature grid using
 IXCGrd= 4 IRadAn=           0 IRanWt=          -1 IRanGd=           0 AccXCQ= 0.00D+00.
 Generated NRdTot=       0 NPtTot=           0 NUsed=           0 NTot=          32
 NSgBfM=    77    77    77    77    77 MxSgAt=    11 MxSgA2=    11.
 Leave Link  302 at Wed May 26 08:16:53 2021, MaxMem=  2147483648 cpu:         0.9
 (Enter /opt/cluster/programs/g09_d.01/g09/l303.exe)
 DipDrv:  MaxL=1.
 Leave Link  303 at Wed May 26 08:16:53 2021, MaxMem=  2147483648 cpu:         0.3
 (Enter /opt/cluster/programs/g09_d.01/g09/l401.exe)
 Initial guess from the checkpoint file:  "/home/unibas/boittier/RDKit_G2/O.pdb/OPT_wB97XD_6-31+G/O.pdb.chk"
 B after Tr=     0.000000    0.000000    0.000000
         Rot=    0.995853    0.072558    0.006756   -0.054474 Ang=  10.44 deg.
 Guess basis will be translated and rotated to current coordinates.
 JPrj=2 DoOrth=T DoCkMO=T.
 Generating alternative initial guess.
 ExpMin= 4.38D-02 ExpMax= 5.48D+03 ExpMxC= 8.25D+02 IAcc=2 IRadAn=         4 AccDes= 0.00D+00
 Harris functional with IExCor= 4639 and IRadAn=       4 diagonalized for initial guess.
 HarFok:  IExCor= 4639 AccDes= 0.00D+00 IRadAn=         4 IDoV= 1 UseB2=F ITyADJ=14
 ICtDFT=  3500011 ScaDFX=  1.000000  1.000000  1.000000  1.000000
 FoFCou: FMM=F IPFlag=           0 FMFlag=      100000 FMFlg1=           0
         NFxFlg=           0 DoJE=T BraDBF=F KetDBF=T FulRan=T
         wScrn=  0.000000 ICntrl=     500 IOpCl=  0 I1Cent=   200000004 NGrid=           0
         NMat0=    1 NMatS0=      1 NMatT0=    0 NMatD0=    1 NMtDS0=    0 NMtDT0=    0
 Petite list used in FoFCou.
 Harris En= -257.347782899646    
 Leave Link  401 at Wed May 26 08:16:53 2021, MaxMem=  2147483648 cpu:         1.8
 (Enter /opt/cluster/programs/g09_d.01/g09/l502.exe)
 Closed shell SCF:
 Using DIIS extrapolation, IDIIS=  1040.
 Integral symmetry usage will be decided dynamically.
 Keep R1 ints in memory in canonical form, NReq=9956864.
 IVT=       37546 IEndB=       37546 NGot=  2147483648 MDV=  2138425091
 LenX=  2138425091 LenY=  2138418721
 Requested convergence on RMS density matrix=1.00D-08 within 128 cycles.
 Requested convergence on MAX density matrix=1.00D-06.
 Requested convergence on             energy=1.00D-06.
 No special actions if energy rises.
 FoFCou: FMM=F IPFlag=           0 FMFlag=           0 FMFlg1=           0
         NFxFlg=           0 DoJE=F BraDBF=F KetDBF=F FulRan=T
         wScrn=  0.000000 ICntrl=     600 IOpCl=  0 I1Cent=           0 NGrid=           0
         NMat0=    1 NMatS0=   3003 NMatT0=    0 NMatD0=    1 NMtDS0=    0 NMtDT0=    0
 Symmetry not used in FoFCou.

 Cycle   1  Pass 1  IDiag  1:
 E= -268.144818627052    
 DIIS: error= 1.26D-02 at cycle   1 NSaved=   1.
 NSaved= 1 IEnMin= 1 EnMin= -268.144818627052     IErMin= 1 ErrMin= 1.26D-02
 ErrMax= 1.26D-02  0.00D+00 EMaxC= 1.00D-01 BMatC= 2.51D-02 BMatP= 2.51D-02
 IDIUse=3 WtCom= 8.74D-01 WtEn= 1.26D-01
 Coeff-Com:  0.100D+01
 Coeff-En:   0.100D+01
 Coeff:      0.100D+01
 Recover alternate guess density for next cycle.
 RMSDP=1.38D-02 MaxDP=2.78D-01              OVMax= 0.00D+00

 Cycle   2  Pass 1  IDiag  1:
 E= -268.116625448864     Delta-E=        0.028193178188 Rises=F Damp=F
 Switch densities from cycles 1 and 2 for lowest energy.
 DIIS: error= 2.38D-02 at cycle   2 NSaved=   2.
 NSaved= 2 IEnMin= 1 EnMin= -268.144818627052     IErMin= 1 ErrMin= 1.26D-02
 ErrMax= 2.38D-02  0.00D+00 EMaxC= 1.00D+00 BMatC= 1.34D-01 BMatP= 2.51D-02
 IDIUse=1 WtCom= 1.00D+00 WtEn= 0.00D+00
 Coeff-Com:  0.850D+00 0.150D+00
 Coeff:      0.850D+00 0.150D+00
 Gap=     0.454 Goal=   None    Shift=    0.000
 RMSDP=5.64D-03 MaxDP=6.95D-02 DE= 2.82D-02 OVMax= 8.47D-02

 Cycle   3  Pass 1  IDiag  1:
 E= -268.197039690174     Delta-E=       -0.080414241310 Rises=F Damp=F
 DIIS: error= 4.68D-03 at cycle   3 NSaved=   3.
 NSaved= 3 IEnMin= 3 EnMin= -268.197039690174     IErMin= 3 ErrMin= 4.68D-03
 ErrMax= 4.68D-03  0.00D+00 EMaxC= 1.00D+00 BMatC= 3.22D-03 BMatP= 2.51D-02
 IDIUse=1 WtCom= 1.00D+00 WtEn= 0.00D+00
 Coeff-Com: -0.953D-01 0.103D+00 0.993D+00
 Coeff:     -0.953D-01 0.103D+00 0.993D+00
 Gap=     0.410 Goal=   None    Shift=    0.000
 RMSDP=1.49D-03 MaxDP=1.72D-02 DE=-8.04D-02 OVMax= 2.75D-02

 Cycle   4  Pass 1  IDiag  1:
 E= -268.200658998920     Delta-E=       -0.003619308746 Rises=F Damp=F
 DIIS: error= 3.53D-03 at cycle   4 NSaved=   4.
 NSaved= 4 IEnMin= 4 EnMin= -268.200658998920     IErMin= 4 ErrMin= 3.53D-03
 ErrMax= 3.53D-03  0.00D+00 EMaxC= 1.00D+00 BMatC= 1.42D-03 BMatP= 3.22D-03
 IDIUse=1 WtCom= 1.00D+00 WtEn= 0.00D+00
 Coeff-Com: -0.900D-01 0.233D-01 0.495D+00 0.571D+00
 Coeff:     -0.900D-01 0.233D-01 0.495D+00 0.571D+00
 Gap=     0.413 Goal=   None    Shift=    0.000
 RMSDP=5.42D-04 MaxDP=7.13D-03 DE=-3.62D-03 OVMax= 1.09D-02

 Cycle   5  Pass 1  IDiag  1:
 E= -268.201688185322     Delta-E=       -0.001029186402 Rises=F Damp=F
 DIIS: error= 8.59D-04 at cycle   5 NSaved=   5.
 NSaved= 5 IEnMin= 5 EnMin= -268.201688185322     IErMin= 5 ErrMin= 8.59D-04
 ErrMax= 8.59D-04  0.00D+00 EMaxC= 1.00D+00 BMatC= 1.07D-04 BMatP= 1.42D-03
 IDIUse=1 WtCom= 1.00D+00 WtEn= 0.00D+00
 Coeff-Com: -0.254D-01-0.376D-02 0.104D+00 0.254D+00 0.671D+00
 Coeff:     -0.254D-01-0.376D-02 0.104D+00 0.254D+00 0.671D+00
 Gap=     0.409 Goal=   None    Shift=    0.000
 RMSDP=2.30D-04 MaxDP=3.11D-03 DE=-1.03D-03 OVMax= 4.47D-03

 Cycle   6  Pass 1  IDiag  1:
 E= -268.201787877947     Delta-E=       -0.000099692625 Rises=F Damp=F
 DIIS: error= 3.24D-04 at cycle   6 NSaved=   6.
 NSaved= 6 IEnMin= 6 EnMin= -268.201787877947     IErMin= 6 ErrMin= 3.24D-04
 ErrMax= 3.24D-04  0.00D+00 EMaxC= 1.00D+00 BMatC= 1.48D-05 BMatP= 1.07D-04
 IDIUse=1 WtCom= 1.00D+00 WtEn= 0.00D+00
 Coeff-Com: -0.164D-02-0.271D-02-0.147D-01 0.333D-01 0.293D+00 0.692D+00
 Coeff:     -0.164D-02-0.271D-02-0.147D-01 0.333D-01 0.293D+00 0.692D+00
 Gap=     0.408 Goal=   None    Shift=    0.000
 RMSDP=8.88D-05 MaxDP=8.72D-04 DE=-9.97D-05 OVMax= 1.83D-03

 Cycle   7  Pass 1  IDiag  1:
 E= -268.201807165379     Delta-E=       -0.000019287432 Rises=F Damp=F
 DIIS: error= 1.16D-04 at cycle   7 NSaved=   7.
 NSaved= 7 IEnMin= 7 EnMin= -268.201807165379     IErMin= 7 ErrMin= 1.16D-04
 ErrMax= 1.16D-04  0.00D+00 EMaxC= 1.00D+00 BMatC= 1.82D-06 BMatP= 1.48D-05
 IDIUse=1 WtCom= 1.00D+00 WtEn= 0.00D+00
 Coeff-Com:  0.540D-02 0.290D-03-0.299D-01-0.510D-01-0.491D-01 0.229D+00
 Coeff-Com:  0.896D+00
 Coeff:      0.540D-02 0.290D-03-0.299D-01-0.510D-01-0.491D-01 0.229D+00
 Coeff:      0.896D+00
 Gap=     0.408 Goal=   None    Shift=    0.000
 RMSDP=6.07D-05 MaxDP=8.02D-04 DE=-1.93D-05 OVMax= 1.51D-03

 Cycle   8  Pass 1  IDiag  1:
 E= -268.201811601987     Delta-E=       -0.000004436607 Rises=F Damp=F
 DIIS: error= 3.55D-05 at cycle   8 NSaved=   8.
 NSaved= 8 IEnMin= 8 EnMin= -268.201811601987     IErMin= 8 ErrMin= 3.55D-05
 ErrMax= 3.55D-05  0.00D+00 EMaxC= 1.00D+00 BMatC= 1.03D-07 BMatP= 1.82D-06
 IDIUse=1 WtCom= 1.00D+00 WtEn= 0.00D+00
 Coeff-Com:  0.839D-03 0.335D-03-0.230D-02-0.116D-01-0.326D-01-0.292D-01
 Coeff-Com:  0.119D+00 0.956D+00
 Coeff:      0.839D-03 0.335D-03-0.230D-02-0.116D-01-0.326D-01-0.292D-01
 Coeff:      0.119D+00 0.956D+00
 Gap=     0.408 Goal=   None    Shift=    0.000
 RMSDP=1.58D-05 MaxDP=1.51D-04 DE=-4.44D-06 OVMax= 5.11D-04

 Cycle   9  Pass 1  IDiag  1:
 E= -268.201811995375     Delta-E=       -0.000000393388 Rises=F Damp=F
 DIIS: error= 1.33D-05 at cycle   9 NSaved=   9.
 NSaved= 9 IEnMin= 9 EnMin= -268.201811995375     IErMin= 9 ErrMin= 1.33D-05
 ErrMax= 1.33D-05  0.00D+00 EMaxC= 1.00D+00 BMatC= 1.71D-08 BMatP= 1.03D-07
[...]
     17 -0.700700D-02  0.199270D-01 -0.948984D-02 -0.486564D-02  0.495028D-02
     18  0.853384D-02 -0.170253D-01  0.123110D-01  0.265304D-02 -0.775206D-02
     19 -0.156949D-02 -0.289715D-02 -0.278457D-02  0.222602D-02  0.280352D-02
     20 -0.638335D-03  0.448841D-02 -0.888665D-03 -0.158741D-02  0.261404D-04
     21  0.778872D-03 -0.135290D-03 -0.643304D-03 -0.275021D-03 -0.167478D-04
     22 -0.208255D-03  0.114086D-02 -0.269803D-03 -0.343168D-03 -0.462182D-05
     23 -0.759800D-03  0.913879D-04  0.444163D-03  0.316989D-03  0.692427D-04
     24 -0.806427D-04 -0.436792D-03  0.336613D-03  0.166179D-03 -0.304487D-04
     25 -0.154296D-04 -0.125232D-03  0.712870D-04  0.384666D-04  0.275147D-04
     26  0.279215D-03 -0.487186D-03  0.421545D-04  0.826691D-04 -0.453201D-04
     27  0.241195D-02  0.772281D-02 -0.967736D-02  0.862133D-02 -0.102873D-01
     28 -0.437726D-02  0.846552D-02 -0.388546D-02  0.107583D-01 -0.999175D-02
     29 -0.372214D-02 -0.142237D-03  0.425103D-02 -0.120937D-01 -0.572940D-04
     30 -0.105113D-01  0.600479D-03  0.100429D-01 -0.995678D-02  0.238231D-03
     31  0.101257D-01 -0.845336D-02 -0.201479D-02 -0.112981D-02  0.102655D-01
     32  0.333645D-02 -0.771064D-02  0.377712D-02  0.100711D-02  0.105610D-01
     33 -0.430716D-02  0.560717D-03  0.365654D-02  0.151267D-02  0.112336D-03
     34  0.214946D-02 -0.796361D-04 -0.196574D-02 -0.538398D-03 -0.120648D-03
     35 -0.191097D-04  0.797146D-04  0.971677D-04 -0.629789D-04 -0.491829D-04
     36 -0.202050D-03  0.165693D-04  0.180419D-03  0.755694D-04 -0.213089D-05
     37 -0.256406D-04 -0.104154D-03  0.576746D-04  0.116034D-04  0.186778D-04
               16            17            18            19            20 
     16  0.583786D-01
     17 -0.395671D-02  0.169570D+00
     18  0.160671D-02 -0.571857D-01  0.157508D+00
     19  0.233584D-02 -0.112383D+00 -0.100321D+00  0.212702D+00
     20 -0.151410D-02  0.641830D-02 -0.136870D-01  0.726804D-02  0.292777D+00
     21  0.299650D-03 -0.310039D-03 -0.108184D-02  0.138504D-02  0.177687D-02
     22 -0.343679D-03  0.578710D-02  0.105627D-02 -0.684306D-02  0.100268D-01
     23 -0.167327D-03 -0.618084D-03 -0.104959D-02  0.167458D-02  0.183725D-02
     24  0.539906D-04 -0.243993D-02 -0.102917D-03  0.254549D-02 -0.498531D-02
     25  0.640620D-05  0.212394D-03  0.118692D-02 -0.139949D-02 -0.312529D-02
     26  0.141255D-03 -0.245124D-02 -0.850872D-04  0.253351D-02 -0.490467D-02
     27  0.107275D-02  0.230177D-02 -0.175590D-02 -0.631074D-03  0.429832D-03
     28 -0.116869D-02  0.220551D-02 -0.212854D-02 -0.151415D-05  0.359355D-03
     29  0.115931D-01  0.223064D-03  0.296939D-03 -0.598257D-03 -0.143234D-04
     30  0.935162D-02  0.126804D-03 -0.756991D-04  0.313029D-04 -0.848004D-04
     31 -0.842184D-02 -0.171192D-02  0.147544D-02  0.149489D-03 -0.472189D-03
     32 -0.106633D-01 -0.180818D-02  0.110280D-02  0.779050D-03 -0.542666D-03
     33 -0.157645D-02 -0.175775D-03  0.404230D-03 -0.149149D-03  0.150305D-03
     34  0.573415D-03 -0.285128D-03 -0.444698D-03  0.655174D-03  0.316404D-03
     35 -0.490207D-04  0.120531D-03 -0.168879D-03  0.476284D-04  0.110410D-02
     36 -0.701749D-04 -0.126628D-03 -0.963498D-04  0.222445D-03  0.392622D-03
     37  0.439821D-04 -0.211059D-03 -0.616761D-04  0.271833D-03 -0.460549D-03
               21            22            23            24            25 
     21  0.146695D+00
     22 -0.278778D-01  0.143126D+00
     23 -0.290714D-01 -0.279248D-01  0.146316D+00
     24 -0.386938D-01 -0.396431D-01 -0.440063D-02  0.722349D-01
     25 -0.424858D-01 -0.382602D-02 -0.423666D-01  0.455124D-02  0.734316D-01
     26 -0.441674D-02 -0.397172D-01 -0.385111D-01  0.320467D-02  0.456762D-02
     27  0.553511D-03  0.144842D-03 -0.558169D-03 -0.320841D-03 -0.286281D-04
     28 -0.526676D-03  0.167858D-03  0.546194D-03  0.108460D-03 -0.634659D-04
     29  0.495030D-03 -0.137928D-04 -0.535746D-03 -0.203928D-03  0.114253D-04
     30 -0.585158D-03  0.922345D-05  0.568617D-03  0.225373D-03 -0.234125D-04
     31  0.620265D-03 -0.153330D-03 -0.670043D-03 -0.202784D-03  0.390928D-04
     32 -0.459923D-03 -0.130313D-03  0.434320D-03  0.226517D-03  0.425497D-05
     33 -0.381308D-02  0.901932D-04  0.382125D-02  0.383450D-03 -0.185886D-04
     34 -0.276678D-02  0.335370D-04  0.277542D-02 -0.164570D-04  0.293954D-05
     35 -0.489106D-02  0.203459D-01 -0.178496D-01  0.213078D-01 -0.183928D-01
     36 -0.180593D-01  0.979597D-04  0.179674D-01 -0.217190D-01  0.202479D-04
     37  0.178405D-01 -0.202206D-01  0.469465D-02 -0.701134D-03  0.184112D-01
               26            27            28            29            30 
     26  0.720994D-01
     27  0.216227D-03  0.181027D-01
     28 -0.222533D-03  0.457280D-02  0.165581D-01
     29  0.245075D-03  0.122359D-02 -0.112054D-01  0.184682D-01
     30 -0.193685D-03 -0.123063D-01  0.779902D-03  0.603913D-02  0.191254D-01
     31  0.358049D-03  0.105909D-02 -0.127567D-01  0.145283D-02 -0.123630D-01
     32 -0.807106D-04 -0.124708D-01 -0.771401D-03 -0.109762D-01  0.723230D-03
     33 -0.460892D-03 -0.685758D-02  0.573481D-02 -0.640766D-02  0.618473D-02
     34 -0.291713D-04  0.611258D-02 -0.573896D-02  0.549768D-02 -0.635386D-02
     35  0.670324D-03  0.493565D-04 -0.644403D-04  0.890068D-04 -0.247900D-04
     36  0.216656D-01  0.640572D-04 -0.196756D-04  0.855461D-04  0.181325D-05
     37 -0.211934D-01  0.110818D-04 -0.131070D-03  0.773472D-04 -0.648048D-04
               31            32            33            34            35 
     31  0.186672D-01
     32  0.485132D-02  0.165508D-01
     33 -0.714216D-02  0.545023D-02  0.171431D-01
     34  0.608941D-02 -0.576213D-02  0.507457D-02  0.164356D-01
     35  0.363990D-04 -0.773979D-04 -0.225017D-03 -0.114943D-03  0.243214D-01
     36  0.470356D-04 -0.366972D-04  0.121112D-02  0.129278D-02 -0.986206D-02
     37  0.533763D-04 -0.887757D-04 -0.244885D-03 -0.107205D-03 -0.131271D-01
               36            37 
     36  0.248840D-01
     37 -0.990537D-02  0.242194D-01
 Leave Link  716 at Wed May 26 08:18:15 2021, MaxMem=  2147483648 cpu:         0.3
 (Enter /opt/cluster/programs/g09_d.01/g09/l103.exe)

 GradGradGradGradGradGradGradGradGradGradGradGradGradGradGradGradGradGrad
 Berny optimization.
 Red2BG is reusing G-inverse.
 Internal  Forces:  Max     0.000029768 RMS     0.000009294
 Search for a local minimum.
 Step number   1 out of a maximum of    2
 All quantities printed in internal units (Hartrees-Bohrs-Radians)
 Second derivative matrix not updated -- analytic derivatives used.
 ITU=  0
     Eigenvalues ---    0.00026   0.00238   0.02157   0.04798   0.05968
     Eigenvalues ---    0.06029   0.08733   0.08930   0.13031   0.13500
     Eigenvalues ---    0.14329   0.15179   0.18674   0.18791   0.20557
     Eigenvalues ---    0.23677   0.26598   0.34983   0.35179   0.35372
     Eigenvalues ---    0.35521   0.35931   0.36195   0.36546   0.37238
     Eigenvalues ---    0.45192   0.79882
 Angle between quadratic step and forces=  86.28 degrees.
 Linear search not attempted -- first point.
 Iteration  1 RMS(Cart)=  0.00159400 RMS(Int)=  0.00000161
 Iteration  2 RMS(Cart)=  0.00000165 RMS(Int)=  0.00000001
 Iteration  3 RMS(Cart)=  0.00000000 RMS(Int)=  0.00000001
 ITry= 1 IFail=0 DXMaxC= 4.33D-03 DCOld= 1.00D+10 DXMaxT= 3.00D-01 DXLimC= 3.00D+00 Rises=F
 Variable       Old X    -DE/DX   Delta X   Delta X   Delta X     New X
                                 (Linear)    (Quad)   (Total)
    R1        2.82892   0.00000   0.00000  -0.00001  -0.00001   2.82891
    R2        2.06763   0.00000   0.00000   0.00004   0.00004   2.06768
    R3        2.05906   0.00000   0.00000   0.00000   0.00000   2.05906
    R4        2.06513  -0.00001   0.00000  -0.00006  -0.00006   2.06507
    R5        2.58253  -0.00002   0.00000  -0.00002  -0.00002   2.58250
    R6        2.32751  -0.00003   0.00000  -0.00004  -0.00004   2.32747
    R7        2.76231  -0.00003   0.00000  -0.00009  -0.00009   2.76222
    R8        2.06260   0.00000   0.00000   0.00001   0.00001   2.06261
    R9        2.05441   0.00000   0.00000   0.00000   0.00000   2.05441
   R10        2.06247   0.00000   0.00000   0.00001   0.00001   2.06248
    A1        1.91598   0.00001   0.00000  -0.00010  -0.00010   1.91588
    A2        1.90920   0.00000   0.00000   0.00006   0.00006   1.90926
    A3        1.92498   0.00000   0.00000   0.00011   0.00011   1.92508
    A4        1.91195   0.00000   0.00000  -0.00017  -0.00017   1.91178
    A5        1.87861  -0.00001   0.00000  -0.00005  -0.00005   1.87856
    A6        1.92292   0.00000   0.00000   0.00015   0.00015   1.92307
    A7        1.94811  -0.00001   0.00000  -0.00004  -0.00004   1.94807
    A8        2.19894   0.00001   0.00000   0.00002   0.00002   2.19897
    A9        2.13611   0.00001   0.00000   0.00002   0.00002   2.13612
   A10        2.04732  -0.00002   0.00000  -0.00004  -0.00004   2.04727
   A11        1.91964  -0.00001   0.00000  -0.00003  -0.00003   1.91961
   A12        1.82817   0.00000   0.00000   0.00000   0.00000   1.82818
   A13        1.92046   0.00001   0.00000   0.00008   0.00008   1.92054
   A14        1.94021   0.00000   0.00000  -0.00002  -0.00002   1.94018
   A15        1.91313   0.00000   0.00000  -0.00001  -0.00001   1.91312
   A16        1.94086   0.00000   0.00000  -0.00002  -0.00002   1.94084
    D1       -1.14138   0.00001   0.00000  -0.00332  -0.00332  -1.14470
    D2        1.99314   0.00000   0.00000  -0.00367  -0.00367   1.98947
    D3        3.04339   0.00000   0.00000  -0.00308  -0.00308   3.04031
    D4       -0.10527   0.00000   0.00000  -0.00343  -0.00343  -0.10870
    D5        0.92578   0.00000   0.00000  -0.00337  -0.00337   0.92241
    D6       -2.22288  -0.00001   0.00000  -0.00372  -0.00372  -2.22660
    D7        3.13087  -0.00001   0.00000  -0.00063  -0.00063   3.13023
    D8       -0.00395   0.00000   0.00000  -0.00029  -0.00029  -0.00425
    D9       -1.06793   0.00000   0.00000  -0.00007  -0.00007  -1.06800
   D10        3.12890   0.00000   0.00000  -0.00003  -0.00003   3.12886
   D11        1.04135   0.00000   0.00000  -0.00005  -0.00005   1.04130
         Item               Value     Threshold  Converged?
 Maximum Force            0.000030     0.000450     YES
 RMS     Force            0.000009     0.000300     YES
 Maximum Displacement     0.004332     0.001800     NO 
 RMS     Displacement     0.001594     0.001200     NO 
 Predicted change in Energy=-1.552735D-08
 GradGradGradGradGradGradGradGradGradGradGradGradGradGradGradGradGradGrad

 Leave Link  103 at Wed May 26 08:18:15 2021, MaxMem=  2147483648 cpu:         0.1
 (Enter /opt/cluster/programs/g09_d.01/g09/l9999.exe)
 1\1\GINC-NODE06\Freq\RwB97XD\6-31+G\C3H6O2\BOITTIER\26-May-2021\0\\#P 
 Geom=AllCheck Guess=TCheck SCRF=Check GenChk RwB97XD/6-31+G Freq\\O.pd
 b\\0,1\C,-3.0611004226,1.8273440314,1.4020694113\C,-2.6573107238,0.823
 5388095,0.3675005394\H,-3.3600764402,1.3128662203,2.3202616439\H,-3.89
 62981129,2.4178433944,1.026572189\H,-2.2187309423,2.4790315788,1.64696
 10603\O,-1.534137751,0.1401247354,0.7404108241\O,-3.2405542679,0.60458
 19959,-0.6949881006\C,-1.0372038824,-0.8842065569,-0.1763878528\H,-1.7
 914823259,-1.6614444991,-0.3116693104\H,-0.1477160098,-1.2803385478,0.
 3071210449\H,-0.7953891212,-0.4363411618,-1.141851449\\Version=ES64L-G
 09RevD.01\State=1-A\HF=-268.2217252\RMSD=2.317e-09\RMSF=1.221e-05\Zero
 Point=0.0909316\Thermal=0.0970628\Dipole=0.5302896,-0.0849574,0.567640
 3\DipoleDeriv=-0.0206788,0.0764575,0.0485602,0.0731943,-0.1223446,-0.1
 608602,0.0523841,-0.1840647,-0.1963172,1.3835619,-0.7489437,0.2755165,
 -0.5606207,0.9150953,0.3118704,0.5609534,0.0750925,1.0980249,0.1102289
 ,0.0037783,0.0445252,-0.0248522,0.0404022,0.0805765,0.0421151,0.045799
 7,-0.0007392,0.0067439,0.0937137,-0.0204459,0.0701064,0.0388885,-0.015
 9508,-0.0593619,0.0286847,0.0664806,-0.0081171,-0.0890076,-0.0245136,-
 0.0448401,0.0505965,-0.0490236,-0.0054018,-0.0200336,0.110132,-1.14174
 04,0.6136102,-0.0335679,0.5914365,-0.9249461,-0.0958116,-0.0685447,-0.
 0700967,-0.5622854,-0.7348454,0.1842831,-0.1889112,0.0266985,-0.518761
 9,-0.2003262,-0.424261,-0.0033185,-0.9096322,0.3870735,-0.1339225,-0.0
 904421,-0.1817128,0.5140908,0.0963866,-0.1637232,0.1570144,0.32721,-0.
 0204865,-0.1064514,0.0027138,-0.013735,-0.0409201,-0.0335906,0.0515309
 ,-0.0486281,0.0651377,-0.0312269,0.0926298,-0.0407184,0.0645142,0.0566
 764,-0.0093954,-0.0815851,0.023843,0.0544266,0.0694869,0.0138526,0.027
 2834,-0.000189,-0.0087771,0.0761251,0.0958942,-0.0042927,-0.0524379\Po
 lar=41.8082303,-6.52138,39.7577381,2.7995889,4.2704705,41.9168795\PG=C
 01 [X(C3H6O2)]\NImag=0\\0.59851430,-0.01099520,0.54655964,0.03822465,-
 0.03425168,0.54505499,-0.09777502,0.02412936,0.03075822,0.50948099,0.0
 2343101,-0.15155293,-0.05857741,-0.10069455,0.44564991,0.02965033,-0.0
 5900887,-0.14409168,0.19924327,0.20383150,0.79004384,-0.06731837,-0.03
 260355,0.06391388,-0.00246554,-0.00648009,0.00765970,0.06915349,-0.032
 62318,-0.10892424,0.10898708,0.00915838,0.01347098,-0.02414913,0.03777
 846,0.11812440,0.06522406,0.10962454,-0.23882523,0.00516405,0.01350866
 ,-0.02339743,-0.07052881,-0.11736741,0.26227711,-0.21555689,0.11733863
 ,-0.07388541,-0.00954319,0.00254050,-0.00636400,0.00835359,-0.00702674
 ,0.00471541,0.23172928,0.11378039,-0.13217126,0.04956655,0.01918794,-0
 .01383085,0.01255966,0.01226711,-0.00805041,0.00386195,-0.12943388,0.1
 4223601,-0.07928919,0.05507152,-0.08585222,0.02154111,-0.01564194,0.00
 718263,-0.02282793,0.01416651,-0.00787972,0.08169859,-0.05484894,0.090
 53125,-0.21493749,-0.12609685,-0.04785662,0.00836930,0.00923756,0.0011
 5072,-0.00722037,-0.00475860,-0.00394559,-0.01670796,-0.01679599,-0.00
 356627,0.23104955,-0.12409461,-0.14753842,-0.03693804,-0.02198362,-0.0
 1324395,-0.00419567,-0.01282864,-0.00929681,-0.00433822,0.01557262,0.0
 1263470,0.00449095,0.13882715,0.15706972,-0.04756602,-0.03778414,-0.05
 717041,-0.02234069,-0.01642491,-0.00735039,0.02306500,0.01850508,0.006
 47775,-0.00779121,-0.00764444,-0.00258574,0.05098677,0.04308355,0.0646
 8356,-0.01641165,0.01898625,-0.00360900,-0.18343770,0.07713530,-0.0328
 7703,-0.00051539,-0.00036671,-0.00089583,0.00018970,0.00187303,0.00176
 476,-0.00070316,0.00190885,0.00016916,0.33921880,0.03460753,-0.0182815
 3,0.00168491,0.08744006,-0.13634836,0.00020677,0.00166456,-0.00098694,
 -0.00042262,0.00222406,-0.00299465,-0.00421398,0.00035262,0.00080898,0
 .00169289,-0.18879981,0.29423934,0.02075224,-0.01900398,0.00786887,-0.
 01799189,-0.01224566,-0.10506954,-0.00048001,0.00079365,0.00141176,0.0
 0170492,-0.00412863,-0.00318215,0.00069719,0.00006367,0.00039663,0.045
 93919,0.09351641,0.27343716,0.01485068,0.00724471,-0.00260712,-0.20511
 476,-0.04169622,-0.22651943,-0.00007567,-0.00172091,0.00044406,0.00137
 031,-0.00181627,-0.00020858,-0.00013619,0.00220128,0.00313381,-0.04882
 421,0.01926270,-0.06743296,0.23652412,-0.00696572,0.00854459,-0.032409
 17,-0.03520793,-0.11712012,-0.10765760,-0.00001898,-0.00406686,-0.0041
 9687,-0.00153152,0.00211282,0.00173050,-0.00053963,-0.00089663,-0.0018
 1626,0.02216462,0.02339102,0.01995815,0.02407890,0.08787012,-0.0241876
 4,-0.01504344,-0.02907513,-0.21683869,-0.11584907,-0.52221579,-0.00048
 495,-0.00123348,-0.00040850,0.00018475,0.00058128,0.00143715,0.0026027
 3,-0.00221469,-0.00418760,-0.06302281,0.01633894,-0.02593644,0.2967518
 8,0.11947421,0.58215826,-0.00044176,0.00185404,-0.00468758,-0.02683463
 ,0.03618292,0.01938859,0.00013232,-0.00046698,-0.00018063,0.00031407,0
 .00070824,0.00072220,0.00031349,0.00047650,0.00045491,-0.08266247,0.01
 761636,0.00249755,0.00247350,-0.00136858,0.00813595,0.60725052,0.00156
 553,0.00434543,0.00098230,0.02831837,-0.02757588,-0.00839915,0.0002417
 8,-0.00028512,-0.00080705,0.00003092,0.00048323,-0.00047930,-0.0002247
 3,0.00034417,0.00034841,0.03348425,-0.11927288,-0.04152448,-0.01023960
 ,-0.00194505,-0.00721954,0.03237629,0.51621817,-0.00427807,0.00091527,
 0.00147067,0.00803407,0.00115178,0.01340184,-0.00025439,0.00029652,0.0
 0032071,-0.00050893,0.00037976,0.00058195,-0.00006214,-0.00013518,-0.0
 0034486,0.02601999,-0.06133293,-0.12321385,-0.00509014,0.00366999,-0.0
 0659570,0.05519684,-0.08733916,0.53932349,-0.00050948,-0.00066559,0.00
 041471,0.00223622,0.00122947,0.00184632,-0.00005358,0.00011730,0.00014
 419,-0.00006545,-0.00000141,-0.00000737,-0.00001145,-0.00010264,-0.000
 13441,0.01062867,0.01719554,0.00358513,-0.00051204,0.00019306,-0.00071
 509,-0.19281027,-0.14078463,-0.02172286,0.20075999,0.00065403,0.000156
 45,-0.00005070,-0.00667496,0.00067015,-0.00482486,0.00003334,-0.000088
 45,-0.00004936,0.00015258,-0.00004551,-0.00005008,0.00003509,0.0002051
 1,0.00017499,-0.00722552,-0.02625250,-0.01104058,0.00136106,0.00114456
 ,0.00331392,-0.13345154,-0.18390828,-0.01748487,0.14676857,0.20482059,
 0.00032344,0.00011931,-0.00030172,-0.00299932,0.00126605,-0.00022686,0
 .00003161,-0.00007680,-0.00010954,0.00012251,0.00002050,-0.00001795,0.
 00002434,0.00013036,0.00007236,-0.01003120,-0.02540060,-0.00870525,0.0
 0112000,-0.00066160,0.00069436,-0.01893230,-0.01588216,-0.05363592,0.0
 2033617,0.02912764,0.05771984,-0.00044741,0.00042779,-0.00018943,0.001
 71766,-0.00024995,0.00170304,-0.00001910,-0.00000730,0.00002080,-0.000
 03691,0.00012607,0.00015182,0.00000525,0.00003051,0.00000249,-0.011610
 72,0.00758232,-0.00301614,0.00021548,0.00029081,0.00002784,-0.24244502
 ,0.08060736,-0.10614538,-0.01560892,0.00969241,-0.01096360,0.26005245,
 0.00107731,-0.00038703,0.00053925,-0.00140373,-0.00205421,-0.00518950,
 0.00002506,0.00000729,-0.00001434,0.00009264,-0.00023452,-0.00026085,-
 0.00003733,-0.00000360,0.00001606,0.02749736,-0.01828964,0.00616189,-0
 .00014556,0.00124585,0.00085326,0.07473566,-0.08312110,0.04784402,-0.0
 1998951,0.01105478,-0.01056829,-0.09371521,0.09523989,0.00081197,-0.00
 036714,0.00075771,-0.00031501,-0.00345236,-0.00560608,0.00001043,0.000
 03772,0.00000738,0.00008947,-0.00021100,-0.00021585,-0.00002275,0.0000
 1261,0.00003759,0.02664400,-0.01807175,0.00552798,-0.00068370,0.001468
 92,0.00190579,-0.11482669,0.05492343,-0.11163144,-0.00043452,0.0026495
 4,-0.00016989,0.11361519,-0.04590819,0.11872695,0.00003308,0.00038042,
 -0.00047630,0.00336665,-0.00063595,0.00511849,0.00002862,-0.00008374,-
 0.00016172,-0.00004656,0.00010477,0.00002086,-0.00002096,-0.00000739,0
 .00002018,-0.00587187,0.00085407,0.01374479,-0.00077122,-0.00109500,-0
 .00245397,-0.06528975,-0.02537553,0.04881102,-0.00405371,-0.01134505,0
 .02096836,0.00817723,0.01186331,-0.02488840,0.06444849,-0.00043709,-0.
 00075070,0.00046690,-0.00226932,0.00193527,-0.00317315,-0.00007904,0.0
 0009614,0.00020071,0.00004020,-0.00013957,0.00003561,0.00000072,-0.000
 08327,-0.00015123,0.01334239,0.00398717,-0.03255044,0.00146991,-0.0002
 8030,0.00099859,-0.02866289,-0.10528269,0.11203480,-0.00396016,-0.0077
 5689,0.02192559,-0.00478482,-0.00345772,0.00891823,0.02534010,0.111732
 56,0.00033423,-0.00027137,0.00016415,-0.00425513,0.00243336,-0.0026705
 4,-0.00010453,0.00004027,0.00012571,0.00003390,-0.00013670,0.00000064,
 -0.00000837,0.00004065,-0.00002891,0.00989877,-0.00399802,-0.02253516,
 0.00109219,0.00043973,0.00222360,0.05223116,0.10539670,-0.25967688,-0.
 00331229,-0.00176564,0.00468057,0.00479338,0.00652666,-0.00934014,-0.0
 6070330,-0.10870563,0.28705696\\0.00000344,0.00000802,0.00000783,-0.00
 000852,0.00000179,0.00004353,0.00000931,-0.00000130,-0.00000072,-0.000
 00623,-0.00000468,0.00000214,0.00000226,0.00001280,-0.00001194,0.00000
 508,0.00000966,0.00000024,-0.00002210,-0.00001079,-0.00001971,0.000016
 64,-0.00001759,-0.00001649,0.00000447,-0.00000322,0.00000442,0.0000084
 7,0.00000542,-0.00000763,-0.00001281,-0.00000010,-0.00000168\\\@


 I DON'T PRETEND TO UNDERSTAND THE UNIVERSE --
 IT'S A GREAT DEAL BIGGER THAN I AM.
       -- ATTR. TO WILLIAM ALLINGHAM (1828-89)
 Job cpu time:       0 days  0 hours  1 minutes 25.9 seconds.
 File lengths (MBytes):  RWF=     12 Int=      0 D2E=      0 Chk=      2 Scr=      1
 Normal termination of Gaussian 09 at Wed May 26 08:18:15 2021.
