O.pdb                                                                   
Scan      RwB97XD                                                     6-31+G              
Number of atoms                            I               11
Info1-9                                    I   N=           9
          22          22           0           0           0         110
           8          18        -802
Charge                                     I                0
Multiplicity                               I                1
Number of electrons                        I               40
Number of alpha electrons                  I               20
Number of beta electrons                   I               20
Number of basis functions                  I               77
Number of independent functions            I               77
Number of point charges in /Mol/           I                0
Number of translation vectors              I                0
Atomic numbers                             I   N=          11
           6           6           1           1           1           8
           8           6           1           1           1
Nuclear charges                            R   N=          11
  6.00000000E+00  6.00000000E+00  1.00000000E+00  1.00000000E+00  1.00000000E+00
  8.00000000E+00  8.00000000E+00  6.00000000E+00  1.00000000E+00  1.00000000E+00
  1.00000000E+00
Current cartesian coordinates              R   N=          33
  3.36806936E+00 -1.05937735E+00  1.57670764E-01  9.20168927E-01  3.25906162E-01
 -1.40713055E-01  3.48729037E+00 -1.78595960E+00  2.09158275E+00  4.94172285E+00
  2.25938304E-01 -1.79667331E-01  3.46564598E+00 -2.67065663E+00 -1.12767156E+00
 -1.08078552E+00 -1.29827433E+00 -3.57267843E-01  6.44044883E-01  2.63405547E+00
 -4.10083431E-02 -3.59349091E+00 -2.98336407E-01  2.10870886E-01 -3.59392628E+00
  5.52390303E-01  2.09068861E+00 -4.83737398E+00 -1.93152930E+00  1.33172425E-01
 -4.13791809E+00  1.11441337E+00 -1.18886697E+00
Force Field                                I                0
Int Atom Types                             I   N=          11
           0           0           0           0           0           0
           0           0           0           0           0
MM charges                                 R   N=          11
  0.00000000E+00  0.00000000E+00  0.00000000E+00  0.00000000E+00  0.00000000E+00
  0.00000000E+00  0.00000000E+00  0.00000000E+00  0.00000000E+00  0.00000000E+00
  0.00000000E+00
Integer atomic weights                     I   N=          11
          12          12           1           1           1          16
          16          12           1           1           1
Real atomic weights                        R   N=          11
  1.20000000E+01  1.20000000E+01  1.00782504E+00  1.00782504E+00  1.00782504E+00
  1.59949146E+01  1.59949146E+01  1.20000000E+01  1.00782504E+00  1.00782504E+00
  1.00782504E+00
Atom fragment info                         I   N=          11
           0           0           0           0           0           0
           0           0           0           0           0
Atom residue num                           I   N=          11
           0           0           0           0           0           0
           0           0           0           0           0
Nuclear spins                              I   N=          11
           0           0           1           1           1           0
           0           0           1           1           1
Nuclear ZEff                               R   N=          11
 -3.60000000E+00 -3.60000000E+00 -1.00000000E+00 -1.00000000E+00 -1.00000000E+00
 -5.60000000E+00 -5.60000000E+00 -3.60000000E+00 -1.00000000E+00 -1.00000000E+00
 -1.00000000E+00
Nuclear ZNuc                               R   N=          11
  6.00000000E+00  6.00000000E+00  1.00000000E+00  1.00000000E+00  1.00000000E+00
  8.00000000E+00  8.00000000E+00  6.00000000E+00  1.00000000E+00  1.00000000E+00
  1.00000000E+00
Nuclear QMom                               R   N=          11
  0.00000000E+00  0.00000000E+00  0.00000000E+00  0.00000000E+00  0.00000000E+00
  0.00000000E+00  0.00000000E+00  0.00000000E+00  0.00000000E+00  0.00000000E+00
  0.00000000E+00
Nuclear GFac                               R   N=          11
  0.00000000E+00  0.00000000E+00  2.79284600E+00  2.79284600E+00  2.79284600E+00
  0.00000000E+00  0.00000000E+00  0.00000000E+00  2.79284600E+00  2.79284600E+00
  2.79284600E+00
MicOpt                                     I   N=          11
          -1          -1          -1          -1          -1          -1
          -1          -1          -1          -1          -1
Number of contracted shells                I               32
Number of primitive shells                 I               79
Pure/Cartesian d shells                    I                1
Pure/Cartesian f shells                    I                0
Highest angular momentum                   I                1
Largest degree of contraction              I                6
Shell types                                I   N=          32
           0          -1          -1          -1           0          -1
          -1          -1           0           0           0           0
           0           0           0          -1          -1          -1
           0          -1          -1          -1           0          -1
          -1          -1           0           0           0           0
           0           0
Number of primitives per shell             I   N=          32
           6           3           1           1           6           3
           1           1           3           1           3           1
           3           1           6           3           1           1
           6           3           1           1           6           3
           1           1           3           1           3           1
           3           1
Shell to atom map                          I   N=          32
           1           1           1           1           2           2
           2           2           3           3           4           4
           5           5           6           6           6           6
           7           7           7           7           8           8
           8           8           9           9          10          10
          11          11
Primitive exponents                        R   N=          79
  3.04752488E+03  4.57369518E+02  1.03948685E+02  2.92101553E+01  9.28666296E+00
  3.16392696E+00  7.86827235E+00  1.88128854E+00  5.44249258E-01  1.68714478E-01
  4.38000000E-02  3.04752488E+03  4.57369518E+02  1.03948685E+02  2.92101553E+01
  9.28666296E+00  3.16392696E+00  7.86827235E+00  1.88128854E+00  5.44249258E-01
  1.68714478E-01  4.38000000E-02  1.87311370E+01  2.82539436E+00  6.40121692E-01
  1.61277759E-01  1.87311370E+01  2.82539436E+00  6.40121692E-01  1.61277759E-01
  1.87311370E+01  2.82539436E+00  6.40121692E-01  1.61277759E-01  5.48467166E+03
  8.25234946E+02  1.88046958E+02  5.29645000E+01  1.68975704E+01  5.79963534E+00
  1.55396162E+01  3.59993359E+00  1.01376175E+00  2.70005823E-01  8.45000000E-02
  5.48467166E+03  8.25234946E+02  1.88046958E+02  5.29645000E+01  1.68975704E+01
  5.79963534E+00  1.55396162E+01  3.59993359E+00  1.01376175E+00  2.70005823E-01
  8.45000000E-02  3.04752488E+03  4.57369518E+02  1.03948685E+02  2.92101553E+01
  9.28666296E+00  3.16392696E+00  7.86827235E+00  1.88128854E+00  5.44249258E-01
  1.68714478E-01  4.38000000E-02  1.87311370E+01  2.82539436E+00  6.40121692E-01
  1.61277759E-01  1.87311370E+01  2.82539436E+00  6.40121692E-01  1.61277759E-01
  1.87311370E+01  2.82539436E+00  6.40121692E-01  1.61277759E-01
Contraction coefficients                   R   N=          79
  1.83473713E-03  1.40373228E-02  6.88426223E-02  2.32184443E-01  4.67941348E-01
  3.62311985E-01 -1.19332420E-01 -1.60854152E-01  1.14345644E+00  1.00000000E+00
  1.00000000E+00  1.83473713E-03  1.40373228E-02  6.88426223E-02  2.32184443E-01
  4.67941348E-01  3.62311985E-01 -1.19332420E-01 -1.60854152E-01  1.14345644E+00
  1.00000000E+00  1.00000000E+00  3.34946043E-02  2.34726953E-01  8.13757326E-01
  1.00000000E+00  3.34946043E-02  2.34726953E-01  8.13757326E-01  1.00000000E+00
  3.34946043E-02  2.34726953E-01  8.13757326E-01  1.00000000E+00  1.83107443E-03
  1.39501722E-02  6.84450781E-02  2.32714336E-01  4.70192898E-01  3.58520853E-01
 -1.10777550E-01 -1.48026263E-01  1.13076702E+00  1.00000000E+00  1.00000000E+00
  1.83107443E-03  1.39501722E-02  6.84450781E-02  2.32714336E-01  4.70192898E-01
  3.58520853E-01 -1.10777550E-01 -1.48026263E-01  1.13076702E+00  1.00000000E+00
  1.00000000E+00  1.83473713E-03  1.40373228E-02  6.88426223E-02  2.32184443E-01
  4.67941348E-01  3.62311985E-01 -1.19332420E-01 -1.60854152E-01  1.14345644E+00
  1.00000000E+00  1.00000000E+00  3.34946043E-02  2.34726953E-01  8.13757326E-01
  1.00000000E+00  3.34946043E-02  2.34726953E-01  8.13757326E-01  1.00000000E+00
  3.34946043E-02  2.34726953E-01  8.13757326E-01  1.00000000E+00
P(S=P) Contraction coefficients            R   N=          79
  0.00000000E+00  0.00000000E+00  0.00000000E+00  0.00000000E+00  0.00000000E+00
  0.00000000E+00  6.89990666E-02  3.16423961E-01  7.44308291E-01  1.00000000E+00
  1.00000000E+00  0.00000000E+00  0.00000000E+00  0.00000000E+00  0.00000000E+00
  0.00000000E+00  0.00000000E+00  6.89990666E-02  3.16423961E-01  7.44308291E-01
  1.00000000E+00  1.00000000E+00  0.00000000E+00  0.00000000E+00  0.00000000E+00
  0.00000000E+00  0.00000000E+00  0.00000000E+00  0.00000000E+00  0.00000000E+00
  0.00000000E+00  0.00000000E+00  0.00000000E+00  0.00000000E+00  0.00000000E+00
  0.00000000E+00  0.00000000E+00  0.00000000E+00  0.00000000E+00  0.00000000E+00
  7.08742682E-02  3.39752839E-01  7.27158577E-01  1.00000000E+00  1.00000000E+00
  0.00000000E+00  0.00000000E+00  0.00000000E+00  0.00000000E+00  0.00000000E+00
  0.00000000E+00  7.08742682E-02  3.39752839E-01  7.27158577E-01  1.00000000E+00
  1.00000000E+00  0.00000000E+00  0.00000000E+00  0.00000000E+00  0.00000000E+00
  0.00000000E+00  0.00000000E+00  6.89990666E-02  3.16423961E-01  7.44308291E-01
  1.00000000E+00  1.00000000E+00  0.00000000E+00  0.00000000E+00  0.00000000E+00
  0.00000000E+00  0.00000000E+00  0.00000000E+00  0.00000000E+00  0.00000000E+00
  0.00000000E+00  0.00000000E+00  0.00000000E+00  0.00000000E+00
Coordinates of each shell                  R   N=          96
  3.36806936E+00 -1.05937735E+00  1.57670764E-01  3.36806936E+00 -1.05937735E+00
  1.57670764E-01  3.36806936E+00 -1.05937735E+00  1.57670764E-01  3.36806936E+00
 -1.05937735E+00  1.57670764E-01  9.20168927E-01  3.25906162E-01 -1.40713055E-01
  9.20168927E-01  3.25906162E-01 -1.40713055E-01  9.20168927E-01  3.25906162E-01
 -1.40713055E-01  9.20168927E-01  3.25906162E-01 -1.40713055E-01  3.48729037E+00
 -1.78595960E+00  2.09158275E+00  3.48729037E+00 -1.78595960E+00  2.09158275E+00
  4.94172285E+00  2.25938304E-01 -1.79667331E-01  4.94172285E+00  2.25938304E-01
 -1.79667331E-01  3.46564598E+00 -2.67065663E+00 -1.12767156E+00  3.46564598E+00
 -2.67065663E+00 -1.12767156E+00 -1.08078552E+00 -1.29827433E+00 -3.57267843E-01
 -1.08078552E+00 -1.29827433E+00 -3.57267843E-01 -1.08078552E+00 -1.29827433E+00
 -3.57267843E-01 -1.08078552E+00 -1.29827433E+00 -3.57267843E-01  6.44044883E-01
  2.63405547E+00 -4.10083431E-02  6.44044883E-01  2.63405547E+00 -4.10083431E-02
  6.44044883E-01  2.63405547E+00 -4.10083431E-02  6.44044883E-01  2.63405547E+00
 -4.10083431E-02 -3.59349091E+00 -2.98336407E-01  2.10870886E-01 -3.59349091E+00
 -2.98336407E-01  2.10870886E-01 -3.59349091E+00 -2.98336407E-01  2.10870886E-01
 -3.59349091E+00 -2.98336407E-01  2.10870886E-01 -3.59392628E+00  5.52390303E-01
  2.09068861E+00 -3.59392628E+00  5.52390303E-01  2.09068861E+00 -4.83737398E+00
 -1.93152930E+00  1.33172425E-01 -4.83737398E+00 -1.93152930E+00  1.33172425E-01
 -4.13791809E+00  1.11441337E+00 -1.18886697E+00 -4.13791809E+00  1.11441337E+00
 -1.18886697E+00
Constraint Structure                       R   N=          33
  3.40889879E+00 -1.01373206E+00  2.60898786E-03  9.14051101E-01  3.19833152E-01
 -7.81742531E-03  3.63875092E+00 -2.05397895E+00  1.77465822E+00  4.92351634E+00
  3.68271642E-01 -1.86390106E-01  3.49620877E+00 -2.38182814E+00 -1.54188183E+00
 -1.05685527E+00 -1.34898890E+00 -9.96412623E-03  5.95532135E-01  2.62543269E+00
 -6.12366558E-04 -3.60993875E+00 -2.94543667E-01  6.38979623E-03 -3.89822279E+00
  8.27902006E-01  1.71265638E+00 -4.85174824E+00 -1.93088467E+00 -2.36676098E-02
 -3.89598678E+00  8.89623214E-01 -1.65785126E+00
Num ILSW                                   I              100
ILSW                                       I   N=         100
           0           1           0           0           2           0
           0           0           0           0        4639          -1
           0           0           0           0           2           0
           0           0           0           0           1           0
           1           0           0           0           0           0
           0           0      100000           0          -1           0
           0           0           0           0           0           0
           0           0           0           1           0           0
           0           0           1           0           0           0
           0           0         121          41           0           0
           0           0          58           0           0           0
           0           0           0          11           0           0
           0           0           0           0           0           0
           0           0           0           0           0           0
           0           0           0           0           0           0
           0           0           0           0           0           0
           0           0           0           0
Num RLSW                                   I               41
RLSW                                       R   N=          41
  1.00000000E+00  1.00000000E+00  1.00000000E+00  1.00000000E+00  1.00000000E+00
  0.00000000E+00  2.00000000E-01  2.22036000E-01  0.00000000E+00  7.77964000E-01
  0.00000000E+00  2.00000000E-01  0.00000000E+00  0.00000000E+00  1.00000000E+00
  0.00000000E+00  0.00000000E+00  1.00000000E+00  0.00000000E+00  0.00000000E+00
  0.00000000E+00  0.00000000E+00  1.00000000E+00  0.00000000E+00  0.00000000E+00
  0.00000000E+00  0.00000000E+00  1.00000000E+00  0.00000000E+00  0.00000000E+00
  0.00000000E+00  0.00000000E+00  1.00000000E+00  0.00000000E+00  0.00000000E+00
  0.00000000E+00  0.00000000E+00  0.00000000E+00  1.00000000E+00  1.00000000E+00
  0.00000000E+00
MxBond                                     I                4
NBond                                      I   N=          11
           4           3           1           1           1           2
           1           4           1           1           1
IBond                                      I   N=          44
           2           3           4           5           1           6
           7           0           1           0           0           0
           1           0           0           0           1           0
           0           0           2           8           0           0
           2           0           0           0           6           9
          10          11           8           0           0           0
           8           0           0           0           8           0
           0           0
RBond                                      R   N=          44
  1.00000000E+00  1.00000000E+00  1.00000000E+00  1.00000000E+00  1.00000000E+00
  1.50000000E+00  2.00000000E+00  0.00000000E+00  1.00000000E+00  0.00000000E+00
  0.00000000E+00  0.00000000E+00  1.00000000E+00  0.00000000E+00  0.00000000E+00
  0.00000000E+00  1.00000000E+00  0.00000000E+00  0.00000000E+00  0.00000000E+00
  1.50000000E+00  1.00000000E+00  0.00000000E+00  0.00000000E+00  2.00000000E+00
  0.00000000E+00  0.00000000E+00  0.00000000E+00  1.00000000E+00  1.00000000E+00
  1.00000000E+00  1.00000000E+00  1.00000000E+00  0.00000000E+00  0.00000000E+00
  0.00000000E+00  1.00000000E+00  0.00000000E+00  0.00000000E+00  0.00000000E+00
  1.00000000E+00  0.00000000E+00  0.00000000E+00  0.00000000E+00
Virial Ratio                               R      2.005746930473115E+00
SCF Energy                                 R     -2.682194337493164E+02
Total Energy                               R     -2.682194337493164E+02
RMS Force                                  R      1.833326147133297E-03
RMS Density                                R      8.069760827745092E-09
External E-field                           R   N=          35
  0.00000000E+00  0.00000000E+00  0.00000000E+00  0.00000000E+00  0.00000000E+00
  0.00000000E+00  0.00000000E+00  0.00000000E+00  0.00000000E+00  0.00000000E+00
  0.00000000E+00  0.00000000E+00  0.00000000E+00  0.00000000E+00  0.00000000E+00
  0.00000000E+00  0.00000000E+00  0.00000000E+00  0.00000000E+00  0.00000000E+00
  0.00000000E+00  0.00000000E+00  0.00000000E+00  0.00000000E+00  0.00000000E+00
  0.00000000E+00  0.00000000E+00  0.00000000E+00  0.00000000E+00  0.00000000E+00
  0.00000000E+00  0.00000000E+00  0.00000000E+00  0.00000000E+00  0.00000000E+00
IOpCl                                      I                0
IROHF                                      I                0
Alpha Orbital Energies                     R   N=          77
 -1.93246510E+01 -1.92765510E+01 -1.04504296E+01 -1.03564149E+01 -1.03107126E+01
 -1.22364641E+00 -1.13512107E+00 -8.80869838E-01 -8.14193561E-01 -6.65417553E-01
 -5.96250402E-01 -5.85758797E-01 -5.68781533E-01 -5.29411996E-01 -5.16507269E-01
 -4.95572630E-01 -4.62800153E-01 -4.42076618E-01 -3.90573389E-01 -3.67388287E-01
  5.97909388E-02  7.22175462E-02  8.04952772E-02  1.00879782E-01  1.02139483E-01
  1.11757980E-01  1.27834882E-01  1.32031694E-01  1.53745680E-01  1.58482044E-01
  1.65662540E-01  1.98083383E-01  2.06959737E-01  2.26908392E-01  2.47510875E-01
  2.65476672E-01  2.65896050E-01  2.77114609E-01  3.02786903E-01  3.13303793E-01
  3.35438290E-01  3.43990405E-01  3.58794995E-01  3.63154019E-01  3.72518235E-01
  4.05189511E-01  4.15109599E-01  4.24751787E-01  4.35243431E-01  4.63154937E-01
  5.55844971E-01  7.25254309E-01  7.44864540E-01  7.56831087E-01  7.60022672E-01
  8.00889400E-01  8.20477630E-01  8.29306269E-01  9.16906616E-01  9.49817166E-01
  1.06685533E+00  1.09794417E+00  1.13090148E+00  1.15467414E+00  1.18343339E+00
  1.21172005E+00  1.25388073E+00  1.28298879E+00  1.29061766E+00  1.36967693E+00
  1.40306009E+00  1.45842079E+00  1.48027492E+00  1.53003533E+00  1.63285739E+00
  1.98503712E+00  2.00425918E+00
Alpha MO coefficients                      R   N=        5929
 -2.88413185E-05 -3.81868187E-04  7.78142624E-05 -3.17354481E-05  2.04031968E-06
  1.98168497E-03  1.86509317E-04  1.42109564E-03 -6.94768585E-05  1.58322355E-02
 -3.99716344E-03  9.32588763E-04 -4.00359768E-04  8.61580626E-05  3.31974109E-04
 -3.87565853E-04 -1.58313525E-04 -8.49080494E-06  3.76430566E-03 -4.85647317E-03
 -1.60597623E-03 -3.20427943E-04 -1.95426537E-02 -2.60636588E-03  5.15978282E-03
 -6.57404301E-04  2.95201318E-05 -3.59540728E-04 -1.79382402E-04 -6.13341767E-04
  9.27137519E-05 -3.76474443E-04  9.95237243E-01  2.98840631E-02 -8.48415412E-05
  1.87165292E-03  4.53506478E-04 -2.16711306E-02 -3.26384589E-04 -3.95982646E-03
 -9.09079449E-04  9.65667776E-03  8.67044636E-04  1.23627451E-03  2.31950285E-04
 -3.27369976E-04 -8.64651210E-05 -5.96601585E-05  7.23189616E-05  2.38541308E-05
 -3.26228767E-04  1.08122511E-03  6.24556191E-04 -2.63169466E-06 -1.48537219E-03
  8.54936318E-04  2.13410595E-04  1.69818300E-04 -3.12741239E-05 -1.60126333E-04
  7.00311720E-04 -1.89553947E-04 -1.20622505E-04  4.43360704E-03  1.33740332E-03
 -3.04457347E-04 -3.01300643E-04  1.08093765E-03 -1.88876127E-04  1.33723695E-04
  3.05299412E-04 -3.08356168E-04 -1.28205653E-03 -2.40373918E-04 -1.01744936E-03
 -3.17078419E-04 -1.25224046E-03 -1.33395451E-05 -2.51916926E-04 -1.77966374E-05
 -9.12697428E-05  3.44169732E-06  3.09826267E-03 -1.96925207E-03 -1.18941216E-03
 -5.63256176E-04  6.54753867E-04  2.68194532E-04  1.05275719E-03  3.93204229E-04
  2.41316889E-04  4.14204286E-04  1.71947808E-04 -5.84070806E-05 -2.14354387E-05
  6.79220331E-03 -2.69191531E-03  1.02846683E-02  4.88741550E-04 -7.64977005E-03
  1.38735950E-03 -2.72459407E-03 -6.99886151E-04 -3.67302032E-05 -1.29964252E-04
  1.51579610E-04  1.42488274E-04 -2.38202984E-04 -5.11800901E-04  3.44670495E-04
 -1.15662576E-04 -2.55235166E-04  2.61437701E-06 -2.62098270E-06  4.91176090E-04
  1.69587809E-03 -1.21521410E-03 -5.84552635E-05 -1.50448265E-03  1.38210124E-03
 -4.03000607E-04 -2.40195236E-04  9.95239848E-01  2.98605913E-02  1.66889065E-04
 -2.27781815E-03 -8.14529935E-05 -2.38895010E-02 -3.26125970E-04  5.97789876E-03
  1.99278274E-04  7.06245301E-03 -1.89812929E-04 -3.10357138E-04  1.44918314E-04
 -1.22015430E-05 -1.35458993E-04  1.18743401E-04 -1.08402839E-04 -3.08328335E-05
  2.09580379E-03  1.34528947E-04 -8.34426959E-04 -3.33582642E-04  4.06038395E-03
  1.40914786E-03  4.15463693E-04  2.15302772E-05  4.19580507E-05 -3.31959518E-04
 -1.91701048E-04 -4.84614238E-04 -2.35197402E-05 -3.52748034E-04  7.67296277E-04
 -6.94827391E-04  1.66013520E-04 -2.69317429E-04  1.25587921E-04  6.01152505E-03
 -1.59612759E-03  1.93915810E-03 -9.60284248E-04  4.68023222E-03 -8.32257959E-04
 -8.54898832E-04 -5.77401676E-04  9.95565994E-01  3.70386164E-02 -1.16487543E-03
  5.67193503E-04 -2.42898135E-05 -3.56665883E-02  4.43248066E-04  6.02227966E-04
  8.15299451E-06 -1.65105707E-02  2.43430286E-03  3.96717405E-03  2.20821864E-04
 -1.74595523E-04  4.29389672E-04 -1.41230946E-04 -1.50842714E-03 -8.87777690E-05
 -9.72265630E-04  4.02667676E-05  4.57698556E-04 -1.83720775E-04 -1.96153025E-04
 -4.70171693E-05 -1.70314739E-04 -8.99446826E-05 -1.48507666E-05  1.02952296E-04
  1.19688704E-02  6.95364307E-03  4.02120446E-03  4.12870095E-04 -1.31279292E-04
  3.53542984E-05 -1.18509426E-04  5.10951138E-04  3.77245691E-05  6.76024336E-04
  4.22159694E-04  1.20521929E-04 -4.36059407E-05  8.95428428E-03  7.60560724E-04
 -5.18562371E-03 -3.28826108E-05 -8.13242557E-05 -4.00347481E-04  7.94536497E-05
  4.76662056E-05  2.83158969E-06  1.18603575E-03 -3.81803324E-04  2.69574066E-04
  1.64094563E-05  7.56118149E-03  2.41000967E-03 -7.72132502E-04 -5.49098139E-04
 -4.85752334E-05 -1.52995005E-03 -4.38151549E-05  4.37671023E-04  4.55484568E-05
 -1.83901161E-03 -1.39999833E-04 -5.30522510E-04 -4.09044326E-05  1.82407452E-05
 -1.11210663E-06  4.22534927E-03 -2.17246992E-03  6.00351439E-04 -1.22816415E-04
 -1.38192581E-03 -8.48526797E-04 -2.38883385E-04  7.11081065E-04 -1.29038144E-05
 -2.73966007E-04  1.56774376E-04 -1.53080835E-04  4.76400607E-05 -6.49179409E-04
 -2.53918833E-03  2.98875917E-03 -4.30629694E-04  4.13715016E-03  2.52876214E-03
 -2.39368446E-03 -1.16545790E-03 -1.42635039E-05 -6.84480118E-04 -9.49607382E-05
  1.35822103E-04 -2.19806643E-04  3.93672399E-04  4.72038383E-05  3.76080705E-04
  2.27141776E-07  2.67748435E-06 -4.62175965E-05  1.26137232E-03  2.25194778E-05
 -8.09289646E-05  2.99202982E-04  1.45873902E-02 -8.60700086E-03  3.71747271E-03
  1.67755932E-03  1.11287260E-05  2.64169127E-06  8.76163579E-05  1.07690990E-04
 -1.12444949E-05 -1.39527262E-03  2.44113252E-04  1.36544494E-04  7.54470837E-05
 -1.59548436E-03 -5.17549600E-04  2.17330789E-03  5.78536290E-04  9.95552164E-01
  3.73380678E-02  1.19911267E-03 -4.08426722E-04 -2.55366033E-04 -3.60914558E-02
 -3.45632872E-03  9.42551037E-04  6.97333562E-04 -8.62459089E-03 -2.91540198E-03
  1.19453710E-03  7.46329609E-04 -5.23550951E-04  5.76866796E-03 -4.74445211E-04
  4.94178094E-03 -4.82834142E-04  5.59135152E-03  9.95474112E-01  3.75841993E-02
 -4.46924223E-04  2.08463371E-05  8.31188567E-05 -3.87727812E-02  3.76685483E-03
 -1.41238849E-03 -7.10099443E-05 -1.79351867E-02  3.22988600E-03 -2.30861240E-03
  6.56032870E-04 -7.42679493E-04 -7.80396195E-04 -6.47918526E-04  3.46542461E-04
 -3.63149826E-05  6.66640632E-03  7.49993157E-03 -2.83746705E-03  8.15715674E-04
  9.42570511E-03  7.09119680E-03 -7.09817701E-04 -2.13287239E-04 -5.35921341E-04
  8.04760301E-03 -5.43542836E-04  6.91651671E-03 -5.06320660E-04  7.40549492E-03
 -8.53425096E-06 -2.80335243E-04 -1.99474798E-04 -4.14286235E-05 -1.96742408E-05
  3.29508148E-04  1.05217705E-03  5.91941494E-04  8.90474778E-06  1.81503950E-03
  3.23819578E-03 -3.08929854E-04  3.30428104E-04 -1.71922844E-06 -1.64472335E-04
 -2.65566671E-05  1.13302108E-04  1.76816187E-05  2.03406701E-04 -7.20632685E-04
 -3.81018529E-04 -1.94045623E-04  2.15496947E-03 -5.08285816E-04 -1.28499834E-03
  3.02442370E-04  7.45562860E-06 -4.88341474E-04  2.98888586E-05 -2.92107134E-05
  8.85707106E-05  2.44353385E-03  8.82123701E-04 -9.73873777E-05 -7.26064206E-04
  5.05290387E-03  1.56994983E-03  2.00926429E-05 -2.79343092E-04  1.20761934E-05
 -1.22035132E-04 -1.02000426E-04  2.55507227E-04 -1.83566238E-04 -2.06594248E-04
 -1.70722534E-02  3.19633467E-02 -2.22061580E-02  1.15348379E-02 -2.07232302E-03
  2.87620218E-03  2.75504937E-03 -4.80741210E-03  2.23263960E-03 -6.60063812E-02
  1.74624449E-02 -6.09780548E-03  6.04449227E-05 -1.19029206E-01  2.43565594E-01
 -8.97357584E-02  5.23350100E-02 -3.16654385E-04  3.41580455E-02  3.78355498E-02
 -3.40702180E-02  1.27254397E-03  1.21094611E-01 -2.52600279E-03 -1.57140804E-02
  7.01059001E-03  4.82236285E-03 -1.93760403E-03  4.90275488E-03  9.90604285E-04
  4.83791297E-03  1.93221742E-04 -1.49937060E-01  3.21769119E-01  2.22066309E-02
  9.85093910E-02  2.24366012E-02  3.53296091E-01  5.10382779E-03  6.61508532E-02
  1.53320334E-02 -4.34320498E-02 -1.96522737E-02 -1.43932943E-02 -3.38719836E-03
 -1.12942872E-01  2.45889806E-01  2.99387333E-03 -1.17899782E-01 -5.01872440E-03
  2.44383619E-01 -3.80872137E-03 -5.09056867E-02 -1.66348327E-03  5.64478647E-04
 -6.73946534E-03 -4.61750877E-03 -2.54736642E-03 -4.07914263E-02  7.51785023E-02
  5.46930128E-02 -1.48910356E-02 -1.04889030E-02  2.28929229E-02 -3.90663849E-03
  9.08202920E-03  3.24141455E-03 -3.14879345E-02 -7.80410627E-03 -1.38887493E-03
 -4.65966999E-04  1.21980755E-02  2.73147058E-03  1.15272349E-02  4.12850507E-03
  1.20200994E-02  1.40754004E-03 -4.66885529E-03  8.73049302E-03 -4.39927580E-04
  1.42801760E-02  1.04413650E-04  1.08261793E-04  1.23323655E-02  1.66898712E-02
  3.87477747E-03  1.42291694E-01 -3.48419751E-02  1.16139407E-02 -5.30440287E-03
 -4.50539523E-02  9.43899812E-02  5.22805717E-02  2.25267680E-01  1.44118749E-02
  2.87185310E-02 -2.13645651E-02 -7.51086095E-02 -5.62984175E-03 -9.13977790E-02
 -6.23954664E-02  2.92856769E-02 -4.35186454E-03  1.12819832E-03 -3.75087497E-03
  3.26770651E-03 -5.25480016E-03  3.23884095E-04  9.04515848E-04  1.37536721E-01
 -2.97062958E-01  9.87102189E-03 -5.76341001E-02 -1.97396665E-02 -3.54627699E-01
  1.65545284E-03 -4.61677931E-02 -1.55137723E-02 -1.02604821E-02 -3.08712772E-02
  1.11664563E-03  2.72117912E-03 -1.58352065E-01  3.48259884E-01  2.48054329E-02
 -1.38111796E-01 -5.07600335E-03  3.57167562E-01  1.00529696E-02 -5.74730259E-02
 -1.61663060E-03  1.20519259E-02  1.59877026E-02 -1.05670359E-02 -4.57708316E-04
  4.38106284E-02 -8.67420801E-02 -5.50458119E-02  2.21455554E-02  1.16524805E-02
 -3.11619108E-02  1.27117921E-02  5.06264038E-03 -3.39732257E-04 -4.56931622E-02
 -1.92075450E-02  1.11408146E-03  4.56347896E-03 -1.47399448E-02 -3.61858149E-03
 -1.44467341E-02 -5.69604934E-04 -1.41969000E-02 -2.30294307E-03 -1.48421892E-01
  2.78757623E-01 -5.59377655E-02  1.63908070E-02 -3.77020345E-03  2.83244125E-01
 -1.54539447E-02 -6.40165807E-04  4.23405225E-04  3.88709400E-02 -8.84953677E-03
  1.01083892E-02 -3.10845460E-04 -8.33741208E-02  1.77190588E-01  8.96880747E-02
 -1.60582811E-01  4.15356388E-03  1.36044810E-01  9.62109013E-03 -5.50781759E-03
  2.01637321E-03  1.80731724E-02 -1.38076584E-02 -1.74390870E-02 -8.32661126E-04
  8.78124865E-02  3.26056674E-03  8.00508876E-02  3.17094656E-03  8.71553994E-02
  4.88438165E-03  7.54089694E-03 -1.63128324E-02  1.83642817E-01 -3.73527028E-03
 -9.83337226E-03 -2.26052912E-02  8.00564640E-02 -6.61219854E-03 -5.54905191E-03
  7.07865023E-03 -3.06641742E-02  3.26365952E-03  1.55209077E-03  4.51767871E-02
 -1.02256927E-01  2.34967533E-02  4.72240013E-03  2.53944620E-03 -1.18779761E-01
  1.04781527E-02  4.83904747E-03  4.59853130E-04 -2.41735010E-02 -4.66147342E-03
  1.65079462E-02 -3.32217327E-04  9.39919639E-02 -1.81508591E-01 -3.08822864E-02
  1.80042528E-02  9.10183018E-03 -1.77496940E-01 -3.74389491E-03 -4.71775461E-03
  4.50660475E-04 -5.06322299E-02 -1.81306743E-02  4.80423343E-03  3.40334556E-03
 -5.28870289E-02 -8.40862540E-04 -5.72152272E-02 -1.11230578E-02 -5.29638107E-02
 -9.42568766E-04 -1.15166261E-01  2.16725739E-01  1.63509141E-02  9.80450948E-03
  7.50292868E-03  2.44181959E-01  7.67922300E-03  8.62179179E-03  9.22386394E-04
  1.41288507E-01 -2.69510854E-02  1.49916252E-02 -6.51793377E-03  1.37036100E-02
 -3.51303239E-02  1.68595270E-01  3.79841191E-02  2.84832031E-02 -2.06259171E-02
  4.62667887E-03 -6.88671496E-03  5.65289023E-03 -1.65272907E-01 -3.21298571E-02
  2.88783385E-02  2.37125738E-04  8.05239642E-02  1.13507082E-02  8.43709402E-02
  6.49575580E-03  7.35024612E-02  4.29195820E-03  4.03814977E-02 -9.24428934E-02
 -1.89533476E-01 -4.27235582E-02  2.12240656E-02 -1.35570081E-01 -8.57825784E-02
 -2.59761695E-02  7.37549131E-03 -3.97781031E-02  2.92913705E-02 -2.90426864E-03
 -4.95309916E-03  1.75942742E-03 -5.25319124E-03  3.31803930E-02  1.05614557E-02
  8.55121091E-03 -2.09175484E-03  1.20631958E-02  3.44067893E-03  3.05103095E-03
  1.38002912E-02  8.68935888E-03 -7.41016197E-03 -1.37449129E-03 -1.50333954E-01
  2.93479147E-01 -2.81869202E-02 -9.28088588E-03  5.05711440E-03  3.20851083E-01
 -7.52268567E-03 -3.57423232E-03  2.66446627E-03  5.65177473E-02  1.73852792E-02