B.pdb                                                                   
FOpt      RwB97XD                                                     6-31+G              
Number of atoms                            I               10
Info1-9                                    I   N=           9
          21          21           0           0           0         110
           2          18        -802
Charge                                     I                0
Multiplicity                               I                1
Number of electrons                        I               38
Number of alpha electrons                  I               19
Number of beta electrons                   I               19
Number of basis functions                  I               75
Number of independent functions            I               75
Number of point charges in /Mol/           I                0
Number of translation vectors              I                0
Atomic numbers                             I   N=          10
           6           6           6           6           1           1
           9           1           1           1
Nuclear charges                            R   N=          10
  6.00000000E+00  6.00000000E+00  6.00000000E+00  6.00000000E+00  1.00000000E+00
  1.00000000E+00  9.00000000E+00  1.00000000E+00  1.00000000E+00  1.00000000E+00
Current cartesian coordinates              R   N=          30
  3.10806441E+00 -1.39994578E+00  3.47262557E-01  9.83348147E-01 -1.60721541E-01
 -1.74395293E-01 -1.57935339E+00 -1.16931362E+00 -4.73051202E-01 -3.66132757E+00
 -3.12760127E-02  4.02450097E-01  4.87091936E+00 -4.08697042E-01  6.49978553E-01
  3.10464624E+00 -3.44385677E+00  4.51972337E-01  1.07803156E+00  2.50663855E+00
 -2.12040261E-01 -1.69074355E+00 -3.04302879E+00 -1.30859203E+00 -3.59141600E+00
  1.81991632E+00  1.28090172E+00 -5.50007969E+00 -9.16539029E-01  2.20504816E-01
Force Field                                I                0
Int Atom Types                             I   N=          10
           0           0           0           0           0           0
           0           0           0           0
MM charges                                 R   N=          10
  0.00000000E+00  0.00000000E+00  0.00000000E+00  0.00000000E+00  0.00000000E+00
  0.00000000E+00  0.00000000E+00  0.00000000E+00  0.00000000E+00  0.00000000E+00
Integer atomic weights                     I   N=          10
          12          12          12          12           1           1
          19           1           1           1
Real atomic weights                        R   N=          10
  1.20000000E+01  1.20000000E+01  1.20000000E+01  1.20000000E+01  1.00782504E+00
  1.00782504E+00  1.89984032E+01  1.00782504E+00  1.00782504E+00  1.00782504E+00
Atom fragment info                         I   N=          10
           0           0           0           0           0           0
           0           0           0           0
Atom residue num                           I   N=          10
           0           0           0           0           0           0
           0           0           0           0
Nuclear spins                              I   N=          10
           0           0           0           0           1           1
           1           1           1           1
Nuclear ZEff                               R   N=          10
 -3.60000000E+00 -3.60000000E+00 -3.60000000E+00 -3.60000000E+00 -1.00000000E+00
 -1.00000000E+00 -6.75000000E+00 -1.00000000E+00 -1.00000000E+00 -1.00000000E+00
Nuclear ZNuc                               R   N=          10
  6.00000000E+00  6.00000000E+00  6.00000000E+00  6.00000000E+00  1.00000000E+00
  1.00000000E+00  9.00000000E+00  1.00000000E+00  1.00000000E+00  1.00000000E+00
Nuclear QMom                               R   N=          10
  0.00000000E+00  0.00000000E+00  0.00000000E+00  0.00000000E+00  0.00000000E+00
  0.00000000E+00  0.00000000E+00  0.00000000E+00  0.00000000E+00  0.00000000E+00
Nuclear GFac                               R   N=          10
  0.00000000E+00  0.00000000E+00  0.00000000E+00  0.00000000E+00  2.79284600E+00
  2.79284600E+00  2.62886700E+00  2.79284600E+00  2.79284600E+00  2.79284600E+00
MicOpt                                     I   N=          10
          -1          -1          -1          -1          -1          -1
          -1          -1          -1          -1
Number of contracted shells                I               30
Number of primitive shells                 I               75
Pure/Cartesian d shells                    I                1
Pure/Cartesian f shells                    I                0
Highest angular momentum                   I                1
Largest degree of contraction              I                6
Shell types                                I   N=          30
           0          -1          -1          -1           0          -1
          -1          -1           0          -1          -1          -1
           0          -1          -1          -1           0           0
           0           0           0          -1          -1          -1
           0           0           0           0           0           0
Number of primitives per shell             I   N=          30
           6           3           1           1           6           3
           1           1           6           3           1           1
           6           3           1           1           3           1
           3           1           6           3           1           1
           3           1           3           1           3           1
Shell to atom map                          I   N=          30
           1           1           1           1           2           2
           2           2           3           3           3           3
           4           4           4           4           5           5
           6           6           7           7           7           7
           8           8           9           9          10          10
Primitive exponents                        R   N=          75
  3.04752488E+03  4.57369518E+02  1.03948685E+02  2.92101553E+01  9.28666296E+00
  3.16392696E+00  7.86827235E+00  1.88128854E+00  5.44249258E-01  1.68714478E-01
  4.38000000E-02  3.04752488E+03  4.57369518E+02  1.03948685E+02  2.92101553E+01
  9.28666296E+00  3.16392696E+00  7.86827235E+00  1.88128854E+00  5.44249258E-01
  1.68714478E-01  4.38000000E-02  3.04752488E+03  4.57369518E+02  1.03948685E+02
  2.92101553E+01  9.28666296E+00  3.16392696E+00  7.86827235E+00  1.88128854E+00
  5.44249258E-01  1.68714478E-01  4.38000000E-02  3.04752488E+03  4.57369518E+02
  1.03948685E+02  2.92101553E+01  9.28666296E+00  3.16392696E+00  7.86827235E+00
  1.88128854E+00  5.44249258E-01  1.68714478E-01  4.38000000E-02  1.87311370E+01
  2.82539436E+00  6.40121692E-01  1.61277759E-01  1.87311370E+01  2.82539436E+00
  6.40121692E-01  1.61277759E-01  7.00171309E+03  1.05136609E+03  2.39285690E+02
  6.73974453E+01  2.15199573E+01  7.40310130E+00  2.08479528E+01  4.80830834E+00
  1.34406986E+00  3.58151393E-01  1.07600000E-01  1.87311370E+01  2.82539436E+00
  6.40121692E-01  1.61277759E-01  1.87311370E+01  2.82539436E+00  6.40121692E-01
  1.61277759E-01  1.87311370E+01  2.82539436E+00  6.40121692E-01  1.61277759E-01
Contraction coefficients                   R   N=          75
  1.83473713E-03  1.40373228E-02  6.88426223E-02  2.32184443E-01  4.67941348E-01
  3.62311985E-01 -1.19332420E-01 -1.60854152E-01  1.14345644E+00  1.00000000E+00
  1.00000000E+00  1.83473713E-03  1.40373228E-02  6.88426223E-02  2.32184443E-01
  4.67941348E-01  3.62311985E-01 -1.19332420E-01 -1.60854152E-01  1.14345644E+00
  1.00000000E+00  1.00000000E+00  1.83473713E-03  1.40373228E-02  6.88426223E-02
  2.32184443E-01  4.67941348E-01  3.62311985E-01 -1.19332420E-01 -1.60854152E-01
  1.14345644E+00  1.00000000E+00  1.00000000E+00  1.83473713E-03  1.40373228E-02
  6.88426223E-02  2.32184443E-01  4.67941348E-01  3.62311985E-01 -1.19332420E-01
 -1.60854152E-01  1.14345644E+00  1.00000000E+00  1.00000000E+00  3.34946043E-02
  2.34726953E-01  8.13757326E-01  1.00000000E+00  3.34946043E-02  2.34726953E-01
  8.13757326E-01  1.00000000E+00  1.81961690E-03  1.39160796E-02  6.84053245E-02
  2.33185760E-01  4.71267439E-01  3.56618546E-01 -1.08506975E-01 -1.46451658E-01
  1.12868858E+00  1.00000000E+00  1.00000000E+00  3.34946043E-02  2.34726953E-01
  8.13757326E-01  1.00000000E+00  3.34946043E-02  2.34726953E-01  8.13757326E-01
  1.00000000E+00  3.34946043E-02  2.34726953E-01  8.13757326E-01  1.00000000E+00
P(S=P) Contraction coefficients            R   N=          75
  0.00000000E+00  0.00000000E+00  0.00000000E+00  0.00000000E+00  0.00000000E+00
  0.00000000E+00  6.89990666E-02  3.16423961E-01  7.44308291E-01  1.00000000E+00
  1.00000000E+00  0.00000000E+00  0.00000000E+00  0.00000000E+00  0.00000000E+00
  0.00000000E+00  0.00000000E+00  6.89990666E-02  3.16423961E-01  7.44308291E-01
  1.00000000E+00  1.00000000E+00  0.00000000E+00  0.00000000E+00  0.00000000E+00
  0.00000000E+00  0.00000000E+00  0.00000000E+00  6.89990666E-02  3.16423961E-01
  7.44308291E-01  1.00000000E+00  1.00000000E+00  0.00000000E+00  0.00000000E+00
  0.00000000E+00  0.00000000E+00  0.00000000E+00  0.00000000E+00  6.89990666E-02
  3.16423961E-01  7.44308291E-01  1.00000000E+00  1.00000000E+00  0.00000000E+00
  0.00000000E+00  0.00000000E+00  0.00000000E+00  0.00000000E+00  0.00000000E+00
  0.00000000E+00  0.00000000E+00  0.00000000E+00  0.00000000E+00  0.00000000E+00
  0.00000000E+00  0.00000000E+00  0.00000000E+00  7.16287242E-02  3.45912103E-01
  7.22469956E-01  1.00000000E+00  1.00000000E+00  0.00000000E+00  0.00000000E+00
  0.00000000E+00  0.00000000E+00  0.00000000E+00  0.00000000E+00  0.00000000E+00
  0.00000000E+00  0.00000000E+00  0.00000000E+00  0.00000000E+00  0.00000000E+00
Coordinates of each shell                  R   N=          90
  3.10806441E+00 -1.39994578E+00  3.47262557E-01  3.10806441E+00 -1.39994578E+00
  3.47262557E-01  3.10806441E+00 -1.39994578E+00  3.47262557E-01  3.10806441E+00
 -1.39994578E+00  3.47262557E-01  9.83348147E-01 -1.60721541E-01 -1.74395293E-01
  9.83348147E-01 -1.60721541E-01 -1.74395293E-01  9.83348147E-01 -1.60721541E-01
 -1.74395293E-01  9.83348147E-01 -1.60721541E-01 -1.74395293E-01 -1.57935339E+00
 -1.16931362E+00 -4.73051202E-01 -1.57935339E+00 -1.16931362E+00 -4.73051202E-01
 -1.57935339E+00 -1.16931362E+00 -4.73051202E-01 -1.57935339E+00 -1.16931362E+00
 -4.73051202E-01 -3.66132757E+00 -3.12760127E-02  4.02450097E-01 -3.66132757E+00
 -3.12760127E-02  4.02450097E-01 -3.66132757E+00 -3.12760127E-02  4.02450097E-01
 -3.66132757E+00 -3.12760127E-02  4.02450097E-01  4.87091936E+00 -4.08697042E-01
  6.49978553E-01  4.87091936E+00 -4.08697042E-01  6.49978553E-01  3.10464624E+00
 -3.44385677E+00  4.51972337E-01  3.10464624E+00 -3.44385677E+00  4.51972337E-01
  1.07803156E+00  2.50663855E+00 -2.12040261E-01  1.07803156E+00  2.50663855E+00
 -2.12040261E-01  1.07803156E+00  2.50663855E+00 -2.12040261E-01  1.07803156E+00
  2.50663855E+00 -2.12040261E-01 -1.69074355E+00 -3.04302879E+00 -1.30859203E+00
 -1.69074355E+00 -3.04302879E+00 -1.30859203E+00 -3.59141600E+00  1.81991632E+00
  1.28090172E+00 -3.59141600E+00  1.81991632E+00  1.28090172E+00 -5.50007969E+00
 -9.16539029E-01  2.20504816E-01 -5.50007969E+00 -9.16539029E-01  2.20504816E-01
Constraint Structure                       R   N=          30
  3.12767279E+00 -1.39202692E+00  3.44975125E-01  9.82843036E-01 -1.72102947E-01
 -1.89033134E-01 -1.57594627E+00 -1.17916454E+00 -4.66892796E-01 -3.67346673E+00
 -3.55269173E-02  3.95910803E-01  4.87864953E+00 -3.80010494E-01  6.55931450E-01
  3.15624551E+00 -3.43739846E+00  4.42628613E-01  1.06759339E+00  2.51913541E+00
 -2.03818352E-01 -1.68247574E+00 -3.08052383E+00 -1.24364772E+00 -3.62033713E+00
  1.83883763E+00  1.22694055E+00 -5.50703962E+00 -9.40195567E-01  2.42752280E-01
Num ILSW                                   I              100
ILSW                                       I   N=         100
           0           1           0           0           2           0
           0           0           0           0        4639          -1
           0           0           0           0           2           0
           0           0           0           0           1           0
           1           0           0           0           0           0
           0           0      100000           0          -1           0
           0           0           0           0           0           0
           0           0           0           1           0           0
           0           0           1           0           0           0
           0           0         121          41           0           0
           0           0          58           0           0           0
           0           0           0          10           0           0
           0           0           0           0           0           0
           0           0           0           0           0           0
           0           0           0           0           0           0
           0           0           0           0           0           0
           0           0           0           0
Num RLSW                                   I               41
RLSW                                       R   N=          41
  1.00000000E+00  1.00000000E+00  1.00000000E+00  1.00000000E+00  1.00000000E+00
  0.00000000E+00  2.00000000E-01  2.22036000E-01  0.00000000E+00  7.77964000E-01
  0.00000000E+00  2.00000000E-01  0.00000000E+00  0.00000000E+00  1.00000000E+00
  0.00000000E+00  0.00000000E+00  1.00000000E+00  0.00000000E+00  0.00000000E+00
  0.00000000E+00  0.00000000E+00  1.00000000E+00  0.00000000E+00  0.00000000E+00
  0.00000000E+00  0.00000000E+00  1.00000000E+00  0.00000000E+00  0.00000000E+00
  0.00000000E+00  0.00000000E+00  1.00000000E+00  0.00000000E+00  0.00000000E+00
  0.00000000E+00  0.00000000E+00  0.00000000E+00  1.00000000E+00  1.00000000E+00
  0.00000000E+00
MxBond                                     I                3
NBond                                      I   N=          10
           3           3           3           3           1           1
           1           1           1           1
IBond                                      I   N=          30
           2           5           6           1           3           7
           2           4           8           3           9          10
           1           0           0           1           0           0
           2           0           0           3           0           0
           4           0           0           4           0           0
RBond                                      R   N=          30
  2.00000000E+00  1.00000000E+00  1.00000000E+00  2.00000000E+00  1.00000000E+00
  1.00000000E+00  1.00000000E+00  2.00000000E+00  1.00000000E+00  2.00000000E+00
  1.00000000E+00  1.00000000E+00  1.00000000E+00  0.00000000E+00  0.00000000E+00
  1.00000000E+00  0.00000000E+00  0.00000000E+00  1.00000000E+00  0.00000000E+00
  0.00000000E+00  1.00000000E+00  0.00000000E+00  0.00000000E+00  1.00000000E+00
  0.00000000E+00  0.00000000E+00  1.00000000E+00  0.00000000E+00  0.00000000E+00
Virial Ratio                               R      2.005630785800695E+00
SCF Energy                                 R     -2.550976835714781E+02
Total Energy                               R     -2.550976835714781E+02
RMS Force                                  R      2.159298970092391E-03
RMS Density                                R      7.007356233445691E-09
External E-field                           R   N=          35
  0.00000000E+00  0.00000000E+00  0.00000000E+00  0.00000000E+00  0.00000000E+00
  0.00000000E+00  0.00000000E+00  0.00000000E+00  0.00000000E+00  0.00000000E+00
  0.00000000E+00  0.00000000E+00  0.00000000E+00  0.00000000E+00  0.00000000E+00
  0.00000000E+00  0.00000000E+00  0.00000000E+00  0.00000000E+00  0.00000000E+00
  0.00000000E+00  0.00000000E+00  0.00000000E+00  0.00000000E+00  0.00000000E+00
  0.00000000E+00  0.00000000E+00  0.00000000E+00  0.00000000E+00  0.00000000E+00
  0.00000000E+00  0.00000000E+00  0.00000000E+00  0.00000000E+00  0.00000000E+00
IOpCl                                      I                0
IROHF                                      I                0
Alpha Orbital Energies                     R   N=          75
 -2.48308711E+01 -1.04028007E+01 -1.03294354E+01 -1.03155740E+01 -1.03101556E+01
 -1.31076001E+00 -9.27712210E-01 -8.64297587E-01 -7.31779705E-01 -6.64104119E-01
 -6.02233812E-01 -5.85247419E-01 -5.50737744E-01 -5.27679980E-01 -5.05367509E-01
 -4.83420073E-01 -4.55344935E-01 -4.04432766E-01 -3.31091882E-01  2.07995786E-02
  6.79957156E-02  8.15198866E-02  9.54525745E-02  1.02464778E-01  1.15297248E-01
  1.20821822E-01  1.30243918E-01  1.39996346E-01  1.47602287E-01  1.59634356E-01
  1.67978275E-01  1.84107333E-01  1.94418467E-01  2.02064308E-01  2.13625284E-01
  2.32392125E-01  2.46255986E-01  2.52542234E-01  2.84941248E-01  2.94815405E-01
  3.07963232E-01  3.22927206E-01  3.89948344E-01  4.11963788E-01  4.23727645E-01
  4.34965501E-01  4.56337520E-01  4.87629970E-01  5.01355907E-01  5.21206127E-01
  6.79359384E-01  7.43749451E-01  7.71565483E-01  7.87078436E-01  8.12828483E-01
  8.30117267E-01  8.51420631E-01  8.89909877E-01  9.29954479E-01  9.86745583E-01
  1.02688529E+00  1.04172211E+00  1.09457605E+00  1.13474133E+00  1.15664976E+00
  1.17074082E+00  1.23812986E+00  1.30653853E+00  1.31851557E+00  1.39289512E+00
  1.41428847E+00  1.66714902E+00  1.81632648E+00  1.85369225E+00  2.37945649E+00
Alpha MO coefficients                      R   N=        5625
  7.57698716E-06 -8.80898948E-05  7.47939323E-05  3.70451094E-05  1.55645680E-05
  1.38431346E-03 -1.90480250E-03 -2.84705441E-03 -4.27505582E-04  4.40485524E-03
 -1.46430690E-03  7.12267929E-04  1.98589926E-04 -1.19352212E-05  4.85985739E-04
  2.41815327E-05  4.76458721E-04 -6.08929669E-05 -6.99823508E-04  7.71691677E-04
  5.10038190E-03  4.04226829E-04 -1.39978915E-02  2.48176478E-03 -1.70045387E-03
 -2.96823468E-04  6.72480119E-06 -9.25708403E-05 -1.19346879E-04  4.37564962E-06
  3.25386929E-05  1.07675531E-03  2.46411571E-03 -2.02073537E-03 -5.26923353E-04
  2.44949095E-03  9.17773823E-04  7.83803474E-04 -9.88900385E-04  8.79650991E-06
  1.21286909E-04  1.08351201E-04 -4.75602436E-06 -2.79681886E-05  2.01951446E-03
  2.52714723E-04 -4.70580579E-04 -4.08902981E-04  4.44941145E-03  1.51832392E-03
 -7.29222479E-05  3.81260715E-04  3.29507981E-04  1.09164890E-03 -2.93078773E-04
 -1.82667843E-03  9.95030282E-01  2.76625233E-02 -6.15863121E-05 -1.31286142E-03
  4.07612539E-05 -1.56862747E-02  1.13414825E-04  2.34546502E-03 -1.00596793E-04
  7.98190418E-03 -2.86859013E-04 -9.27802979E-04  3.40002271E-05 -2.42685255E-04
 -9.68833419E-04  7.99719696E-05 -4.05143712E-04 -6.48121027E-05 -4.12541481E-04
  4.66689491E-03 -1.18227779E-03  7.76732880E-04 -3.48684263E-04  1.98559235E-04
  8.75258052E-03 -4.11858014E-03  4.75240833E-04 -8.44758772E-04 -2.56250049E-02
  6.22342491E-03 -2.93791596E-03  1.05161993E-03  9.95507265E-01  3.63829623E-02
  1.38673436E-04  1.14182105E-03  1.20902350E-04 -3.65666692E-02  4.92297311E-04
  8.01443294E-04 -4.52572900E-04  5.03408013E-02 -1.28187988E-03 -7.19616692E-03
  8.34032115E-04  1.91071998E-03 -7.47383777E-04 -5.53069485E-04 -2.13691489E-04
 -3.06429682E-05  6.57347720E-03  4.47125059E-03  1.02424062E-03  3.33312637E-04
 -1.24541708E-02 -8.86874971E-03 -1.15519466E-03  9.25191958E-04 -8.44230541E-05
 -3.56497483E-04 -8.06837852E-05  7.14666845E-05 -4.17091982E-05  1.16404839E-03
 -9.43037560E-05 -6.34497492E-04 -1.03761301E-04 -1.12760514E-02 -2.31891861E-03
  1.98876089E-03  4.83856611E-04 -5.86965562E-05  4.75933929E-04 -3.14676812E-04
 -9.94119268E-04  4.15069507E-05  7.20812894E-04  1.02168445E-05 -7.95683862E-05
  9.94909714E-07 -8.80541517E-04 -3.95946788E-05  8.35995852E-04 -1.70630207E-06
  7.29281306E-03 -9.33772975E-05 -4.94850830E-03  1.72921593E-04 -2.01557659E-04
 -7.08179212E-05 -3.14390226E-05 -1.42967506E-04 -9.31862173E-05  2.07669728E-04
 -4.61896930E-04 -4.06896207E-04  1.07007328E-04 -5.01868999E-06 -2.93990544E-05
  2.65745884E-03 -5.18712359E-04  1.50126715E-03 -2.24127182E-04 -1.35003351E-02
  2.89372474E-03 -2.04328225E-03 -3.03939476E-04 -1.89772666E-03 -8.78734546E-04
  7.33448240E-04  2.41015441E-04  1.68338922E-04  6.82492777E-03 -7.20634353E-03
 -1.39908489E-03 -8.21752265E-04 -1.68937982E-02  1.10740892E-02 -7.21979103E-04
  2.07659010E-03  9.94950275E-01  3.63863517E-02  1.26114227E-04  3.70415187E-04
  3.01705062E-04 -3.64556754E-02 -1.43464883E-03 -4.59062274E-03 -2.44197635E-03
  7.60696026E-02 -1.43200930E-03  1.29014223E-02  6.78941087E-03  3.02376089E-02
 -2.38400265E-04 -7.63312630E-04  4.12777937E-04  3.30946335E-04  8.91723371E-03
  5.08049357E-03 -7.44584346E-04 -1.10984282E-03 -4.38172792E-02 -9.60943194E-03
  3.67540593E-03  2.97319230E-03 -1.31910793E-04  9.85194584E-05 -6.11770066E-05
  5.95429366E-04  2.23815278E-06 -1.15028263E-04  5.01241393E-05  1.28770685E-04
  1.98879689E-05 -1.66772455E-04  1.04264832E-04 -3.09634251E-04 -1.35453848E-05
  4.83830788E-04  5.57500262E-04  9.43350704E-05  7.51022393E-06 -6.67558420E-04
  2.73572491E-03 -4.05339480E-04 -5.31100078E-04 -1.24333467E-04  1.24022212E-03
 -8.48048929E-04 -2.86593932E-04 -6.88288959E-05  1.61081459E-05  1.78983125E-05
  1.56699632E-03 -4.54061779E-05  5.95425448E-04 -1.22964170E-04 -2.78245187E-02
  3.96356816E-03 -3.70816829E-03  1.72387697E-03  8.26468844E-05 -3.25626825E-04
  1.81289725E-04  3.02491801E-05 -1.61393169E-05  2.59518668E-04 -1.44112081E-03
 -6.55414413E-04 -3.83785246E-04 -1.78264946E-02  2.23690056E-02 -1.68774485E-03
  2.42860277E-03 -3.04867162E-02 -2.33115169E-03  9.46708713E-04 -5.97211555E-04
 -4.46501693E-04  9.17315983E-03 -5.36847256E-03  2.42995117E-03  2.03827217E-03
  1.54919950E-02  1.58943594E-02  4.48957502E-03 -4.37810731E-04  9.94869353E-01
  3.54398970E-02  4.09263165E-04 -2.49743733E-04 -2.45029869E-04 -3.11561041E-02
 -3.23594066E-03  1.99754355E-03  1.56390305E-03  3.07017744E-02  7.95682255E-03
 -4.30877933E-03 -3.41209994E-03 -7.93772920E-05 -2.23042651E-04 -4.42993976E-05
  3.93760464E-04  7.87370671E-06  1.12152356E-04 -2.83957450E-05  2.70713781E-05
 -1.90319211E-05 -4.63732576E-04  3.56708593E-04 -7.08037138E-05  6.90629166E-05
  1.90721855E-03 -4.64573710E-04 -2.52599617E-04  2.38889012E-05 -1.04336020E-04
  1.16276574E-04 -6.12247719E-04  3.56508854E-03 -6.92285565E-04  4.24375858E-03
  9.95294108E-01  3.56515871E-02 -5.83945547E-04  2.59375897E-04 -1.90454663E-04
 -3.26040264E-02  4.15705918E-03 -2.06654568E-03  1.10453379E-03  2.07063876E-02
 -5.88740171E-03  4.45795962E-03 -1.48445982E-03 -4.94924076E-03 -1.55998485E-03
 -1.11899663E-03  6.35644274E-04 -2.70902525E-04  9.56537479E-03  6.33002284E-03
 -4.05263530E-03  1.43281446E-03  1.91422568E-02 -1.23001666E-02 -6.43452209E-03
 -2.58715715E-03  3.65405082E-04 -3.33693574E-04 -1.41259090E-04 -9.02902191E-06
 -4.45703419E-05  1.12842703E-03  4.44047606E-04  1.31299755E-03  1.76620520E-04
 -1.64892040E-02 -1.88318317E-02  8.39232295E-04  1.23342043E-03  8.06270623E-04
 -2.16205768E-04  3.40228084E-05  6.02692794E-06  3.23748687E-05  4.19027381E-04
 -2.79754216E-04 -2.04100813E-04 -7.05268413E-05 -2.26991831E-02 -3.08206001E-03
  3.18875691E-03  2.30446440E-03 -7.09493311E-04  4.08727519E-03 -6.09897266E-04
  4.03421790E-03 -2.66536834E-08 -1.18224832E-04 -2.09722409E-05  1.49803974E-04
 -8.16658970E-06  3.75820389E-05 -1.62814057E-04 -5.60263236E-04 -2.31936349E-05
  1.47008289E-03 -3.33923138E-04  2.37618491E-04 -2.94083296E-05 -7.46991316E-05
  9.24329313E-04 -1.50165768E-05  2.61376480E-04 -5.30136263E-05 -1.07079297E-04
 -9.84738030E-03  1.93195338E-02 -1.12188991E-02  1.16561174E-02 -2.85423419E-03
 -7.88243517E-03  2.18063182E-02  3.16939462E-02  4.30497688E-03 -4.96990323E-02
  1.52636766E-02 -2.49431189E-03  1.59899021E-03 -5.92762093E-02  1.15210440E-01
  4.01269503E-03  9.65267838E-02  2.44898645E-05  4.29316908E-02 -1.46475827E-02
 -6.39825252E-02 -3.23663295E-03  1.34167533E-01 -1.66602577E-02 -6.19947019E-03
 -9.88653688E-04 -8.75184553E-03  1.72551241E-02  1.08685558E-02  9.57200959E-03
  1.40769667E-03 -1.18922107E-02 -2.86781241E-02  1.71177201E-02  2.85471433E-03
 -3.44752810E-02 -2.22936079E-02 -5.48461497E-03  6.93942100E-03 -2.70987698E-03
  2.63673856E-03  2.38312959E-03  4.98599697E-05 -5.48753677E-04 -1.52181824E-02
  1.63132530E-03  8.40323101E-03  5.36101631E-03 -4.00925141E-02 -9.00424879E-03
  4.26412894E-03 -3.55990186E-05  7.64702374E-04 -1.39718639E-02  3.66236920E-03
  1.85802595E-02 -2.25657053E-01  4.78176113E-01 -4.30229919E-03 -9.81112716E-02
  2.30035029E-03  5.46270608E-01 -3.24277247E-03 -7.90567291E-02  2.39054916E-03
 -5.38499100E-03  2.18885379E-03  1.00532042E-02  4.38066782E-06  3.15508542E-03
  7.10162575E-03  6.92531534E-04  9.71204758E-05  1.07746658E-03  6.34151315E-03
 -8.91929764E-02  1.71400909E-01 -7.47146421E-02  2.64924393E-02 -1.63688579E-02
  1.45702249E-01 -1.27048089E-02  6.36612469E-03 -5.75533860E-03  5.84227426E-02
 -1.19169631E-02  9.12522739E-03  6.30412127E-04 -1.25014778E-01  2.53202806E-01
 -1.78249043E-02 -8.60543958E-02  1.09519767E-02  1.65964786E-01 -3.47321066E-02
  9.22371712E-03  3.65881125E-04 -3.10373757E-02 -1.94598041E-02  5.82767767E-03
 -6.03054985E-03 -1.39128540E-01  2.72256434E-01  1.44104476E-02  3.92910500E-02
  2.96805362E-02  1.71718169E-01  1.57074879E-02 -2.22989960E-02 -5.17120572E-03
 -1.08683411E-01  6.49346359E-03 -2.48447115E-02 -1.40594169E-02 -9.14918400E-02
  1.76779732E-01  7.06205009E-02 -3.25897654E-02 -2.50949732E-02  1.42615709E-01
  9.62767576E-03 -2.63021211E-03 -4.45603292E-03  8.23646607E-02  1.90767739E-02
 -4.69394671E-03 -3.14545577E-03  3.71866628E-02  1.25251006E-03  4.61438934E-02
  7.67690531E-03  4.88930653E-02 -1.09392489E-01 -9.29399683E-03 -6.10868244E-02
  2.51905913E-03 -1.42292639E-01 -1.93614694E-03 -2.55940142E-02  1.01565275E-03
 -2.16931188E-02  7.07037742E-04  7.51689966E-03  3.18248556E-05  6.93420182E-02
  2.59171386E-04  4.29231010E-02  3.16733957E-03  4.09722158E-02  2.56004952E-03
 -1.35925653E-01  2.62153988E-01 -6.78502218E-02  4.29275264E-02 -1.89683825E-02
  1.95265956E-01 -7.71130169E-04 -4.48595362E-03  4.33127646E-04 -7.23516294E-02
  1.45045023E-02 -7.69075470E-03  3.60626584E-03 -8.22652171E-02  1.70988591E-01
  1.63448512E-01 -6.27056748E-02  2.95473497E-02  1.11457985E-01  3.73398150E-02
 -9.55232055E-03  4.26068523E-03 -4.60309644E-02  4.70282957E-02 -1.86799848E-03
  9.78205341E-03  8.73035990E-02 -1.72543525E-01  1.15352523E-01 -3.98583015E-02
 -2.86058393E-02 -1.17018852E-01  2.50276991E-02  6.77618813E-03  1.37883079E-03
  3.67139457E-02  6.28104518E-02  8.17625946E-03 -2.25456171E-03  1.20472739E-01
 -2.33015643E-01 -5.64279697E-02  3.43831917E-02  2.77709048E-02 -1.83468525E-01
 -6.62583987E-03 -7.12416980E-03 -2.59744036E-03  8.14863060E-02  1.13037268E-02
 -1.30863470E-02 -1.06344677E-02  7.64110469E-02  1.61793331E-02  7.52692747E-02
  1.21773440E-02  2.39412172E-02 -5.53072840E-02  3.89466160E-02 -5.06674391E-02
  5.49281545E-03 -6.60098821E-02  1.93580523E-02 -2.75598767E-02  2.96002108E-03
 -1.44132213E-02  4.22227892E-03  5.29935730E-03 -5.21199299E-04 -4.36842402E-02
 -4.17381320E-03 -6.49561966E-02 -5.07339028E-03 -6.88145136E-02 -1.82513230E-02
 -9.80663190E-02  1.92715994E-01  6.25252693E-02  3.25319656E-03  1.29707796E-02
  1.88964160E-01  2.15253154E-02 -1.01444523E-03  3.93656930E-03 -3.06785148E-02
  1.00981945E-02 -1.06818237E-02 -5.52897511E-04  6.87083236E-02 -1.47736636E-01
  2.12212282E-01 -1.50626282E-03  4.68395260E-02 -1.46352758E-01  5.07241432E-02
  6.93482753E-03  1.27164480E-02 -2.66733718E-03  1.94568713E-02  1.22046210E-02
  7.27449439E-03  6.70724960E-02 -1.37890442E-01 -2.03513591E-01  1.42538394E-02
  3.60512598E-02 -1.24462042E-01 -3.53644421E-02  6.07656996E-03  1.10922596E-02
  1.30725253E-01 -1.09052912E-02  1.21585029E-02  1.07227093E-02 -1.20147819E-01
  2.40028709E-01 -7.17691627E-02  7.78583546E-03  1.32013234E-02  2.32060202E-01
 -3.14742516E-02 -2.15694723E-03  3.71951382E-03 -8.81208039E-02 -2.49238103E-02
  9.37957489E-03  7.38077699E-03  1.05089458E-01  3.64767664E-02  8.02330164E-02
  2.87945194E-02 -2.20775142E-02  5.19233109E-02  6.86672803E-02  9.87009958E-02
  1.75418877E-02  6.26516453E-02  3.85553835E-02  5.59309743E-02  9.98297108E-03
  2.40089849E-02  3.21283506E-05 -8.41789830E-03  1.01070094E-03 -6.22600777E-02
 -2.18883431E-02  1.02745993E-01  3.72056372E-02  1.23808597E-01  4.03159853E-02
 -4.57563961E-02  8.73314374E-02  5.75991727E-02 -1.27508269E-01  1.29820175E-02
  1.12077227E-01 -1.89189327E-03 -5.61043561E-02  1.52398223E-05  6.44587060E-02
 -1.21513000E-02 -6.79902971E-03 -2.95867467E-03  7.48429514E-02 -1.65475236E-01
 -3.85462968E-02 -1.83331867E-01 -2.02842642E-02 -1.80946414E-01  6.90642905E-03
 -2.38366083E-02 -3.99470753E-03 -1.61970368E-01  7.63507171E-03  4.57339118E-02
  1.69331450E-03 -7.37185140E-02  1.47102152E-01 -2.15246817E-02 -1.53960413E-01
 -5.65607298E-02  1.68430806E-01  2.60930113E-02 -6.79768247E-02 -2.41459228E-02
 -1.53577816E-02  6.17400944E-02 -1.96096144E-02 -1.09740533E-02  4.90379560E-02
 -9.78048838E-02  4.93036388E-02 -1.00502899E-01 -5.22451229E-02 -8.83679126E-02
  1.86244069E-02 -3.88143611E-02 -2.31769972E-02  1.16658001E-01  2.27815058E-02
 -1.75538150E-02 -1.22192033E-02  4.10601082E-02  2.80971059E-02  1.05963716E-01
  4.38062321E-02 -5.41187557E-02  1.26777862E-01  1.43330578E-02  3.45515797E-01
 -1.87375055E-02  1.59620234E-01  8.15063226E-03  1.98817126E-01 -1.14812078E-02
  5.77359740E-02 -7.32377769E-04 -2.85671676E-03 -1.04922794E-03  1.48336482E-01
  6.32939459E-02 -9.61739366E-02 -4.10934594E-02 -4.52590065E-02 -2.23130055E-02