B.pdb                                                                   
Scan      RB3LYP                                                      6-31+G              
Number of atoms                            I               10
Info1-9                                    I   N=           9
          21          21           0           0           0         110
           8          18        -502
Charge                                     I                0
Multiplicity                               I                1
Number of electrons                        I               38
Number of alpha electrons                  I               19
Number of beta electrons                   I               19
Number of basis functions                  I               75
Number of independent functions            I               75
Number of point charges in /Mol/           I                0
Number of translation vectors              I                0
Atomic numbers                             I   N=          10
           6           6           6           6           1           1
           9           1           1           1
Nuclear charges                            R   N=          10
  6.00000000E+00  6.00000000E+00  6.00000000E+00  6.00000000E+00  1.00000000E+00
  1.00000000E+00  9.00000000E+00  1.00000000E+00  1.00000000E+00  1.00000000E+00
Current cartesian coordinates              R   N=          30
 -3.22682821E+00 -1.28887453E+00 -1.80048604E-01 -9.83817780E-01 -1.59711457E-01
  1.03489389E-01  1.52088419E+00 -1.29317886E+00  2.31965330E-01  3.69968429E+00
 -5.79668431E-02 -1.99134045E-01 -4.95273273E+00 -2.03301945E-01 -3.47564583E-01
 -3.35558479E+00 -3.33200049E+00 -2.30130193E-01 -9.46252408E-01  2.52672603E+00
  1.10309980E-01  1.52554038E+00 -3.31917463E+00  5.80958008E-01  3.74277388E+00
  1.95554691E+00 -5.82128765E-01  5.49673992E+00 -1.04321400E+00 -1.51556704E-01
Force Field                                I                0
Int Atom Types                             I   N=          10
           0           0           0           0           0           0
           0           0           0           0
MM charges                                 R   N=          10
  0.00000000E+00  0.00000000E+00  0.00000000E+00  0.00000000E+00  0.00000000E+00
  0.00000000E+00  0.00000000E+00  0.00000000E+00  0.00000000E+00  0.00000000E+00
Integer atomic weights                     I   N=          10
          12          12          12          12           1           1
          19           1           1           1
Real atomic weights                        R   N=          10
  1.20000000E+01  1.20000000E+01  1.20000000E+01  1.20000000E+01  1.00782504E+00
  1.00782504E+00  1.89984032E+01  1.00782504E+00  1.00782504E+00  1.00782504E+00
Atom fragment info                         I   N=          10
           0           0           0           0           0           0
           0           0           0           0
Atom residue num                           I   N=          10
           0           0           0           0           0           0
           0           0           0           0
Nuclear spins                              I   N=          10
           0           0           0           0           1           1
           1           1           1           1
Nuclear ZEff                               R   N=          10
 -3.60000000E+00 -3.60000000E+00 -3.60000000E+00 -3.60000000E+00 -1.00000000E+00
 -1.00000000E+00 -6.75000000E+00 -1.00000000E+00 -1.00000000E+00 -1.00000000E+00
Nuclear ZNuc                               R   N=          10
  6.00000000E+00  6.00000000E+00  6.00000000E+00  6.00000000E+00  1.00000000E+00
  1.00000000E+00  9.00000000E+00  1.00000000E+00  1.00000000E+00  1.00000000E+00
Nuclear QMom                               R   N=          10
  0.00000000E+00  0.00000000E+00  0.00000000E+00  0.00000000E+00  0.00000000E+00
  0.00000000E+00  0.00000000E+00  0.00000000E+00  0.00000000E+00  0.00000000E+00
Nuclear GFac                               R   N=          10
  0.00000000E+00  0.00000000E+00  0.00000000E+00  0.00000000E+00  2.79284600E+00
  2.79284600E+00  2.62886700E+00  2.79284600E+00  2.79284600E+00  2.79284600E+00
MicOpt                                     I   N=          10
          -1          -1          -1          -1          -1          -1
          -1          -1          -1          -1
Number of contracted shells                I               30
Number of primitive shells                 I               75
Pure/Cartesian d shells                    I                1
Pure/Cartesian f shells                    I                0
Highest angular momentum                   I                1
Largest degree of contraction              I                6
Shell types                                I   N=          30
           0          -1          -1          -1           0          -1
          -1          -1           0          -1          -1          -1
           0          -1          -1          -1           0           0
           0           0           0          -1          -1          -1
           0           0           0           0           0           0
Number of primitives per shell             I   N=          30
           6           3           1           1           6           3
           1           1           6           3           1           1
           6           3           1           1           3           1
           3           1           6           3           1           1
           3           1           3           1           3           1
Shell to atom map                          I   N=          30
           1           1           1           1           2           2
           2           2           3           3           3           3
           4           4           4           4           5           5
           6           6           7           7           7           7
           8           8           9           9          10          10
Primitive exponents                        R   N=          75
  3.04752488E+03  4.57369518E+02  1.03948685E+02  2.92101553E+01  9.28666296E+00
  3.16392696E+00  7.86827235E+00  1.88128854E+00  5.44249258E-01  1.68714478E-01
  4.38000000E-02  3.04752488E+03  4.57369518E+02  1.03948685E+02  2.92101553E+01
  9.28666296E+00  3.16392696E+00  7.86827235E+00  1.88128854E+00  5.44249258E-01
  1.68714478E-01  4.38000000E-02  3.04752488E+03  4.57369518E+02  1.03948685E+02
  2.92101553E+01  9.28666296E+00  3.16392696E+00  7.86827235E+00  1.88128854E+00
  5.44249258E-01  1.68714478E-01  4.38000000E-02  3.04752488E+03  4.57369518E+02
  1.03948685E+02  2.92101553E+01  9.28666296E+00  3.16392696E+00  7.86827235E+00
  1.88128854E+00  5.44249258E-01  1.68714478E-01  4.38000000E-02  1.87311370E+01
  2.82539436E+00  6.40121692E-01  1.61277759E-01  1.87311370E+01  2.82539436E+00
  6.40121692E-01  1.61277759E-01  7.00171309E+03  1.05136609E+03  2.39285690E+02
  6.73974453E+01  2.15199573E+01  7.40310130E+00  2.08479528E+01  4.80830834E+00
  1.34406986E+00  3.58151393E-01  1.07600000E-01  1.87311370E+01  2.82539436E+00
  6.40121692E-01  1.61277759E-01  1.87311370E+01  2.82539436E+00  6.40121692E-01
  1.61277759E-01  1.87311370E+01  2.82539436E+00  6.40121692E-01  1.61277759E-01
Contraction coefficients                   R   N=          75
  1.83473713E-03  1.40373228E-02  6.88426223E-02  2.32184443E-01  4.67941348E-01
  3.62311985E-01 -1.19332420E-01 -1.60854152E-01  1.14345644E+00  1.00000000E+00
  1.00000000E+00  1.83473713E-03  1.40373228E-02  6.88426223E-02  2.32184443E-01
  4.67941348E-01  3.62311985E-01 -1.19332420E-01 -1.60854152E-01  1.14345644E+00
  1.00000000E+00  1.00000000E+00  1.83473713E-03  1.40373228E-02  6.88426223E-02
  2.32184443E-01  4.67941348E-01  3.62311985E-01 -1.19332420E-01 -1.60854152E-01
  1.14345644E+00  1.00000000E+00  1.00000000E+00  1.83473713E-03  1.40373228E-02
  6.88426223E-02  2.32184443E-01  4.67941348E-01  3.62311985E-01 -1.19332420E-01
 -1.60854152E-01  1.14345644E+00  1.00000000E+00  1.00000000E+00  3.34946043E-02
  2.34726953E-01  8.13757326E-01  1.00000000E+00  3.34946043E-02  2.34726953E-01
  8.13757326E-01  1.00000000E+00  1.81961690E-03  1.39160796E-02  6.84053245E-02
  2.33185760E-01  4.71267439E-01  3.56618546E-01 -1.08506975E-01 -1.46451658E-01
  1.12868858E+00  1.00000000E+00  1.00000000E+00  3.34946043E-02  2.34726953E-01
  8.13757326E-01  1.00000000E+00  3.34946043E-02  2.34726953E-01  8.13757326E-01
  1.00000000E+00  3.34946043E-02  2.34726953E-01  8.13757326E-01  1.00000000E+00
P(S=P) Contraction coefficients            R   N=          75
  0.00000000E+00  0.00000000E+00  0.00000000E+00  0.00000000E+00  0.00000000E+00
  0.00000000E+00  6.89990666E-02  3.16423961E-01  7.44308291E-01  1.00000000E+00
  1.00000000E+00  0.00000000E+00  0.00000000E+00  0.00000000E+00  0.00000000E+00
  0.00000000E+00  0.00000000E+00  6.89990666E-02  3.16423961E-01  7.44308291E-01
  1.00000000E+00  1.00000000E+00  0.00000000E+00  0.00000000E+00  0.00000000E+00
  0.00000000E+00  0.00000000E+00  0.00000000E+00  6.89990666E-02  3.16423961E-01
  7.44308291E-01  1.00000000E+00  1.00000000E+00  0.00000000E+00  0.00000000E+00
  0.00000000E+00  0.00000000E+00  0.00000000E+00  0.00000000E+00  6.89990666E-02
  3.16423961E-01  7.44308291E-01  1.00000000E+00  1.00000000E+00  0.00000000E+00
  0.00000000E+00  0.00000000E+00  0.00000000E+00  0.00000000E+00  0.00000000E+00
  0.00000000E+00  0.00000000E+00  0.00000000E+00  0.00000000E+00  0.00000000E+00
  0.00000000E+00  0.00000000E+00  0.00000000E+00  7.16287242E-02  3.45912103E-01
  7.22469956E-01  1.00000000E+00  1.00000000E+00  0.00000000E+00  0.00000000E+00
  0.00000000E+00  0.00000000E+00  0.00000000E+00  0.00000000E+00  0.00000000E+00
  0.00000000E+00  0.00000000E+00  0.00000000E+00  0.00000000E+00  0.00000000E+00
Coordinates of each shell                  R   N=          90
 -3.22682821E+00 -1.28887453E+00 -1.80048604E-01 -3.22682821E+00 -1.28887453E+00
 -1.80048604E-01 -3.22682821E+00 -1.28887453E+00 -1.80048604E-01 -3.22682821E+00
 -1.28887453E+00 -1.80048604E-01 -9.83817780E-01 -1.59711457E-01  1.03489389E-01
 -9.83817780E-01 -1.59711457E-01  1.03489389E-01 -9.83817780E-01 -1.59711457E-01
  1.03489389E-01 -9.83817780E-01 -1.59711457E-01  1.03489389E-01  1.52088419E+00
 -1.29317886E+00  2.31965330E-01  1.52088419E+00 -1.29317886E+00  2.31965330E-01
  1.52088419E+00 -1.29317886E+00  2.31965330E-01  1.52088419E+00 -1.29317886E+00
  2.31965330E-01  3.69968429E+00 -5.79668431E-02 -1.99134045E-01  3.69968429E+00
 -5.79668431E-02 -1.99134045E-01  3.69968429E+00 -5.79668431E-02 -1.99134045E-01
  3.69968429E+00 -5.79668431E-02 -1.99134045E-01 -4.95273273E+00 -2.03301945E-01
 -3.47564583E-01 -4.95273273E+00 -2.03301945E-01 -3.47564583E-01 -3.35558479E+00
 -3.33200049E+00 -2.30130193E-01 -3.35558479E+00 -3.33200049E+00 -2.30130193E-01
 -9.46252408E-01  2.52672603E+00  1.10309980E-01 -9.46252408E-01  2.52672603E+00
  1.10309980E-01 -9.46252408E-01  2.52672603E+00  1.10309980E-01 -9.46252408E-01
  2.52672603E+00  1.10309980E-01  1.52554038E+00 -3.31917463E+00  5.80958008E-01
  1.52554038E+00 -3.31917463E+00  5.80958008E-01  3.74277388E+00  1.95554691E+00
 -5.82128765E-01  3.74277388E+00  1.95554691E+00 -5.82128765E-01  5.49673992E+00
 -1.04321400E+00 -1.51556704E-01  5.49673992E+00 -1.04321400E+00 -1.51556704E-01
Constraint Structure                       R   N=          30
 -3.25755874E+00 -1.25888609E+00  8.34029688E-05 -9.83400735E-01 -1.54979939E-01
 -8.55427037E-05  1.50321627E+00 -1.32538549E+00 -1.00288475E-04  3.71108267E+00
 -6.60249133E-02  1.21545699E-04 -4.97918299E+00 -1.54227917E-01  2.08768231E-04
 -3.41303040E+00 -3.30074675E+00  1.77809419E-04 -9.11962391E-01  2.52852525E+00
 -4.85790809E-05  1.47624594E+00 -3.38087089E+00 -3.27320677E-04  3.78641028E+00
  1.98245934E+00  2.29571347E-04  5.49718190E+00 -1.07168242E+00  3.36784705E-05
Num ILSW                                   I              100
ILSW                                       I   N=         100
           0           1           0           0           2           0
           0           0           0           0         402          -1
           0           0           0           0           2           0
           0           0           0           0           1           0
           1           0           0           0           0           0
           0           0      100000           0          -1           0
           0           0           0           0           0           0
           0           0           0           1           0           0
           0           0           1           0           0           0
           0           0           4          41           0           0
           0           0           5           0           0           0
           0           0           0          10           0           0
           0           0           0           0           0           0
           0           0           0           0           0           0
           0           0           0           0           0           0
           0           0           0           0           0           0
           0           0           0           0
Num RLSW                                   I               41
RLSW                                       R   N=          41
  8.00000000E-01  7.20000000E-01  1.00000000E+00  8.10000000E-01  2.00000000E-01
  0.00000000E+00  0.00000000E+00  1.00000000E+00  0.00000000E+00  0.00000000E+00
  0.00000000E+00  0.00000000E+00  1.00000000E+00  0.00000000E+00  0.00000000E+00
  0.00000000E+00  0.00000000E+00  1.00000000E+00  0.00000000E+00  0.00000000E+00
  0.00000000E+00  0.00000000E+00  1.00000000E+00  0.00000000E+00  0.00000000E+00
  0.00000000E+00  0.00000000E+00  1.00000000E+00  0.00000000E+00  0.00000000E+00
  0.00000000E+00  0.00000000E+00  1.00000000E+00  0.00000000E+00  0.00000000E+00
  0.00000000E+00  0.00000000E+00  0.00000000E+00  1.00000000E+00  1.00000000E+00
  0.00000000E+00
MxBond                                     I                3
NBond                                      I   N=          10
           3           3           3           3           1           1
           1           1           1           1
IBond                                      I   N=          30
           2           5           6           1           3           7
           2           4           8           3           9          10
           1           0           0           1           0           0
           2           0           0           3           0           0
           4           0           0           4           0           0
RBond                                      R   N=          30
  2.00000000E+00  1.00000000E+00  1.00000000E+00  2.00000000E+00  1.00000000E+00
  1.00000000E+00  1.00000000E+00  2.00000000E+00  1.00000000E+00  2.00000000E+00
  1.00000000E+00  1.00000000E+00  1.00000000E+00  0.00000000E+00  0.00000000E+00
  1.00000000E+00  0.00000000E+00  0.00000000E+00  1.00000000E+00  0.00000000E+00
  0.00000000E+00  1.00000000E+00  0.00000000E+00  0.00000000E+00  1.00000000E+00
  0.00000000E+00  0.00000000E+00  1.00000000E+00  0.00000000E+00  0.00000000E+00
Virial Ratio                               R      2.005908517063727E+00
SCF Energy                                 R     -2.551905176056596E+02
Total Energy                               R     -2.551905176056596E+02
RMS Force                                  R      1.369971587898112E-03
RMS Density                                R      4.591673047449899E-09
External E-field                           R   N=          35
  0.00000000E+00  0.00000000E+00  0.00000000E+00  0.00000000E+00  0.00000000E+00
  0.00000000E+00  0.00000000E+00  0.00000000E+00  0.00000000E+00  0.00000000E+00
  0.00000000E+00  0.00000000E+00  0.00000000E+00  0.00000000E+00  0.00000000E+00
  0.00000000E+00  0.00000000E+00  0.00000000E+00  0.00000000E+00  0.00000000E+00
  0.00000000E+00  0.00000000E+00  0.00000000E+00  0.00000000E+00  0.00000000E+00
  0.00000000E+00  0.00000000E+00  0.00000000E+00  0.00000000E+00  0.00000000E+00
  0.00000000E+00  0.00000000E+00  0.00000000E+00  0.00000000E+00  0.00000000E+00
IOpCl                                      I                0
IROHF                                      I                0
Alpha Orbital Energies                     R   N=          75
 -2.47063594E+01 -1.02927001E+01 -1.02199428E+01 -1.02054825E+01 -1.02041934E+01
 -1.20771695E+00 -8.29304454E-01 -7.67385098E-01 -6.41102437E-01 -5.74837264E-01
 -5.14548451E-01 -5.01169777E-01 -4.57846542E-01 -4.46562074E-01 -4.23551875E-01
 -3.98316479E-01 -3.78023720E-01 -3.28686817E-01 -2.55259519E-01 -5.55694824E-02
  1.57396964E-03  2.05681665E-02  3.35348378E-02  3.73856199E-02  5.02433651E-02
  5.88649589E-02  6.64382509E-02  8.39688985E-02  8.58170166E-02  9.64834453E-02
  1.03222652E-01  1.22067074E-01  1.32401595E-01  1.37981732E-01  1.54956217E-01
  1.60192025E-01  1.75692569E-01  1.97689720E-01  2.18199095E-01  2.30061483E-01
  2.35365827E-01  2.50669306E-01  3.06456096E-01  3.24298432E-01  3.36271529E-01
  3.53155016E-01  3.74882749E-01  4.10867220E-01  4.15007790E-01  4.46633760E-01
  6.13005159E-01  6.55044279E-01  6.82268814E-01  6.98397890E-01  7.31883703E-01
  7.39852290E-01  7.52213187E-01  7.91416144E-01  8.29915037E-01  9.03995344E-01
  9.32869244E-01  9.46020590E-01  1.01155038E+00  1.04276716E+00  1.05531839E+00
  1.10769146E+00  1.16417662E+00  1.20104768E+00  1.25108017E+00  1.33152008E+00
  1.37820574E+00  1.56769212E+00  1.72827719E+00  1.76449150E+00  2.28871391E+00
Alpha MO coefficients                      R   N=        5625
  3.77777339E-06 -1.06017340E-04 -3.32528272E-05  4.43727653E-05 -9.00531062E-06
  2.18739939E-03  2.07093454E-03 -2.88369092E-03  3.07474905E-04  5.06536977E-03
  1.53251722E-03  6.50223453E-04 -9.02277480E-05 -1.10695605E-05  5.54747346E-04
 -1.55708654E-05  4.30430760E-04  2.60842053E-05 -1.25390456E-03 -1.22678584E-05
  5.90921621E-03 -1.86319801E-04 -1.57164554E-02 -2.50247241E-03 -1.27848038E-03
  2.18442789E-04  1.54839293E-05 -9.39353363E-07  1.43154301E-04  5.17712273E-05
 -2.12623208E-05  6.66286539E-04 -3.08607757E-03 -2.82554518E-03  3.68151058E-04
  8.90246154E-03 -7.48404201E-05  1.52754773E-03  2.64794243E-04  6.93628504E-06
  1.15794670E-04 -1.47596090E-04 -3.53955162E-05  1.90130492E-05  2.78820393E-03
 -5.45082779E-04 -5.71024002E-04  2.62489769E-04 -7.77208071E-04 -2.74498194E-04
  5.89454719E-04 -4.72179391E-04  3.29496167E-04  1.07266344E-03 -3.13240816E-04
 -1.90313861E-03  9.94969293E-01  2.81467260E-02  9.81659380E-06 -1.31309520E-03
 -1.67488720E-05 -1.62244615E-02 -4.83610820E-05  2.45851921E-03  4.37432223E-05
  7.87459227E-03  2.61233635E-04 -9.24684197E-04 -3.89073740E-05 -2.98587236E-04
 -1.52069795E-03  2.98394872E-05 -4.99616400E-04 -7.73929738E-05 -3.98654474E-04
  4.42703278E-03 -1.31276892E-03 -8.91159381E-04 -3.28955428E-04 -1.21427737E-04
  9.26227385E-03  4.57893717E-03  1.22353360E-04  4.81447154E-04 -2.62485403E-02
 -6.44565650E-03 -2.82065484E-03 -5.37521092E-04  9.95408933E-01  3.76831962E-02
 -1.03930753E-04  1.23700166E-03 -8.14102728E-05 -3.91743183E-02 -7.83469315E-04
  1.06777259E-03  3.40616956E-04  4.96347266E-02 -2.48518655E-04 -7.12623591E-03
 -6.55567634E-04  1.91629738E-03 -1.10220509E-03  6.58131895E-04 -2.87682131E-04
  1.40223514E-05  8.61690094E-03 -4.98172017E-03  1.70424824E-03 -2.57995890E-04
 -1.30475060E-02  8.48945666E-03 -1.57700769E-03 -4.13980359E-04 -4.36760622E-05
 -2.05960080E-04  3.12464857E-05  1.15082471E-04  2.42342982E-05  5.46981306E-04
  7.86663801E-04 -1.06661169E-03  5.61928412E-05 -9.52422142E-03  1.96357600E-03
  1.92524941E-03 -1.12518797E-04 -4.63739471E-05  5.88058364E-04 -3.64819636E-04
 -1.07216692E-03  5.12643557E-05  8.39419561E-04 -2.92668524E-06 -8.25026207E-05
  2.62657011E-06 -1.18147804E-03  2.48973194E-05  9.17098227E-04 -1.51311851E-05
  8.19827788E-03  1.25475229E-04 -5.39477602E-03 -8.31257916E-05 -1.96813116E-04
 -2.38282533E-04  5.16512568E-05  1.66255413E-04 -1.43999325E-04 -1.28900460E-04
 -4.18175091E-04 -3.35021647E-04 -8.05585408E-05 -4.01163808E-05  2.07300718E-05
  2.86047407E-03  5.96183893E-04  1.75921834E-03  1.47474393E-04  2.82339194E-03
  6.07586711E-04 -6.36716612E-04  8.22137908E-04 -1.94399236E-03 -1.26491293E-03
 -8.64412078E-04  3.34583058E-04 -9.75914582E-05  8.61700094E-03  8.09351509E-03
 -1.45641093E-03  4.46832559E-04 -3.54679666E-02 -7.44220013E-03  2.52336341E-03
 -7.81349016E-04  9.94974672E-01  3.75487617E-02 -8.55552832E-05  4.25943287E-04
 -1.43064765E-04 -3.89012030E-02  1.10516547E-03 -5.81064006E-03  1.26743332E-03
  8.71300032E-02  3.75709057E-03  1.60191677E-02 -3.55498920E-03  2.63236061E-02
 -4.28559733E-04  8.54647643E-04  4.62630009E-04 -1.72581565E-04  9.64676654E-03
 -5.74813110E-03 -7.99782599E-04  6.46631825E-04 -5.27376832E-02  1.18439078E-02
  4.62601887E-03 -1.96082436E-03 -1.42061349E-04 -5.29029757E-05 -3.23868739E-06
  6.94490676E-04  3.73569837E-06 -6.60475974E-05 -4.09568372E-05  1.05833423E-04
 -1.17148415E-05 -3.53288004E-04 -1.09141802E-04 -1.25372540E-04  1.36342828E-05
  9.25229814E-05 -9.06979511E-04  3.93111380E-04 -1.96192722E-05 -7.89652947E-04
  2.86071261E-03 -4.86501274E-04 -3.34599393E-04 -1.32103848E-04  1.52749939E-03
 -4.53491680E-03 -5.79707541E-04  1.78746423E-05  7.16247243E-05 -2.16907890E-05
  2.81939796E-03  1.04948796E-03  2.06405629E-04  1.64124693E-04 -2.06599030E-02
 -2.30450935E-03 -3.42965260E-03 -6.79809353E-04  8.37688545E-05 -1.33289822E-04
 -2.04280995E-04 -7.59568009E-06  2.25794324E-06 -1.27512662E-03  1.68431495E-03
 -3.65026494E-05  2.81263587E-04 -2.96805622E-02 -2.29481886E-02  1.23999469E-03
 -1.10678724E-03 -2.65323281E-02 -2.30515837E-03 -1.06266406E-03 -6.85376620E-04
  2.35620843E-04  9.69925589E-03  5.24043041E-03  2.65805737E-03 -1.07678227E-03
  2.68648888E-02 -1.45067323E-02  6.74765103E-03  1.19390238E-04  9.94873693E-01
  3.65468375E-02 -4.13092964E-04 -2.77837542E-04  1.29993358E-04 -3.21977459E-02
  3.51813696E-03  2.10670385E-03 -7.65452159E-04  2.40442575E-02 -7.20397124E-03
 -3.99934436E-03  1.24009362E-03 -2.42210833E-05  4.73956769E-05 -1.15651285E-04
 -1.26693918E-04  8.86838361E-06  1.24160977E-04  1.89319941E-05  1.90314971E-05
  9.59454347E-06 -5.86120858E-04 -3.33100493E-04 -5.93124925E-06 -3.42302846E-05
  2.06128695E-03  3.52488517E-04 -5.52580656E-04 -5.12487968E-05 -1.36020907E-04
  1.28749458E-04 -6.82859936E-04  3.79428926E-03 -7.99412575E-04  4.41866130E-03
  9.95197954E-01  3.67254946E-02  5.58989549E-04  2.00266159E-04  1.11679984E-04
 -3.38646054E-02 -4.39925471E-03 -1.83041348E-03 -6.14014722E-04  4.16958070E-03
  3.40581446E-03  2.44536822E-03  1.39672086E-04 -4.67164759E-03 -1.69410567E-03
  1.25220848E-03  5.92300215E-04  1.68101179E-04  1.05410467E-02 -6.43714058E-03
 -3.62602904E-03 -8.70957381E-04  3.96821941E-02  6.70394691E-03 -1.10371907E-02
  9.85344921E-04  2.41620946E-04 -2.35695776E-04  1.38495144E-04  1.75951320E-05
  4.83056643E-06  1.01393273E-04 -4.45901153E-04  5.90097433E-04  1.74930101E-04
 -2.80662803E-02  2.05495507E-02 -9.48332411E-04 -3.09258778E-04  4.45652061E-03
 -2.31416199E-04  3.90734076E-05 -3.76865253E-05 -1.94878871E-05  1.26395640E-03
 -7.32053224E-04  1.63658259E-04  2.24902810E-05 -1.51646677E-02  7.65218152E-04
  3.68481078E-03 -8.39136977E-04 -8.10438065E-04  4.42456324E-03 -6.91025482E-04
  4.34433196E-03 -6.52684334E-07 -1.12513627E-04  2.99199912E-05  1.52387320E-04
  8.53237379E-06 -1.58029929E-05  1.19007709E-04 -5.64755041E-04 -1.04268037E-05
  1.29445138E-03  4.48888583E-04  5.54652203E-04  1.43152478E-04 -1.28496225E-04
  8.18052299E-04 -8.08996213E-05 -2.57819874E-04  2.23697405E-06  2.57992531E-04
 -9.50120221E-03  1.92527409E-02  1.15681974E-02  1.07765306E-02  1.49875747E-03
 -1.52487401E-02 -2.31292507E-02  3.24977278E-02 -2.97282424E-03 -7.65839814E-02
 -2.02264776E-02 -3.69434926E-03 -1.83669764E-03 -5.79354481E-02  1.12720192E-01
  9.94763493E-04  9.54217474E-02 -5.97885410E-04  4.71562849E-02  7.66129132E-03
 -7.11571742E-02  1.43218100E-03  1.70992548E-01  9.32607421E-03 -1.51616320E-02
 -3.06122220E-04 -8.74267340E-03  1.70417536E-02 -1.05632797E-02  9.85464359E-03
 -6.19525248E-04 -1.08174056E-02  3.45333253E-02  2.24612399E-02 -2.29040056E-03
 -8.32503790E-02  1.90432564E-02 -1.03951078E-02 -2.24606075E-03 -2.82973683E-03
  2.74634814E-03 -2.33192966E-03  2.81382522E-04  2.58108862E-04 -2.05707943E-02
  5.39406872E-04  1.09672852E-02 -3.23068181E-03 -2.98942842E-03 -1.53122702E-04
  7.68188508E-04  2.17059082E-03  7.11561941E-04 -1.39465240E-02  3.84045152E-03
  1.96488173E-02 -2.26314607E-01  4.79493864E-01 -1.46352956E-04 -9.79685431E-02
 -8.39979915E-04  5.49085124E-01  1.39566922E-04 -8.01258173E-02 -9.88778375E-04
 -2.90918506E-03 -1.72146862E-03  1.05575791E-02  2.16082455E-04  3.46750465E-03
  1.20389887E-02  1.28319250E-03 -6.79700727E-04  1.24770045E-03  6.58260849E-03
 -9.04571423E-02  1.75942407E-01  7.92153832E-02  2.31284844E-02  9.02359424E-03
  1.52028744E-01  1.72858906E-02  4.88877392E-03  3.72548382E-03  3.59515761E-02
  5.58374695E-03  6.68908444E-03 -1.42003079E-03 -1.27404705E-01  2.61951987E-01
  1.30989925E-02 -8.89649669E-02 -7.21461548E-03  1.59437890E-01  3.71522175E-02
  1.39206936E-02 -2.18010189E-04 -1.38945028E-02  1.73075028E-02  5.13230370E-03
  2.80736523E-03 -1.38895485E-01  2.76049801E-01 -1.79193048E-02  4.41435616E-02
 -1.47256084E-02  1.65481868E-01 -2.19864011E-02 -2.70408152E-02  2.63831369E-03
 -1.17040920E-01 -1.78668013E-02 -3.03992451E-02  7.13229864E-03 -8.77651125E-02
  1.71652416E-01 -7.21378191E-02 -3.45180349E-02  1.21429121E-02  1.41784080E-01
 -1.14385290E-02 -5.18984914E-03  3.13853735E-03  9.62783110E-02 -1.99441375E-02
 -6.98461315E-03  2.31241870E-03  3.82295099E-02  2.64763509E-03  4.69360408E-02
  7.13032760E-03  4.88547973E-02 -1.09428579E-01  6.07486628E-03 -6.19003790E-02
 -1.24407261E-03 -1.42537352E-01  5.32419508E-04 -2.53174438E-02 -5.52156717E-04
 -2.29186197E-02  1.19114509E-04  6.50853790E-03 -6.20075893E-05  7.08566875E-02
 -9.96757333E-04  4.09828727E-02  2.79596692E-03  3.93660785E-02  1.51773466E-03
 -1.34807012E-01  2.64045789E-01  7.08092595E-02  3.89148667E-02  1.02311220E-02
  1.90080624E-01  1.31512377E-04 -6.45367697E-03 -3.13622666E-04 -7.56493247E-02
 -1.76941284E-02 -5.75069226E-03 -2.50209913E-03 -7.91217947E-02  1.66188437E-01
 -1.72259286E-01 -5.36664641E-02 -1.59147486E-02  1.05531031E-01 -3.87280421E-02
 -5.33468645E-03 -2.61876109E-03 -1.88894391E-02 -3.77808106E-02 -2.54089552E-03
 -4.30483357E-03  8.93517189E-02 -1.79040759E-01 -1.18280843E-01 -4.35583361E-02
  1.49346135E-02 -1.18755242E-01 -2.66186549E-02  8.23145849E-03 -2.16849516E-05
 -2.75752721E-02 -6.96909229E-02  1.73594528E-05  3.20181087E-03  1.21318822E-01
 -2.37904967E-01  6.15776913E-02  3.83965344E-02 -1.39178740E-02 -1.78736823E-01
  5.39219347E-03 -9.76379095E-03  1.57994975E-03  1.22251793E-01 -2.07005516E-02
 -1.94017202E-02  7.52564112E-03  7.68692887E-02  1.70382587E-02  7.56800430E-02
  1.12662236E-02  2.19084861E-02 -5.07040881E-02 -4.26756230E-02 -4.56955672E-02
 -2.65489803E-03 -5.99965990E-02 -2.12144721E-02 -2.43640740E-02 -1.39726791E-03
 -1.60384300E-02 -6.05285529E-03  5.34146824E-03  4.15336542E-04 -4.46012467E-02
 -2.46974298E-03 -6.60803307E-02 -3.93747625E-03 -6.94729314E-02 -1.89169344E-02
 -9.95451171E-02  1.98635254E-01 -6.46854657E-02  5.76810408E-03 -6.59633832E-03
  1.93721484E-01 -2.11107632E-02  3.77592885E-03 -1.83573203E-03  5.94000602E-02
  8.07810058E-03 -6.52354451E-04  2.69332162E-03  6.88875840E-02 -1.48854291E-01
 -2.16753265E-01  1.32418209E-02 -2.28535211E-02 -1.47195478E-01 -4.33999692E-02
  8.33138333E-03 -5.25230329E-03 -9.03640202E-02  3.59200047E-03  2.32845633E-02
 -3.85227283E-04  6.49868911E-02 -1.35060118E-01  2.11239328E-01  1.32094743E-02
 -1.76811106E-02 -1.20357017E-01  3.35586787E-02  5.98299218E-03 -5.05311212E-03
  1.29775361E-01  1.57143545E-02  1.52703338E-02 -5.07521471E-03 -1.21870500E-01
  2.46695387E-01  6.91732469E-02  5.27061080E-03 -5.73470648E-03  2.31051006E-01
  3.06264433E-02 -5.03938991E-03 -1.45571765E-03 -8.90175481E-02  2.55101688E-02
  9.21132392E-03 -4.59392891E-03  1.06670193E-01  3.37809304E-02  8.29839750E-02
  3.01443943E-02 -2.05864773E-02  4.85947123E-02 -5.99282826E-02  9.61995946E-02
 -8.84764290E-03  5.73068014E-02 -3.32850461E-02  5.35328544E-02 -4.93741210E-03
  2.79981056E-02 -1.97778391E-03 -8.16163106E-03 -1.06336121E-03 -5.99637444E-02
 -2.00498561E-02  1.03175080E-01  3.72278858E-02  1.24136447E-01  3.81283396E-02
 -4.39371476E-02  8.48414674E-02 -6.46713563E-02 -1.27696622E-01 -7.42815092E-03
  1.05798782E-01  1.96816029E-03 -5.47362322E-02  3.90095657E-05  1.25022448E-01
  2.26790656E-02 -9.91560875E-04  4.35659123E-03  7.59238892E-02 -1.68594204E-01
  3.41869452E-02 -1.89777974E-01  1.01024859E-02 -1.86448494E-01 -8.61928892E-03
 -2.24638197E-02  2.14315868E-03 -1.99463745E-01  2.07363172E-02  4.99443502E-02
  6.16099811E-04 -7.30542773E-02  1.48385327E-01  1.05155193E-02 -1.67452665E-01
  2.44240943E-02  1.62031685E-01 -3.56399708E-02 -6.65379434E-02  9.70608317E-03
  5.93474923E-02 -3.80294162E-02 -7.06646318E-03  2.02375921E-03  4.87192538E-02
 -9.83810287E-02 -5.26502588E-02 -1.03747721E-01  2.29015593E-02 -8.21937864E-02
 -2.07697862E-02 -4.34570110E-02  1.13818979E-02  1.91923501E-02 -2.27622825E-03
 -1.07338825E-02  1.38787169E-03  3.90944576E-02  2.84082049E-02  1.05948037E-01
  4.45091014E-02 -5.47012275E-02  1.28029308E-01  3.28631204E-03  3.47055991E-01
  6.93628238E-03  1.60971769E-01  2.00436267E-03  1.95941651E-01  4.27113126E-03
  5.60375918E-02 -2.69148627E-06  4.10365333E-03  3.80241939E-04  1.50596358E-01
  6.67148049E-02 -9.26295161E-02 -3.42330544E-02 -4.52377812E-02 -2.15500912E-02