 Entering Gaussian System, Link 0=/opt/cluster/programs/g09_d.01/g09//g09
 Input=/home/unibas/boittier/RDKit_G2/B.pdb/SCAN_1_2_3_4_S_17_20.0/SCAN_B.pdb.com
 Output=/scratch/boittier/SCAN_B.pdb/SCAN_B.pdb.out
 Initial command:
 /opt/cluster/programs/g09_d.01/g09/l1.exe "/scratch/boittier/SCAN_B.pdb/Gau-109451.inp" -scrdir="/scratch/boittier/SCAN_B.pdb/"
 Entering Link 1 = /opt/cluster/programs/g09_d.01/g09/l1.exe PID=    109452.
  
 Copyright (c) 1988,1990,1992,1993,1995,1998,2003,2009,2013,
            Gaussian, Inc.  All Rights Reserved.
  
 This is part of the Gaussian(R) 09 program.  It is based on
 the Gaussian(R) 03 system (copyright 2003, Gaussian, Inc.),
 the Gaussian(R) 98 system (copyright 1998, Gaussian, Inc.),
 the Gaussian(R) 94 system (copyright 1995, Gaussian, Inc.),
 the Gaussian 92(TM) system (copyright 1992, Gaussian, Inc.),
 the Gaussian 90(TM) system (copyright 1990, Gaussian, Inc.),
 the Gaussian 88(TM) system (copyright 1988, Gaussian, Inc.),
 the Gaussian 86(TM) system (copyright 1986, Carnegie Mellon
 University), and the Gaussian 82(TM) system (copyright 1983,
 Carnegie Mellon University). Gaussian is a federally registered
 trademark of Gaussian, Inc.
  
 This software contains proprietary and confidential information,
 including trade secrets, belonging to Gaussian, Inc.
  
 This software is provided under written license and may be
 used, copied, transmitted, or stored only in accord with that
 written license.
  
 The following legend is applicable only to US Government
 contracts under FAR:
  
                    RESTRICTED RIGHTS LEGEND
  
 Use, reproduction and disclosure by the US Government is
 subject to restrictions as set forth in subparagraphs (a)
 and (c) of the Commercial Computer Software - Restricted
 Rights clause in FAR 52.227-19.
  
 Gaussian, Inc.
 340 Quinnipiac St., Bldg. 40, Wallingford CT 06492
  
  
 ---------------------------------------------------------------
 Warning -- This program may not be used in any manner that
 competes with the business of Gaussian, Inc. or will provide
 assistance to any competitor of Gaussian, Inc.  The licensee
 of this program is prohibited from giving any competitor of
 Gaussian, Inc. access to this program.  By using this program,
 the user acknowledges that Gaussian, Inc. is engaged in the
 business of creating and licensing software in the field of
 computational chemistry and represents and warrants to the
 licensee that it is not a competitor of Gaussian, Inc. and that
 it will not use this program in any manner prohibited above.
 ---------------------------------------------------------------
  

 Cite this work as:
 Gaussian 09, Revision D.01,
 M. J. Frisch, G. W. Trucks, H. B. Schlegel, G. E. Scuseria, 
 M. A. Robb, J. R. Cheeseman, G. Scalmani, V. Barone, B. Mennucci, 
 G. A. Petersson, H. Nakatsuji, M. Caricato, X. Li, H. P. Hratchian, 
 A. F. Izmaylov, J. Bloino, G. Zheng, J. L. Sonnenberg, M. Hada, 
 M. Ehara, K. Toyota, R. Fukuda, J. Hasegawa, M. Ishida, T. Nakajima, 
 Y. Honda, O. Kitao, H. Nakai, T. Vreven, J. A. Montgomery, Jr., 
 J. E. Peralta, F. Ogliaro, M. Bearpark, J. J. Heyd, E. Brothers, 
 K. N. Kudin, V. N. Staroverov, T. Keith, R. Kobayashi, J. Normand, 
 K. Raghavachari, A. Rendell, J. C. Burant, S. S. Iyengar, J. Tomasi, 
 M. Cossi, N. Rega, J. M. Millam, M. Klene, J. E. Knox, J. B. Cross, 
 V. Bakken, C. Adamo, J. Jaramillo, R. Gomperts, R. E. Stratmann, 
 O. Yazyev, A. J. Austin, R. Cammi, C. Pomelli, J. W. Ochterski, 
 R. L. Martin, K. Morokuma, V. G. Zakrzewski, G. A. Voth, 
 P. Salvador, J. J. Dannenberg, S. Dapprich, A. D. Daniels, 
 O. Farkas, J. B. Foresman, J. V. Ortiz, J. Cioslowski, 
 and D. J. Fox, Gaussian, Inc., Wallingford CT, 2013.
 
 ******************************************
 Gaussian 09:  ES64L-G09RevD.01 24-Apr-2013
                11-May-2021 
 ******************************************
 %chk=/home/unibas/boittier/RDKit_G2/B.pdb/SCAN_1_2_3_4_S_17_20.0/B.pdb.chk
 %nproc=8
 Will use up to    8 processors via shared memory.
 %mem=16GB
 ----------------------------
 #p B3LYP/6-31+G Opt=ModRedun
 ----------------------------
 1/14=-1,18=120,19=15,26=3,38=1/1,3;
 2/9=110,12=2,17=6,18=5,40=1/2;
 3/5=1,6=6,7=10,11=2,16=1,25=1,30=1,71=1,74=-5/1,2,3;
 4//1;
 5/5=2,38=5/2;
 6/7=2,8=2,9=2,10=2,28=1/1;
 7//1,2,3,16;
 1/14=-1,18=20,19=15,26=3/3(2);
 2/9=110/2;
 99//99;
 2/9=110/2;
 3/5=1,6=6,7=10,11=2,16=1,25=1,30=1,71=1,74=-5/1,2,3;
 4/5=5,16=3,69=1/1;
 5/5=2,38=5/2;
 7//1,2,3,16;
 1/14=-1,18=20,19=15,26=3/3(-5);
 2/9=110/2;
 6/7=2,8=2,9=2,10=2,19=2,28=1/1;
 99/9=1/99;
 Leave Link    1 at Tue May 11 16:52:53 2021, MaxMem=  2147483648 cpu:         0.2
 (Enter /opt/cluster/programs/g09_d.01/g09/l101.exe)
 -----
 B.pdb
 -----
 Symbolic Z-matrix:
 Charge =  0 Multiplicity = 1
 C                    -4.75105   0.61597   0.03317 
 C                    -3.70464   1.44776   0.08468 
 C                    -2.29419   1.15454  -0.11462 
 C                    -1.29928   2.05696  -0.04423 
 H                    -5.76055   0.96787   0.20287 
 H                    -4.60234  -0.43566  -0.18181 
 F                    -3.96845   2.81388   0.37121 
 H                    -2.07786   0.11149  -0.33502 
 H                    -1.48995   3.10229   0.17392 
 H                    -0.26769   1.76289  -0.20517 
 
 The following ModRedundant input section has been read:
 D       1       2       3       4 S  17 20.000                                
 
 NAtoms=     10 NQM=       10 NQMF=       0 NMMI=      0 NMMIF=      0
                NMic=       0 NMicF=      0.
                    Isotopes and Nuclear Properties:
 (Nuclear quadrupole moments (NQMom) in fm**2, nuclear magnetic moments (NMagM)
  in nuclear magnetons)

  Atom         1           2           3           4           5           6           7           8           9          10
 IAtWgt=          12          12          12          12           1           1          19           1           1           1
 AtmWgt=  12.0000000  12.0000000  12.0000000  12.0000000   1.0078250   1.0078250  18.9984033   1.0078250   1.0078250   1.0078250
 NucSpn=           0           0           0           0           1           1           1           1           1           1
 AtZEff=   0.0000000   0.0000000   0.0000000   0.0000000   0.0000000   0.0000000   0.0000000   0.0000000   0.0000000   0.0000000
 NQMom=    0.0000000   0.0000000   0.0000000   0.0000000   0.0000000   0.0000000   0.0000000   0.0000000   0.0000000   0.0000000
 NMagM=    0.0000000   0.0000000   0.0000000   0.0000000   2.7928460   2.7928460   2.6288670   2.7928460   2.7928460   2.7928460
 AtZNuc=   6.0000000   6.0000000   6.0000000   6.0000000   1.0000000   1.0000000   9.0000000   1.0000000   1.0000000   1.0000000
 Leave Link  101 at Tue May 11 16:52:54 2021, MaxMem=  2147483648 cpu:         4.0
 (Enter /opt/cluster/programs/g09_d.01/g09/l103.exe)

 GradGradGradGradGradGradGradGradGradGradGradGradGradGradGradGradGradGrad
 Berny optimization.
 Initialization pass.
                           ----------------------------
                           !    Initial Parameters    !
                           ! (Angstroms and Degrees)  !
 --------------------------                            --------------------------
 ! Name  Definition              Value          Derivative Info.                !
 --------------------------------------------------------------------------------
 ! R1    R(1,2)                  1.3377         estimate D2E/DX2                !
 ! R2    R(1,5)                  1.0825         estimate D2E/DX2                !
 ! R3    R(1,6)                  1.0836         estimate D2E/DX2                !
 ! R4    R(2,3)                  1.4543         estimate D2E/DX2                !
 ! R5    R(2,7)                  1.4206         estimate D2E/DX2                !
 ! R6    R(3,4)                  1.3451         estimate D2E/DX2                !
 ! R7    R(3,8)                  1.0878         estimate D2E/DX2                !
 ! R8    R(4,9)                  1.0847         estimate D2E/DX2                !
 ! R9    R(4,10)                 1.0847         estimate D2E/DX2                !
 ! A1    A(2,1,5)              121.4217         estimate D2E/DX2                !
 ! A2    A(2,1,6)              120.2468         estimate D2E/DX2                !
 ! A3    A(5,1,6)              118.3315         estimate D2E/DX2                !
 ! A4    A(1,2,3)              128.9019         estimate D2E/DX2                !
 ! A5    A(1,2,7)              117.4175         estimate D2E/DX2                !
 ! A6    A(3,2,7)              113.6806         estimate D2E/DX2                !
 ! A7    A(2,3,4)              125.0942         estimate D2E/DX2                !
 ! A8    A(2,3,8)              114.4538         estimate D2E/DX2                !
 ! A9    A(4,3,8)              120.4521         estimate D2E/DX2                !
 ! A10   A(3,4,9)              121.8063         estimate D2E/DX2                !
 ! A11   A(3,4,10)             120.9181         estimate D2E/DX2                !
 ! A12   A(9,4,10)             117.2756         estimate D2E/DX2                !
 ! D1    D(5,1,2,3)            179.9955         estimate D2E/DX2                !
 ! D2    D(5,1,2,7)              0.0011         estimate D2E/DX2                !
 ! D3    D(6,1,2,3)             -0.0019         estimate D2E/DX2                !
 ! D4    D(6,1,2,7)           -179.9963         estimate D2E/DX2                !
 ! D5    D(1,2,3,4)           -179.989          Scan                            !
 ! D6    D(1,2,3,8)              0.0115         estimate D2E/DX2                !
 ! D7    D(7,2,3,4)              0.0056         estimate D2E/DX2                !
 ! D8    D(7,2,3,8)           -179.9939         estimate D2E/DX2                !
 ! D9    D(2,3,4,9)             -0.0034         estimate D2E/DX2                !
 ! D10   D(2,3,4,10)          -179.998          estimate D2E/DX2                !
 ! D11   D(8,3,4,9)            179.9961         estimate D2E/DX2                !
 ! D12   D(8,3,4,10)             0.0015         estimate D2E/DX2                !
 --------------------------------------------------------------------------------
 Trust Radius=3.00D-01 FncErr=1.00D-07 GrdErr=1.00D-06
 Number of optimizations in scan=  18
 Number of steps in this run=     43 maximum allowed number of steps=    100.
 GradGradGradGradGradGradGradGradGradGradGradGradGradGradGradGradGradGrad

 Leave Link  103 at Tue May 11 16:52:54 2021, MaxMem=  2147483648 cpu:         0.1
 (Enter /opt/cluster/programs/g09_d.01/g09/l202.exe)
                          Input orientation:                          
 ---------------------------------------------------------------------
 Center     Atomic      Atomic             Coordinates (Angstroms)
 Number     Number       Type             X           Y           Z
 ---------------------------------------------------------------------
      1          6           0       -4.751053    0.615975    0.033167
      2          6           0       -3.704644    1.447762    0.084676
      3          6           0       -2.294187    1.154538   -0.114620
      4          6           0       -1.299276    2.056961   -0.044231
      5          1           0       -5.760550    0.967871    0.202865
      6          1           0       -4.602344   -0.435659   -0.181807
      7          9           0       -3.968447    2.813880    0.371209
      8          1           0       -2.077856    0.111487   -0.335018
      9          1           0       -1.489950    3.102294    0.173925
     10          1           0       -0.267693    1.762893   -0.205166
 ---------------------------------------------------------------------
                    Distance matrix (angstroms):
                    1          2          3          4          5
     1  C    0.000000
     2  C    1.337720   0.000000
     3  C    2.519539   1.454334   0.000000
     4  C    3.741282   2.484660   1.345054   0.000000
     5  H    1.082456   2.114477   3.485873   4.598927   0.000000
     6  H    1.083634   2.103368   2.803717   4.140331   1.859922
     7  F    2.357442   1.420553   2.406780   2.805350   2.578318
     8  H    2.745187   2.146675   1.087810   2.115564   3.819024
     9  H    4.103216   2.765919   2.126925   1.084744   4.774371
    10  H    4.633868   3.463516   2.117775   1.084684   5.565071
                    6          7          8          9         10
     6  H    0.000000
     7  F    3.356659   0.000000
     8  H    2.587641   3.372835   0.000000
     9  H    4.725532   2.503008   3.090240   0.000000
    10  H    4.860389   3.890033   2.453710   1.852462   0.000000
 Stoichiometry    C4H5F
 Framework group  C1[X(C4H5F)]
 Deg. of freedom    24
 Full point group                 C1      NOp   1
 Largest Abelian subgroup         C1      NOp   1
 Largest concise Abelian subgroup C1      NOp   1
                         Standard orientation:                         
 ---------------------------------------------------------------------
 Center     Atomic      Atomic             Coordinates (Angstroms)
 Number     Number       Type             X           Y           Z
 ---------------------------------------------------------------------
      1          6           0       -1.723826   -0.666174    0.000044
      2          6           0       -0.520393   -0.082012   -0.000045
      3          6           0        0.795468   -0.701364   -0.000053
      4          6           0        1.963820   -0.034939    0.000064
      5          1           0       -2.634870   -0.081614    0.000110
      6          1           0       -1.806098   -1.746680    0.000094
      7          9           0       -0.482590    1.338038   -0.000026
      8          1           0        0.781196   -1.789080   -0.000173
      9          1           0        2.003682    1.049072    0.000121
     10          1           0        2.908983   -0.567110    0.000018
 ---------------------------------------------------------------------
 Rotational constants (GHZ):      9.5940881      4.1847893      2.9138250
 Leave Link  202 at Tue May 11 16:52:55 2021, MaxMem=  2147483648 cpu:         0.0
 (Enter /opt/cluster/programs/g09_d.01/g09/l301.exe)
 Standard basis: 6-31+G (6D, 7F)
 Ernie: Thresh=  0.10000D-02 Tol=  0.10000D-05 Strict=F.
 There are    75 symmetry adapted cartesian basis functions of A   symmetry.
 There are    75 symmetry adapted basis functions of A   symmetry.
    75 basis functions,   150 primitive gaussians,    75 cartesian basis functions
    19 alpha electrons       19 beta electrons
       nuclear repulsion energy       157.4517334303 Hartrees.
 IExCor=  402 DFT=T Ex+Corr=B3LYP ExCW=0 ScaHFX=  0.200000
 ScaDFX=  0.800000  0.720000  1.000000  0.810000 ScalE2=  1.000000  1.000000
 IRadAn=      0 IRanWt=     -1 IRanGd=            0 ICorTp=0 IEmpDi=  4
 NAtoms=   10 NActive=   10 NUniq=   10 SFac= 1.00D+00 NAtFMM=   60 NAOKFM=F Big=F
 Integral buffers will be    131072 words long.
 Raffenetti 2 integral format.
 Two-electron integral symmetry is turned on.
 Leave Link  301 at Tue May 11 16:52:55 2021, MaxMem=  2147483648 cpu:         0.3
 (Enter /opt/cluster/programs/g09_d.01/g09/l302.exe)
 NPDir=0 NMtPBC=     1 NCelOv=     1 NCel=       1 NClECP=     1 NCelD=      1
         NCelK=      1 NCelE2=     1 NClLst=     1 CellRange=     0.0.
 One-electron integrals computed using PRISM.
 NBasis=    75 RedAO= T EigKep=  2.34D-05  NBF=    75
 NBsUse=    75 1.00D-06 EigRej= -1.00D+00 NBFU=    75
 Precomputing XC quadrature grid using
 IXCGrd= 4 IRadAn=           0 IRanWt=          -1 IRanGd=           0 AccXCQ= 0.00D+00.
 Generated NRdTot=       0 NPtTot=           0 NUsed=           0 NTot=          32
 NSgBfM=    75    75    75    75    75 MxSgAt=    10 MxSgA2=    10.
 Leave Link  302 at Tue May 11 16:52:55 2021, MaxMem=  2147483648 cpu:         0.8
 (Enter /opt/cluster/programs/g09_d.01/g09/l303.exe)
 DipDrv:  MaxL=1.
 Leave Link  303 at Tue May 11 16:52:55 2021, MaxMem=  2147483648 cpu:         0.2
 (Enter /opt/cluster/programs/g09_d.01/g09/l401.exe)
 ExpMin= 4.38D-02 ExpMax= 7.00D+03 ExpMxC= 1.05D+03 IAcc=2 IRadAn=         4 AccDes= 0.00D+00
 Harris functional with IExCor=  402 and IRadAn=       4 diagonalized for initial guess.
 HarFok:  IExCor=  402 AccDes= 0.00D+00 IRadAn=         4 IDoV= 1 UseB2=F ITyADJ=14
 ICtDFT=  3500011 ScaDFX=  1.000000  1.000000  1.000000  1.000000
 FoFCou: FMM=F IPFlag=           0 FMFlag=      100000 FMFlg1=           0
         NFxFlg=           0 DoJE=T BraDBF=F KetDBF=T FulRan=T
         wScrn=  0.000000 ICntrl=     500 IOpCl=  0 I1Cent=   200000004 NGrid=           0
         NMat0=    1 NMatS0=      1 NMatT0=    0 NMatD0=    1 NMtDS0=    0 NMtDT0=    0
 Petite list used in FoFCou.
 Harris En= -255.209444516225    
 JPrj=0 DoOrth=F DoCkMO=F.
 Leave Link  401 at Tue May 11 16:52:55 2021, MaxMem=  2147483648 cpu:         1.2
 (Enter /opt/cluster/programs/g09_d.01/g09/l502.exe)
 Closed shell SCF:
 Using DIIS extrapolation, IDIIS=  1040.
 Integral symmetry usage will be decided dynamically.
 Keep R1 ints in memory in canonical form, NReq=4993487.
 IVT=       36600 IEndB=       36600 NGot=  2147483648 MDV=  2143384374
 LenX=  2143384374 LenY=  2143378308
 Requested convergence on RMS density matrix=1.00D-08 within 128 cycles.
 Requested convergence on MAX density matrix=1.00D-06.
 Requested convergence on             energy=1.00D-06.
 No special actions if energy rises.
 FoFCou: FMM=F IPFlag=           0 FMFlag=           0 FMFlg1=           0
         NFxFlg=           0 DoJE=F BraDBF=F KetDBF=F FulRan=T
         wScrn=  0.000000 ICntrl=     600 IOpCl=  0 I1Cent=           0 NGrid=           0
         NMat0=    1 NMatS0=   2850 NMatT0=    0 NMatD0=    1 NMtDS0=    0 NMtDT0=    0
 Symmetry not used in FoFCou.

 Cycle   1  Pass 1  IDiag  1:
 E= -255.073808690797    
 DIIS: error= 3.21D-02 at cycle   1 NSaved=   1.
 NSaved= 1 IEnMin= 1 EnMin= -255.073808690797     IErMin= 1 ErrMin= 3.21D-02
 ErrMax= 3.21D-02  0.00D+00 EMaxC= 1.00D-01 BMatC= 1.06D-01 BMatP= 1.06D-01
 IDIUse=3 WtCom= 6.79D-01 WtEn= 3.21D-01
 Coeff-Com:  0.100D+01
 Coeff-En:   0.100D+01
 Coeff:      0.100D+01
 Gap=     0.198 Goal=   None    Shift=    0.000
 GapD=    0.198 DampG=1.000 DampE=0.500 DampFc=0.5000 IDamp=-1.
 Damping current iteration by 5.00D-01
 RMSDP=1.35D-02 MaxDP=1.89D-01              OVMax= 2.14D-01

 Cycle   2  Pass 1  IDiag  1:
 E= -255.125951259557     Delta-E=       -0.052142568761 Rises=F Damp=T
 DIIS: error= 8.61D-03 at cycle   2 NSaved=   2.
 NSaved= 2 IEnMin= 2 EnMin= -255.125951259557     IErMin= 2 ErrMin= 8.61D-03
 ErrMax= 8.61D-03  0.00D+00 EMaxC= 1.00D-01 BMatC= 5.35D-03 BMatP= 1.06D-01
 IDIUse=3 WtCom= 9.14D-01 WtEn= 8.61D-02
 Coeff-Com:  0.802D-01 0.920D+00
 Coeff-En:   0.128D+00 0.872D+00
 Coeff:      0.843D-01 0.916D+00
 Gap=     0.201 Goal=   None    Shift=    0.000
 RMSDP=5.60D-03 MaxDP=9.44D-02 DE=-5.21D-02 OVMax= 1.54D-01

 Cycle   3  Pass 1  IDiag  1:
 E= -255.185582605627     Delta-E=       -0.059631346070 Rises=F Damp=F
 DIIS: error= 9.02D-03 at cycle   3 NSaved=   3.
 NSaved= 3 IEnMin= 3 EnMin= -255.185582605627     IErMin= 2 ErrMin= 8.61D-03
 ErrMax= 9.02D-03  0.00D+00 EMaxC= 1.00D-01 BMatC= 5.41D-03 BMatP= 5.35D-03
 IDIUse=3 WtCom= 9.10D-01 WtEn= 9.02D-02
 Coeff-Com:  0.103D-01 0.501D+00 0.489D+00
 Coeff-En:   0.000D+00 0.000D+00 0.100D+01
 Coeff:      0.937D-02 0.456D+00 0.535D+00
 Gap=     0.197 Goal=   None    Shift=    0.000
 RMSDP=2.40D-03 MaxDP=4.41D-02 DE=-5.96D-02 OVMax= 5.36D-02

 Cycle   4  Pass 1  IDiag  1:
 E= -255.190791226698     Delta-E=       -0.005208621071 Rises=F Damp=F
 DIIS: error= 3.58D-03 at cycle   4 NSaved=   4.
 NSaved= 4 IEnMin= 4 EnMin= -255.190791226698     IErMin= 4 ErrMin= 3.58D-03
 ErrMax= 3.58D-03  0.00D+00 EMaxC= 1.00D-01 BMatC= 9.12D-04 BMatP= 5.35D-03
 IDIUse=3 WtCom= 9.64D-01 WtEn= 3.58D-02
 Coeff-Com:  0.148D-02 0.523D-01 0.299D+00 0.647D+00
 Coeff-En:   0.000D+00 0.000D+00 0.169D+00 0.831D+00
 Coeff:      0.143D-02 0.504D-01 0.294D+00 0.654D+00
 Gap=     0.199 Goal=   None    Shift=    0.000
 RMSDP=8.49D-04 MaxDP=1.15D-02 DE=-5.21D-03 OVMax= 1.89D-02

 Cycle   5  Pass 1  IDiag  1:
 E= -255.191801283291     Delta-E=       -0.001010056593 Rises=F Damp=F
 DIIS: error= 1.07D-03 at cycle   5 NSaved=   5.
 NSaved= 5 IEnMin= 5 EnMin= -255.191801283291     IErMin= 5 ErrMin= 1.07D-03
 ErrMax= 1.07D-03  0.00D+00 EMaxC= 1.00D-01 BMatC= 4.73D-05 BMatP= 9.12D-04
 IDIUse=3 WtCom= 9.89D-01 WtEn= 1.07D-02
 Coeff-Com:  0.624D-03 0.831D-02 0.151D+00 0.382D+00 0.458D+00
 Coeff-En:   0.000D+00 0.000D+00 0.000D+00 0.000D+00 0.100D+01
 Coeff:      0.618D-03 0.822D-02 0.149D+00 0.378D+00 0.464D+00
 Gap=     0.199 Goal=   None    Shift=    0.000
 RMSDP=1.75D-04 MaxDP=2.46D-03 DE=-1.01D-03 OVMax= 5.06D-03

 Cycle   6  Pass 1  IDiag  1:
 E= -255.191851883426     Delta-E=       -0.000050600135 Rises=F Damp=F
 DIIS: error= 3.15D-04 at cycle   6 NSaved=   6.
 NSaved= 6 IEnMin= 6 EnMin= -255.191851883426     IErMin= 6 ErrMin= 3.15D-04
 ErrMax= 3.15D-04  0.00D+00 EMaxC= 1.00D-01 BMatC= 4.06D-06 BMatP= 4.73D-05
 IDIUse=3 WtCom= 9.97D-01 WtEn= 3.15D-03
 Coeff-Com:  0.353D-03 0.109D-02 0.616D-01 0.162D+00 0.282D+00 0.493D+00
 Coeff-En:   0.000D+00 0.000D+00 0.000D+00 0.000D+00 0.147D-01 0.985D+00
 Coeff:      0.352D-03 0.109D-02 0.614D-01 0.162D+00 0.281D+00 0.495D+00
 Gap=     0.199 Goal=   None    Shift=    0.000
 RMSDP=4.34D-05 MaxDP=5.89D-04 DE=-5.06D-05 OVMax= 1.18D-03

 Cycle   7  Pass 1  IDiag  1:
 E= -255.191855964045     Delta-E=       -0.000004080619 Rises=F Damp=F
 DIIS: error= 5.87D-05 at cycle   7 NSaved=   7.
 NSaved= 7 IEnMin= 7 EnMin= -255.191855964045     IErMin= 7 ErrMin= 5.87D-05
 ErrMax= 5.87D-05  0.00D+00 EMaxC= 1.00D-01 BMatC= 2.89D-07 BMatP= 4.06D-06
 IDIUse=1 WtCom= 1.00D+00 WtEn= 0.00D+00
 Coeff-Com:  0.190D-03-0.141D-02 0.445D-02 0.148D-01 0.737D-01 0.254D+00
 Coeff-Com:  0.654D+00
 Coeff:      0.190D-03-0.141D-02 0.445D-02 0.148D-01 0.737D-01 0.254D+00
 Coeff:      0.654D+00
 Gap=     0.199 Goal=   None    Shift=    0.000
 RMSDP=1.11D-05 MaxDP=1.24D-04 DE=-4.08D-06 OVMax= 1.99D-04

 Cycle   8  Pass 1  IDiag  1:
 E= -255.191856256906     Delta-E=       -0.000000292861 Rises=F Damp=F
 DIIS: error= 4.15D-06 at cycle   8 NSaved=   8.
 NSaved= 8 IEnMin= 8 EnMin= -255.191856256906     IErMin= 8 ErrMin= 4.15D-06
 ErrMax= 4.15D-06  0.00D+00 EMaxC= 1.00D-01 BMatC= 1.34D-09 BMatP= 2.89D-07
 IDIUse=1 WtCom= 1.00D+00 WtEn= 0.00D+00
 Coeff-Com:  0.578D-04-0.298D-03-0.467D-05-0.225D-04 0.833D-02 0.388D-01
 Coeff-Com:  0.111D+00 0.842D+00
 Coeff:      0.578D-04-0.298D-03-0.467D-05-0.225D-04 0.833D-02 0.388D-01
 Coeff:      0.111D+00 0.842D+00
 Gap=     0.199 Goal=   None    Shift=    0.000
 RMSDP=1.45D-06 MaxDP=2.01D-05 DE=-2.93D-07 OVMax= 1.09D-05

 Cycle   9  Pass 1  IDiag  1:
 E= -255.191856257722     Delta-E=       -0.000000000816 Rises=F Damp=F
 DIIS: error= 2.60D-06 at cycle   9 NSaved=   9.
 NSaved= 9 IEnMin= 9 EnMin= -255.191856257722     IErMin= 9 ErrMin= 2.60D-06
 ErrMax= 2.60D-06  0.00D+00 EMaxC= 1.00D-01 BMatC= 6.11D-10 BMatP= 1.34D-09
 IDIUse=1 WtCom= 1.00D+00 WtEn= 0.00D+00
 Coeff-Com:  0.217D-04-0.643D-04-0.246D-03-0.101D-02-0.631D-03 0.315D-02
 Coeff-Com:  0.139D-01 0.500D+00 0.485D+00
 Coeff:      0.217D-04-0.643D-04-0.246D-03-0.101D-02-0.631D-03 0.315D-02
 Coeff:      0.139D-01 0.500D+00 0.485D+00
 Gap=     0.199 Goal=   None    Shift=    0.000
 RMSDP=5.46D-07 MaxDP=6.79D-06 DE=-8.16D-10 OVMax= 8.88D-06

 Cycle  10  Pass 1  IDiag  1:
 E= -255.191856258186     Delta-E=       -0.000000000464 Rises=F Damp=F
 DIIS: error= 9.65D-07 at cycle  10 NSaved=  10.
 NSaved=10 IEnMin=10 EnMin= -255.191856258186     IErMin=10 ErrMin= 9.65D-07
 ErrMax= 9.65D-07  0.00D+00 EMaxC= 1.00D-01 BMatC= 2.43D-11 BMatP= 6.11D-10
 IDIUse=1 WtCom= 1.00D+00 WtEn= 0.00D+00
 Coeff-Com:  0.226D-05 0.451D-05-0.531D-04-0.269D-03-0.715D-03-0.266D-02
 Coeff-Com: -0.549D-02 0.370D-01 0.171D+00 0.801D+00
 Coeff:      0.226D-05 0.451D-05-0.531D-04-0.269D-03-0.715D-03-0.266D-02
 Coeff:     -0.549D-02 0.370D-01 0.171D+00 0.801D+00
 Gap=     0.199 Goal=   None    Shift=    0.000
 RMSDP=1.94D-07 MaxDP=3.00D-06 DE=-4.64D-10 OVMax= 3.50D-06

 Cycle  11  Pass 1  IDiag  1:
 E= -255.191856258217     Delta-E=       -0.000000000030 Rises=F Damp=F
 DIIS: error= 3.42D-08 at cycle  11 NSaved=  11.
 NSaved=11 IEnMin=11 EnMin= -255.191856258217     IErMin=11 ErrMin= 3.42D-08
 ErrMax= 3.42D-08  0.00D+00 EMaxC= 1.00D-01 BMatC= 9.67D-14 BMatP= 2.43D-11
 IDIUse=1 WtCom= 1.00D+00 WtEn= 0.00D+00
 Coeff-Com:  0.449D-07 0.892D-06-0.179D-05-0.164D-04-0.818D-04-0.289D-03
 Coeff-Com: -0.934D-03-0.304D-02 0.177D-01 0.893D-01 0.897D+00
 Coeff:      0.449D-07 0.892D-06-0.179D-05-0.164D-04-0.818D-04-0.289D-03
 Coeff:     -0.934D-03-0.304D-02 0.177D-01 0.893D-01 0.897D+00
 Gap=     0.199 Goal=   None    Shift=    0.000
 RMSDP=1.69D-08 MaxDP=1.71D-07 DE=-3.04D-11 OVMax= 2.19D-07

 Cycle  12  Pass 1  IDiag  1:
 E= -255.191856258217     Delta-E=       -0.000000000001 Rises=F Damp=F
 DIIS: error= 7.76D-09 at cycle  12 NSaved=  12.
 NSaved=12 IEnMin=12 EnMin= -255.191856258217     IErMin=12 ErrMin= 7.76D-09
 ErrMax= 7.76D-09  0.00D+00 EMaxC= 1.00D-01 BMatC= 4.25D-15 BMatP= 9.67D-14
 IDIUse=1 WtCom= 1.00D+00 WtEn= 0.00D+00
 Coeff-Com: -0.117D-07-0.206D-07 0.830D-06 0.186D-05 0.463D-05 0.267D-05
 Coeff-Com:  0.141D-04-0.743D-03-0.176D-02-0.403D-02 0.714D-01 0.935D+00
 Coeff:     -0.117D-07-0.206D-07 0.830D-06 0.186D-05 0.463D-05 0.267D-05
 Coeff:      0.141D-04-0.743D-03-0.176D-02-0.403D-02 0.714D-01 0.935D+00
 Gap=     0.199 Goal=   None    Shift=    0.000
 RMSDP=3.60D-09 MaxDP=8.26D-08 DE=-9.66D-13 OVMax= 3.00D-08

 SCF Done:  E(RB3LYP) =  -255.191856258     A.U. after   12 cycles
            NFock= 12  Conv=0.36D-08     -V/T= 2.0059
 KE= 2.536951531861D+02 PE=-9.125468198114D+02 EE= 2.462080769368D+02
 Leave Link  502 at Tue May 11 16:52:57 2021, MaxMem=  2147483648 cpu:         9.9
 (Enter /opt/cluster/programs/g09_d.01/g09/l601.exe)
 Copying SCF densities to generalized density rwf, IOpCl= 0 IROHF=0.

 **********************************************************************

            Population analysis using the SCF density.

 **********************************************************************

 Orbital symmetries:
       Occupied  (A) (A) (A) (A) (A) (A) (A) (A) (A) (A) (A) (A)
                 (A) (A) (A) (A) (A) (A) (A)
       Virtual   (A) (A) (A) (A) (A) (A) (A) (A) (A) (A) (A) (A)
                 (A) (A) (A) (A) (A) (A) (A) (A) (A) (A) (A) (A)
                 (A) (A) (A) (A) (A) (A) (A) (A) (A) (A) (A) (A)
                 (A) (A) (A) (A) (A) (A) (A) (A) (A) (A) (A) (A)
                 (A) (A) (A) (A) (A) (A) (A) (A)
 The electronic state is 1-A.
 Alpha  occ. eigenvalues --  -24.70695 -10.29281 -10.21971 -10.20503 -10.20454
 Alpha  occ. eigenvalues --   -1.20863  -0.82948  -0.76760  -0.64118  -0.57533
 Alpha  occ. eigenvalues --   -0.51493  -0.50163  -0.45263  -0.45225  -0.42319
 Alpha  occ. eigenvalues --   -0.39789  -0.37870  -0.33024  -0.25486
 Alpha virt. eigenvalues --   -0.05611   0.00156   0.02068   0.03587   0.03645
 Alpha virt. eigenvalues --    0.04933   0.05916   0.06620   0.08558   0.08755
 Alpha virt. eigenvalues --    0.09703   0.10235   0.12441   0.13244   0.13870
 Alpha virt. eigenvalues --    0.14884   0.16197   0.17587   0.20411   0.22243
 Alpha virt. eigenvalues --    0.23244   0.23771   0.25372   0.30668   0.32621
 Alpha virt. eigenvalues --    0.33324   0.35884   0.37373   0.41418   0.41609
 Alpha virt. eigenvalues --    0.45283   0.64228   0.65392   0.68067   0.69764
 Alpha virt. eigenvalues --    0.73571   0.74217   0.74463   0.79048   0.82940
 Alpha virt. eigenvalues --    0.90557   0.93397   0.94780   1.01624   1.04457
 Alpha virt. eigenvalues --    1.05925   1.12023   1.16076   1.20797   1.27276
 Alpha virt. eigenvalues --    1.33957   1.41975   1.56523   1.73600   1.77111
 Alpha virt. eigenvalues --    2.29637
          Condensed to atoms (all electrons):
               1          2          3          4          5          6
     1  C    6.775039  -0.719442   0.007356  -0.199224   0.442615   0.361903
     2  C   -0.719442   6.513027  -0.603756   0.348557  -0.116472  -0.048172
     3  C    0.007356  -0.603756   6.564479   0.005150   0.030279   0.020744
     4  C   -0.199224   0.348557   0.005150   5.466734  -0.006394  -0.001809
     5  H    0.442615  -0.116472   0.030279  -0.006394   0.477902  -0.025452
     6  H    0.361903  -0.048172   0.020744  -0.001809  -0.025452   0.499163
     7  F   -0.191459   0.322038  -0.160628   0.003859  -0.001970   0.004843
     8  H   -0.059080   0.067924   0.245731   0.033255   0.000139   0.001238
     9  H   -0.020836   0.016019  -0.124971   0.469048   0.000005  -0.000003
    10  H   -0.000953   0.028976  -0.072484   0.388493   0.000001  -0.000003
               7          8          9         10
     1  C   -0.191459  -0.059080  -0.020836  -0.000953
     2  C    0.322038   0.067924   0.016019   0.028976
     3  C   -0.160628   0.245731  -0.124971  -0.072484
     4  C    0.003859   0.033255   0.469048   0.388493
     5  H   -0.001970   0.000139   0.000005   0.000001
     6  H    0.004843   0.001238  -0.000003  -0.000003
     7  F    9.345865   0.004256   0.002158   0.000406
     8  H    0.004256   0.521553   0.003401  -0.004635
     9  H    0.002158   0.003401   0.480335  -0.029913
    10  H    0.000406  -0.004635  -0.029913   0.514430
 Mulliken charges:
               1
     1  C   -0.395919
     2  C    0.191302
     3  C    0.088101
     4  C   -0.507667
     5  H    0.199348
     6  H    0.187549
     7  F   -0.329368
     8  H    0.186217
     9  H    0.204757
    10  H    0.175681
 Sum of Mulliken charges =   0.00000
 Mulliken charges with hydrogens summed into heavy atoms:
               1
     1  C   -0.009023
     2  C    0.191302
     3  C    0.274318
     4  C   -0.127229
     7  F   -0.329368
 Electronic spatial extent (au):  <R**2>=            427.1756
 Charge=              0.0000 electrons
 Dipole moment (field-independent basis, Debye):
    X=              0.3158    Y=             -2.0824    Z=              0.0000  Tot=              2.1062
 Quadrupole moment (field-independent basis, Debye-Ang):
   XX=            -25.4337   YY=            -29.8455   ZZ=            -33.0403
   XY=              1.2737   XZ=             -0.0004   YZ=              0.0003
 Traceless Quadrupole moment (field-independent basis, Debye-Ang):
   XX=              4.0061   YY=             -0.4056   ZZ=             -3.6005
   XY=              1.2737   XZ=             -0.0004   YZ=              0.0003
 Octapole moment (field-independent basis, Debye-Ang**2):
  XXX=             -3.2471  YYY=              1.6732  ZZZ=             -0.0003  XYY=              0.7025
  XXY=              2.2051  XXZ=              0.0009  XZZ=             -1.7455  YZZ=              5.0041
  YYZ=             -0.0001  XYZ=              0.0007
 Hexadecapole moment (field-independent basis, Debye-Ang**3):
 XXXX=           -343.0523 YYYY=           -141.4763 ZZZZ=            -39.0431 XXXY=             -8.0563
 XXXZ=             -0.0027 YYYX=              1.5593 YYYZ=              0.0006 ZZZX=             -0.0003
 ZZZY=             -0.0001 XXYY=            -83.2054 XXZZ=            -80.2037 YYZZ=            -32.9081
 XXYZ=              0.0001 YYXZ=             -0.0008 ZZXY=             -2.2148
 N-N= 1.574517334303D+02 E-N=-9.125468193912D+02  KE= 2.536951531861D+02
 No NMR shielding tensors so no spin-rotation constants.
 Leave Link  601 at Tue May 11 16:52:57 2021, MaxMem=  2147483648 cpu:         0.6
 (Enter /opt/cluster/programs/g09_d.01/g09/l701.exe)
 Compute integral first derivatives.
 ... and contract with generalized density number  0.
 Leave Link  701 at Tue May 11 16:52:57 2021, MaxMem=  2147483648 cpu:         0.6
 (Enter /opt/cluster/programs/g09_d.01/g09/l702.exe)
 L702 exits ... SP integral derivatives will be done elsewhere.
 Leave Link  702 at Tue May 11 16:52:57 2021, MaxMem=  2147483648 cpu:         0.2
 (Enter /opt/cluster/programs/g09_d.01/g09/l703.exe)
 Compute integral first derivatives, UseDBF=F ICtDFT=           0.
 Integral derivatives from FoFJK, PRISM(SPDF).
 Calling FoFJK, ICntrl=      2127 FMM=F ISym2X=0 I1Cent= 0 IOpClX= 0 NMat=1 NMatS=1 NMatT=0.
 FoFJK:  IHMeth= 1 ICntrl=    2127 DoSepK=F KAlg= 0 I1Cent=   0 FoldK=F
 IRaf=         0 NMat=   1 IRICut=       1 DoRegI=T DoRafI=F ISym2E= 0.
 FoFCou: FMM=F IPFlag=           0 FMFlag=      100000 FMFlg1=         800
         NFxFlg=           0 DoJE=F BraDBF=F KetDBF=F FulRan=T
         wScrn=  0.000000 ICntrl=    2127 IOpCl=  0 I1Cent=           0 NGrid=           0
         NMat0=    1 NMatS0=      1 NMatT0=    0 NMatD0=    1 NMtDS0=    0 NMtDT0=    0
 Symmetry not used in FoFCou.
 Leave Link  703 at Tue May 11 16:52:57 2021, MaxMem=  2147483648 cpu:         2.4
 (Enter /opt/cluster/programs/g09_d.01/g09/l716.exe)
 Dipole        = 1.24250180D-01-8.19288831D-01 1.38920926D-05
 ***** Axes restored to original set *****
 -------------------------------------------------------------------
 Center     Atomic                   Forces (Hartrees/Bohr)
 Number     Number              X              Y              Z
 -------------------------------------------------------------------
      1        6           0.000003141   -0.000020382   -0.000004418
      2        6          -0.000005903    0.000009812    0.000010088
      3        6           0.000000757    0.000015292    0.000000361
      4        6          -0.000004327    0.000006418   -0.000005448
      5        1           0.000002324   -0.000002757   -0.000001788
      6        1           0.000005027   -0.000002823   -0.000002696
      7        9           0.000003983   -0.000016750   -0.000005419
      8        1           0.000003012   -0.000001666    0.000001352
      9        1          -0.000004415    0.000007329    0.000004399
     10        1          -0.000003600    0.000005526    0.000003570
 -------------------------------------------------------------------
 Cartesian Forces:  Max     0.000020382 RMS     0.000007181
 Leave Link  716 at Tue May 11 16:52:57 2021, MaxMem=  2147483648 cpu:         0.2
 (Enter /opt/cluster/programs/g09_d.01/g09/l103.exe)

 GradGradGradGradGradGradGradGradGradGradGradGradGradGradGradGradGradGrad
 Berny optimization.
 FormGI is forming the generalized inverse of G from B-inverse, IUseBI=4.
 Internal  Forces:  Max     0.000015843 RMS     0.000004649
 Search for a local minimum.
 Step number   1 out of a maximum of   43 on scan point     1 out of    18
 All quantities printed in internal units (Hartrees-Bohrs-Radians)
 RMS Force = .46898D-05 SwitMx=.10000D-02 MixMth= 2
 Mixed Optimization -- En-DIIS/RFO-DIIS
 Second derivative matrix not updated -- first step.
 ITU=  0
     Eigenvalues ---    0.01768   0.02149   0.02816   0.02816   0.02913
     Eigenvalues ---    0.02913   0.16000   0.16000   0.16000   0.16000
     Eigenvalues ---    0.16000   0.22000   0.25000   0.25000   0.35067
     Eigenvalues ---    0.35427   0.35434   0.35559   0.35699   0.37683
     Eigenvalues ---    0.42377   0.56087   0.577191000.000001000.00000
     Eigenvalues --- 1000.000001000.000001000.000001000.000001000.00000
     Eigenvalues --- 1000.000001000.000001000.00000
 RFO step:  Lambda= 0.00000000D+00 EMin= 1.76762683D-02
 Linear search not attempted -- first point.
 Iteration  1 RMS(Cart)=  0.00003769 RMS(Int)=  0.00000000
 Iteration  2 RMS(Cart)=  0.00000000 RMS(Int)=  0.00000000
 Iteration  1 RMS(Cart)=  0.00000000 RMS(Int)=  0.00000000
 ITry= 1 IFail=0 DXMaxC= 7.81D-05 DCOld= 1.00D+10 DXMaxT= 3.00D-01 DXLimC= 3.00D+00 Rises=F
 Variable       Old X    -DE/DX   Delta X   Delta X   Delta X     New X
                                 (Linear)    (Quad)   (Total)
    R1        2.52792   0.00000   0.00000   0.00001   0.00001   2.52793
    R2        2.04555   0.00000   0.00000   0.00000   0.00000   2.04555
    R3        2.04777   0.00000   0.00000  -0.00001  -0.00001   2.04777
    R4        2.74829  -0.00001   0.00000  -0.00002  -0.00002   2.74828
    R5        2.68446  -0.00002   0.00000  -0.00004  -0.00004   2.68442
    R6        2.54178   0.00000   0.00000   0.00000   0.00000   2.54178
    R7        2.05566   0.00000   0.00000   0.00001   0.00001   2.05567
    R8        2.04987   0.00000   0.00000   0.00001   0.00001   2.04988
    R9        2.04976   0.00000   0.00000   0.00000   0.00000   2.04975
    A1        2.11921  -0.00001   0.00000  -0.00005  -0.00005   2.11916
    A2        2.09870   0.00000   0.00000   0.00003   0.00003   2.09873
    A3        2.06527   0.00000   0.00000   0.00002   0.00002   2.06530
    A4        2.24976   0.00000   0.00000   0.00001   0.00001   2.24977
    A5        2.04932   0.00001   0.00000   0.00003   0.00003   2.04935
    A6        1.98410  -0.00001   0.00000  -0.00004  -0.00004   1.98406
    A7        2.18331   0.00000   0.00000   0.00002   0.00002   2.18332
    A8        1.99760   0.00000   0.00000  -0.00002  -0.00002   1.99757
    A9        2.10228   0.00000   0.00000   0.00000   0.00000   2.10229
   A10        2.12592   0.00000   0.00000   0.00003   0.00003   2.12595
   A11        2.11042  -0.00001   0.00000  -0.00004  -0.00004   2.11038
   A12        2.04685   0.00000   0.00000   0.00001   0.00001   2.04685
    D1        3.14151   0.00000   0.00000   0.00007   0.00007   3.14159
    D2        0.00002   0.00000   0.00000  -0.00001  -0.00001   0.00001
    D3       -0.00003   0.00000   0.00000  -0.00001  -0.00001  -0.00004
    D4       -3.14153   0.00000   0.00000  -0.00009  -0.00009   3.14157
    D5       -3.14140   0.00000   0.00000   0.00000   0.00000  -3.14140
    D6        0.00020   0.00000   0.00000  -0.00007  -0.00007   0.00013
    D7        0.00010   0.00000   0.00000   0.00008   0.00008   0.00018
    D8       -3.14149   0.00000   0.00000   0.00001   0.00001  -3.14148
    D9       -0.00006   0.00000   0.00000   0.00004   0.00004  -0.00002
   D10       -3.14156   0.00000   0.00000  -0.00010  -0.00010   3.14152
   D11        3.14152   0.00000   0.00000   0.00012   0.00012  -3.14154
   D12        0.00003   0.00000   0.00000  -0.00003  -0.00003   0.00000
         Item               Value     Threshold  Converged?
 Maximum Force            0.000016     0.000450     YES
 RMS     Force            0.000005     0.000300     YES
 Maximum Displacement     0.000078     0.001800     YES
 RMS     Displacement     0.000038     0.001200     YES
 Predicted change in Energy=-1.926846D-09
 Optimization completed.
    -- Stationary point found.
                           ----------------------------
                           !   Optimized Parameters   !
                           ! (Angstroms and Degrees)  !
 --------------------------                            --------------------------
 ! Name  Definition              Value          Derivative Info.                !
 --------------------------------------------------------------------------------
 ! R1    R(1,2)                  1.3377         -DE/DX =    0.0                 !
 ! R2    R(1,5)                  1.0825         -DE/DX =    0.0                 !
 ! R3    R(1,6)                  1.0836         -DE/DX =    0.0                 !
 ! R4    R(2,3)                  1.4543         -DE/DX =    0.0                 !
 ! R5    R(2,7)                  1.4206         -DE/DX =    0.0                 !
 ! R6    R(3,4)                  1.3451         -DE/DX =    0.0                 !
 ! R7    R(3,8)                  1.0878         -DE/DX =    0.0                 !
 ! R8    R(4,9)                  1.0847         -DE/DX =    0.0                 !
 ! R9    R(4,10)                 1.0847         -DE/DX =    0.0                 !
 ! A1    A(2,1,5)              121.4217         -DE/DX =    0.0                 !
 ! A2    A(2,1,6)              120.2468         -DE/DX =    0.0                 !
 ! A3    A(5,1,6)              118.3315         -DE/DX =    0.0                 !
 ! A4    A(1,2,3)              128.9019         -DE/DX =    0.0                 !
 ! A5    A(1,2,7)              117.4175         -DE/DX =    0.0                 !
 ! A6    A(3,2,7)              113.6806         -DE/DX =    0.0                 !
 ! A7    A(2,3,4)              125.0942         -DE/DX =    0.0                 !
 ! A8    A(2,3,8)              114.4538         -DE/DX =    0.0                 !
 ! A9    A(4,3,8)              120.4521         -DE/DX =    0.0                 !
 ! A10   A(3,4,9)              121.8063         -DE/DX =    0.0                 !
 ! A11   A(3,4,10)             120.9181         -DE/DX =    0.0                 !
 ! A12   A(9,4,10)             117.2756         -DE/DX =    0.0                 !
 ! D1    D(5,1,2,3)            179.9955         -DE/DX =    0.0                 !
 ! D2    D(5,1,2,7)              0.0011         -DE/DX =    0.0                 !
 ! D3    D(6,1,2,3)             -0.0019         -DE/DX =    0.0                 !
 ! D4    D(6,1,2,7)            180.0037         -DE/DX =    0.0                 !
 ! D5    D(1,2,3,4)           -179.989          -DE/DX =    0.0                 !
 ! D6    D(1,2,3,8)              0.0115         -DE/DX =    0.0                 !
 ! D7    D(7,2,3,4)              0.0056         -DE/DX =    0.0                 !
 ! D8    D(7,2,3,8)           -179.9939         -DE/DX =    0.0                 !
 ! D9    D(2,3,4,9)             -0.0034         -DE/DX =    0.0                 !
 ! D10   D(2,3,4,10)           180.002          -DE/DX =    0.0                 !
 ! D11   D(8,3,4,9)           -180.0039         -DE/DX =    0.0                 !
 ! D12   D(8,3,4,10)             0.0015         -DE/DX =    0.0                 !
 --------------------------------------------------------------------------------
 Lowest energy point so far.  Saving SCF results.
 Iteration  1 RMS(Cart)=  0.03553244 RMS(Int)=  0.04707579
 Iteration  2 RMS(Cart)=  0.01751684 RMS(Int)=  0.04386025
 Iteration  3 RMS(Cart)=  0.00860965 RMS(Int)=  0.04340866
 Iteration  4 RMS(Cart)=  0.00068244 RMS(Int)=  0.04340618
 Iteration  5 RMS(Cart)=  0.00002183 RMS(Int)=  0.04340618
 Iteration  6 RMS(Cart)=  0.00000076 RMS(Int)=  0.04340618
 Iteration  1 RMS(Cart)=  0.03177516 RMS(Int)=  0.02210834
 Iteration  2 RMS(Cart)=  0.01631046 RMS(Int)=  0.02469648
 Iteration  3 RMS(Cart)=  0.00833322 RMS(Int)=  0.02767001
 Iteration  4 RMS(Cart)=  0.00424368 RMS(Int)=  0.02948091
 Iteration  5 RMS(Cart)=  0.00215701 RMS(Int)=  0.03046248
 Iteration  6 RMS(Cart)=  0.00109526 RMS(Int)=  0.03097489
 Iteration  7 RMS(Cart)=  0.00055585 RMS(Int)=  0.03123833
 Iteration  8 RMS(Cart)=  0.00028202 RMS(Int)=  0.03137284
 Iteration  9 RMS(Cart)=  0.00014306 RMS(Int)=  0.03144129
 Iteration 10 RMS(Cart)=  0.00007257 RMS(Int)=  0.03147607
 Iteration 11 RMS(Cart)=  0.00003681 RMS(Int)=  0.03149372
 Iteration 12 RMS(Cart)=  0.00001867 RMS(Int)=  0.03150268
 Iteration 13 RMS(Cart)=  0.00000947 RMS(Int)=  0.03150722
 Iteration 14 RMS(Cart)=  0.00000480 RMS(Int)=  0.03150953
 Iteration 15 RMS(Cart)=  0.00000244 RMS(Int)=  0.03151070
 Iteration 16 RMS(Cart)=  0.00000124 RMS(Int)=  0.03151129
 Iteration 17 RMS(Cart)=  0.00000063 RMS(Int)=  0.03151159
 GradGradGradGradGradGradGradGradGradGradGradGradGradGradGradGradGradGrad

 Leave Link  103 at Tue May 11 16:52:58 2021, MaxMem=  2147483648 cpu:         0.3
 (Enter /opt/cluster/programs/g09_d.01/g09/l202.exe)
                          Input orientation:                          
 ---------------------------------------------------------------------
 Center     Atomic      Atomic             Coordinates (Angstroms)
 Number     Number       Type             X           Y           Z
 ---------------------------------------------------------------------
      1          6           0       -4.738394    0.614025    0.076030
      2          6           0       -3.719085    1.472378   -0.052891
      3          6           0       -2.308089    1.184094   -0.255496
      4          6           0       -1.302611    2.042223   -0.000853
      5          1           0       -5.739546    0.956744    0.304632
      6          1           0       -4.575519   -0.450444   -0.047943
      7          9           0       -3.993747    2.836289    0.233871
      8          1           0       -2.083585    0.144187   -0.482530
      9          1           0       -1.488048    3.065684    0.308281
     10          1           0       -0.267377    1.732821   -0.098101
 ---------------------------------------------------------------------
                    Distance matrix (angstroms):
                    1          2          3          4          5
     1  C    0.000000
     2  C    1.338799   0.000000
     3  C    2.518188   1.454327   0.000000
     4  C    3.721594   2.483300   1.346185   0.000000
     5  H    1.082599   2.115647   3.484297   4.577988   0.000000
     6  H    1.083970   2.104934   2.802861   4.114308   1.859958
     7  F    2.349015   1.420537   2.410533   2.815643   2.566225
     8  H    2.753316   2.150243   1.087820   2.108192   3.826999
     9  H    4.077906   2.765247   2.128542   1.085091   4.745826
    10  H    4.612160   3.461815   2.119052   1.084848   5.541581
                    6          7          8          9         10
     6  H    0.000000
     7  F    3.349701   0.000000
     8  H    2.598497   3.377775   0.000000
     9  H    4.692816   2.517277   3.084670   0.000000
    10  H    4.830036   3.900471   2.443390   1.852487   0.000000
 Stoichiometry    C4H5F
 Framework group  C1[X(C4H5F)]
 Deg. of freedom    24
 Full point group                 C1      NOp   1
 RotChk:  IX=0 Diff= 5.56D-02
 Largest Abelian subgroup         C1      NOp   1
 Largest concise Abelian subgroup C1      NOp   1
                         Standard orientation:                         
 ---------------------------------------------------------------------
 Center     Atomic      Atomic             Coordinates (Angstroms)
 Number     Number       Type             X           Y           Z
 ---------------------------------------------------------------------
      1          6           0       -1.705277   -0.680987    0.083531
      2          6           0       -0.518489   -0.084789   -0.085181
      3          6           0        0.804675   -0.687366   -0.119860
      4          6           0        1.958042   -0.024984    0.088011
      5          1           0       -2.618477   -0.106131    0.170860
      6          1           0       -1.771459   -1.761664    0.135966
      7          9           0       -0.504624    1.334687   -0.032069
      8          1           0        0.809248   -1.774141   -0.167324
      9          1           0        1.983716    1.051476    0.222169
     10          1           0        2.904892   -0.552975    0.127949
 ---------------------------------------------------------------------
 Rotational constants (GHZ):      9.5187707      4.1898300      2.9292909
 Leave Link  202 at Tue May 11 16:52:58 2021, MaxMem=  2147483648 cpu:         0.0
 (Enter /opt/cluster/programs/g09_d.01/g09/l301.exe)
 Standard basis: 6-31+G (6D, 7F)
 Ernie: Thresh=  0.10000D-02 Tol=  0.10000D-05 Strict=F.
 There are    75 symmetry adapted cartesian basis functions of A   symmetry.
 There are    75 symmetry adapted basis functions of A   symmetry.
    75 basis functions,   150 primitive gaussians,    75 cartesian basis functions
    19 alpha electrons       19 beta electrons
       nuclear repulsion energy       157.4599402384 Hartrees.
 IExCor=  402 DFT=T Ex+Corr=B3LYP ExCW=0 ScaHFX=  0.200000
 ScaDFX=  0.800000  0.720000  1.000000  0.810000 ScalE2=  1.000000  1.000000
 IRadAn=      0 IRanWt=     -1 IRanGd=            0 ICorTp=0 IEmpDi=  4
 NAtoms=   10 NActive=   10 NUniq=   10 SFac= 1.00D+00 NAtFMM=   60 NAOKFM=F Big=F
 Integral buffers will be    131072 words long.
 Raffenetti 2 integral format.
 Two-electron integral symmetry is turned on.
 Leave Link  301 at Tue May 11 16:52:58 2021, MaxMem=  2147483648 cpu:         0.3
 (Enter /opt/cluster/programs/g09_d.01/g09/l302.exe)
 NPDir=0 NMtPBC=     1 NCelOv=     1 NCel=       1 NClECP=     1 NCelD=      1
         NCelK=      1 NCelE2=     1 NClLst=     1 CellRange=     0.0.
 One-electron integrals computed using PRISM.
 NBasis=    75 RedAO= T EigKep=  3.79D-05  NBF=    75
 NBsUse=    75 1.00D-06 EigRej= -1.00D+00 NBFU=    75
 Precomputing XC quadrature grid using
 IXCGrd= 4 IRadAn=           0 IRanWt=          -1 IRanGd=           0 AccXCQ= 0.00D+00.
 Generated NRdTot=       0 NPtTot=           0 NUsed=           0 NTot=          32
 NSgBfM=    75    75    75    75    75 MxSgAt=    10 MxSgA2=    10.
 Leave Link  302 at Tue May 11 16:52:58 2021, MaxMem=  2147483648 cpu:         0.8
 (Enter /opt/cluster/programs/g09_d.01/g09/l303.exe)
 DipDrv:  MaxL=1.
 Leave Link  303 at Tue May 11 16:52:58 2021, MaxMem=  2147483648 cpu:         0.2
 (Enter /opt/cluster/programs/g09_d.01/g09/l401.exe)
 Initial guess from the checkpoint file:  "/home/unibas/boittier/RDKit_G2/B.pdb/SCAN_1_2_3_4_S_17_20.0/B.pdb.chk"
 B after Tr=     0.000000    0.000000    0.000000
         Rot=    0.999987   -0.000276   -0.000021   -0.005045 Ang=  -0.58 deg.
 Guess basis will be translated and rotated to current coordinates.
 JPrj=2 DoOrth=T DoCkMO=T.
 Generating alternative initial guess.
 ExpMin= 4.38D-02 ExpMax= 7.00D+03 ExpMxC= 1.05D+03 IAcc=2 IRadAn=         4 AccDes= 0.00D+00
 Harris functional with IExCor=  402 and IRadAn=       4 diagonalized for initial guess.
 HarFok:  IExCor=  402 AccDes= 0.00D+00 IRadAn=         4 IDoV= 1 UseB2=F ITyADJ=14
 ICtDFT=  3500011 ScaDFX=  1.000000  1.000000  1.000000  1.000000
 FoFCou: FMM=F IPFlag=           0 FMFlag=      100000 FMFlg1=           0
         NFxFlg=           0 DoJE=T BraDBF=F KetDBF=T FulRan=T
         wScrn=  0.000000 ICntrl=     500 IOpCl=  0 I1Cent=   200000004 NGrid=           0
         NMat0=    1 NMatS0=      1 NMatT0=    0 NMatD0=    1 NMtDS0=    0 NMtDT0=    0
 Petite list used in FoFCou.
 Harris En= -255.207117510291    
 Leave Link  401 at Tue May 11 16:52:58 2021, MaxMem=  2147483648 cpu:         1.5
 (Enter /opt/cluster/programs/g09_d.01/g09/l502.exe)
 Closed shell SCF:
 Using DIIS extrapolation, IDIIS=  1040.
 Integral symmetry usage will be decided dynamically.
 Keep R1 ints in memory in canonical form, NReq=4993487.
 IVT=       36600 IEndB=       36600 NGot=  2147483648 MDV=  2143384374
 LenX=  2143384374 LenY=  2143378308
 Requested convergence on RMS density matrix=1.00D-08 within 128 cycles.
 Requested convergence on MAX density matrix=1.00D-06.
 Requested convergence on             energy=1.00D-06.
 No special actions if energy rises.
 FoFCou: FMM=F IPFlag=           0 FMFlag=           0 FMFlg1=           0
         NFxFlg=           0 DoJE=F BraDBF=F KetDBF=F FulRan=T
         wScrn=  0.000000 ICntrl=     600 IOpCl=  0 I1Cent=           0 NGrid=           0
         NMat0=    1 NMatS0=   2850 NMatT0=    0 NMatD0=    1 NMtDS0=    0 NMtDT0=    0
 Symmetry not used in FoFCou.

 Cycle   1  Pass 1  IDiag  1:
 E= -255.163021578029    
 DIIS: error= 1.64D-02 at cycle   1 NSaved=   1.
 NSaved= 1 IEnMin= 1 EnMin= -255.163021578029     IErMin= 1 ErrMin= 1.64D-02
 ErrMax= 1.64D-02  0.00D+00 EMaxC= 1.00D-01 BMatC= 1.14D-02 BMatP= 1.14D-02
 IDIUse=3 WtCom= 8.36D-01 WtEn= 1.64D-01
 Coeff-Com:  0.100D+01
 Coeff-En:   0.100D+01
 Coeff:      0.100D+01
 Recover alternate guess density for next cycle.
 RMSDP=1.55D-02 MaxDP=2.10D-01              OVMax= 0.00D+00

 Cycle   2  Pass 1  IDiag  1:
 E= -255.071641111436     Delta-E=        0.091380466593 Rises=F Damp=F
 Switch densities from cycles 1 and 2 for lowest energy.
 DIIS: error= 2.87D-02 at cycle   2 NSaved=   2.
 NSaved= 2 IEnMin= 1 EnMin= -255.163021578029     IErMin= 1 ErrMin= 1.64D-02
 ErrMax= 2.87D-02  0.00D+00 EMaxC= 1.00D+00 BMatC= 1.06D-01 BMatP= 1.14D-02
 IDIUse=1 WtCom= 1.00D+00 WtEn= 0.00D+00
 Coeff-Com:  0.903D+00 0.971D-01
 Coeff:      0.903D+00 0.971D-01
 Gap=     0.202 Goal=   None    Shift=    0.000
 RMSDP=1.53D-02 MaxDP=2.29D-01 DE= 9.14D-02 OVMax= 1.12D-01

 Cycle   3  Pass 1  IDiag  1:
 E= -255.187775374554     Delta-E=       -0.116134263118 Rises=F Damp=F
 DIIS: error= 3.70D-03 at cycle   3 NSaved=   3.
 NSaved= 3 IEnMin= 3 EnMin= -255.187775374554     IErMin= 3 ErrMin= 3.70D-03
 ErrMax= 3.70D-03  0.00D+00 EMaxC= 1.00D+00 BMatC= 1.61D-03 BMatP= 1.14D-02
 IDIUse=1 WtCom= 1.00D+00 WtEn= 0.00D+00
 Coeff-Com: -0.393D-01 0.104D+00 0.935D+00
 Coeff:     -0.393D-01 0.104D+00 0.935D+00
 Gap=     0.198 Goal=   None    Shift=    0.000
 RMSDP=1.43D-03 MaxDP=1.94D-02 DE=-1.16D-01 OVMax= 2.47D-02

 Cycle   4  Pass 1  IDiag  1:
 E= -255.189167634043     Delta-E=       -0.001392259489 Rises=F Damp=F
 DIIS: error= 2.70D-03 at cycle   4 NSaved=   4.
 NSaved= 4 IEnMin= 4 EnMin= -255.189167634043     IErMin= 4 ErrMin= 2.70D-03
 ErrMax= 2.70D-03  0.00D+00 EMaxC= 1.00D+00 BMatC= 5.02D-04 BMatP= 1.61D-03
 IDIUse=1 WtCom= 1.00D+00 WtEn= 0.00D+00
 Coeff-Com: -0.359D-01 0.534D-01 0.554D+00 0.428D+00
 Coeff:     -0.359D-01 0.534D-01 0.554D+00 0.428D+00
 Gap=     0.197 Goal=   None    Shift=    0.000
 RMSDP=6.09D-04 MaxDP=7.42D-03 DE=-1.39D-03 OVMax= 1.41D-02

 Cycle   5  Pass 1  IDiag  1:
 E= -255.189707673215     Delta-E=       -0.000540039171 Rises=F Damp=F
 DIIS: error= 3.67D-04 at cycle   5 NSaved=   5.
 NSaved= 5 IEnMin= 5 EnMin= -255.189707673215     IErMin= 5 ErrMin= 3.67D-04
 ErrMax= 3.67D-04  0.00D+00 EMaxC= 1.00D+00 BMatC= 1.70D-05 BMatP= 5.02D-04
 IDIUse=1 WtCom= 1.00D+00 WtEn= 0.00D+00
 Coeff-Com: -0.610D-02 0.364D-02 0.658D-01 0.173D+00 0.764D+00
 Coeff:     -0.610D-02 0.364D-02 0.658D-01 0.173D+00 0.764D+00
 Gap=     0.198 Goal=   None    Shift=    0.000
 RMSDP=1.39D-04 MaxDP=1.44D-03 DE=-5.40D-04 OVMax= 3.14D-03

 Cycle   6  Pass 1  IDiag  1:
 E= -255.189722849332     Delta-E=       -0.000015176117 Rises=F Damp=F
 DIIS: error= 2.62D-04 at cycle   6 NSaved=   6.
 NSaved= 6 IEnMin= 6 EnMin= -255.189722849332     IErMin= 6 ErrMin= 2.62D-04
 ErrMax= 2.62D-04  0.00D+00 EMaxC= 1.00D+00 BMatC= 3.90D-06 BMatP= 1.70D-05
 IDIUse=1 WtCom= 1.00D+00 WtEn= 0.00D+00
 Coeff-Com: -0.215D-02-0.143D-03 0.133D-01 0.849D-01 0.471D+00 0.433D+00
 Coeff:     -0.215D-02-0.143D-03 0.133D-01 0.849D-01 0.471D+00 0.433D+00
 Gap=     0.198 Goal=   None    Shift=    0.000
 RMSDP=4.65D-05 MaxDP=6.40D-04 DE=-1.52D-05 OVMax= 1.29D-03

 Cycle   7  Pass 1  IDiag  1:
 E= -255.189727101862     Delta-E=       -0.000004252531 Rises=F Damp=F
 DIIS: error= 6.89D-05 at cycle   7 NSaved=   7.
 NSaved= 7 IEnMin= 7 EnMin= -255.189727101862     IErMin= 7 ErrMin= 6.89D-05
 ErrMax= 6.89D-05  0.00D+00 EMaxC= 1.00D+00 BMatC= 1.96D-07 BMatP= 3.90D-06
 IDIUse=1 WtCom= 1.00D+00 WtEn= 0.00D+00
 Coeff-Com: -0.274D-03-0.430D-03-0.226D-02 0.157D-01 0.112D+00 0.213D+00
 Coeff-Com:  0.662D+00
 Coeff:     -0.274D-03-0.430D-03-0.226D-02 0.157D-01 0.112D+00 0.213D+00
 Coeff:      0.662D+00
 Gap=     0.198 Goal=   None    Shift=    0.000
 RMSDP=1.16D-05 MaxDP=1.71D-04 DE=-4.25D-06 OVMax= 2.31D-04

 Cycle   8  Pass 1  IDiag  1:
 E= -255.189727303546     Delta-E=       -0.000000201684 Rises=F Damp=F
 DIIS: error= 1.75D-05 at cycle   8 NSaved=   8.
 NSaved= 8 IEnMin= 8 EnMin= -255.189727303546     IErMin= 8 ErrMin= 1.75D-05
 ErrMax= 1.75D-05  0.00D+00 EMaxC= 1.00D+00 BMatC= 2.79D-08 BMatP= 1.96D-07
 IDIUse=1 WtCom= 1.00D+00 WtEn= 0.00D+00
 Coeff-Com:  0.147D-03-0.199D-03-0.328D-02-0.385D-02-0.846D-02 0.551D-01
 Coeff-Com:  0.350D+00 0.610D+00
 Coeff:      0.147D-03-0.199D-03-0.328D-02-0.385D-02-0.846D-02 0.551D-01
 Coeff:      0.350D+00 0.610D+00
 Gap=     0.198 Goal=   None    Shift=    0.000
 RMSDP=4.93D-06 MaxDP=6.90D-05 DE=-2.02D-07 OVMax= 6.14D-05

 Cycle   9  Pass 1  IDiag  1:
 E= -255.189727334195     Delta-E=       -0.000000030648 Rises=F Damp=F
 DIIS: error= 1.12D-06 at cycle   9 NSaved=   9.
 NSaved= 9 IEnMin= 9 EnMin= -255.189727334195     IErMin= 9 ErrMin= 1.12D-06
 ErrMax= 1.12D-06  0.00D+00 EMaxC= 1.00D+00 BMatC= 1.39D-10 BMatP= 2.79D-08
 IDIUse=1 WtCom= 1.00D+00 WtEn= 0.00D+00
 Coeff-Com:  0.217D-04-0.293D-05-0.235D-03-0.767D-03-0.479D-02-0.495D-02
 Coeff-Com:  0.143D-01 0.599D-01 0.936D+00
 Coeff:      0.217D-04-0.293D-05-0.235D-03-0.767D-03-0.479D-02-0.495D-02
 Coeff:      0.143D-01 0.599D-01 0.936D+00
 Gap=     0.198 Goal=   None    Shift=    0.000
 RMSDP=1.19D-06 MaxDP=1.39D-05 DE=-3.06D-08 OVMax= 5.79D-06

 Cycle  10  Pass 1  IDiag  1:
 E= -255.189727334413     Delta-E=       -0.000000000218 Rises=F Damp=F
 DIIS: error= 3.30D-07 at cycle  10 NSaved=  10.
 NSaved=10 IEnMin=10 EnMin= -255.189727334413     IErMin=10 ErrMin= 3.30D-07
 ErrMax= 3.30D-07  0.00D+00 EMaxC= 1.00D+00 BMatC= 1.05D-11 BMatP= 1.39D-10
 IDIUse=1 WtCom= 1.00D+00 WtEn= 0.00D+00
 Coeff-Com:  0.534D-05 0.229D-05-0.215D-04-0.209D-03-0.164D-02-0.274D-02
 Coeff-Com: -0.153D-02 0.120D-01 0.355D+00 0.639D+00
 Coeff:      0.534D-05 0.229D-05-0.215D-04-0.209D-03-0.164D-02-0.274D-02
 Coeff:     -0.153D-02 0.120D-01 0.355D+00 0.639D+00
 Gap=     0.198 Goal=   None    Shift=    0.000
 RMSDP=1.21D-07 MaxDP=3.08D-06 DE=-2.18D-10 OVMax= 1.04D-06

 Cycle  11  Pass 1  IDiag  1:
 E= -255.189727334420     Delta-E=       -0.000000000008 Rises=F Damp=F
 DIIS: error= 2.06D-07 at cycle  11 NSaved=  11.
 NSaved=11 IEnMin=11 EnMin= -255.189727334420     IErMin=11 ErrMin= 2.06D-07
 ErrMax= 2.06D-07  0.00D+00 EMaxC= 1.00D+00 BMatC= 4.16D-12 BMatP= 1.05D-11
 IDIUse=1 WtCom= 1.00D+00 WtEn= 0.00D+00
 Coeff-Com:  0.268D-06 0.134D-05 0.149D-04-0.170D-04-0.235D-03-0.617D-03
 Coeff-Com: -0.250D-02-0.112D-02 0.581D-01 0.408D+00 0.539D+00
 Coeff:      0.268D-06 0.134D-05 0.149D-04-0.170D-04-0.235D-03-0.617D-03
 Coeff:     -0.250D-02-0.112D-02 0.581D-01 0.408D+00 0.539D+00
 Gap=     0.198 Goal=   None    Shift=    0.000
 RMSDP=4.63D-08 MaxDP=5.53D-07 DE=-7.62D-12 OVMax= 9.75D-07

 Cycle  12  Pass 1  IDiag  1:
 E= -255.189727334422     Delta-E=       -0.000000000002 Rises=F Damp=F
 DIIS: error= 1.59D-08 at cycle  12 NSaved=  12.
 NSaved=12 IEnMin=12 EnMin= -255.189727334422     IErMin=12 ErrMin= 1.59D-08
 ErrMax= 1.59D-08  0.00D+00 EMaxC= 1.00D+00 BMatC= 1.84D-14 BMatP= 4.16D-12
 IDIUse=1 WtCom= 1.00D+00 WtEn= 0.00D+00
 Coeff-Com: -0.151D-06 0.117D-06 0.382D-05 0.278D-05 0.233D-04-0.332D-04
 Coeff-Com: -0.356D-03-0.741D-03-0.245D-02 0.454D-01 0.810D-01 0.877D+00
 Coeff:     -0.151D-06 0.117D-06 0.382D-05 0.278D-05 0.233D-04-0.332D-04
 Coeff:     -0.356D-03-0.741D-03-0.245D-02 0.454D-01 0.810D-01 0.877D+00
 Gap=     0.198 Goal=   None    Shift=    0.000
 RMSDP=1.27D-08 MaxDP=2.96D-07 DE=-1.82D-12 OVMax= 1.21D-07

 Cycle  13  Pass 1  IDiag  1:
 E= -255.189727334421     Delta-E=        0.000000000001 Rises=F Damp=F
 DIIS: error= 2.05D-09 at cycle  13 NSaved=  13.
 NSaved=13 IEnMin=12 EnMin= -255.189727334422     IErMin=13 ErrMin= 2.05D-09
 ErrMax= 2.05D-09  0.00D+00 EMaxC= 1.00D+00 BMatC= 3.29D-16 BMatP= 1.84D-14
 IDIUse=1 WtCom= 1.00D+00 WtEn= 0.00D+00
 Coeff-Com: -0.242D-07-0.128D-07 0.192D-06 0.772D-06 0.637D-05 0.100D-04
 Coeff-Com: -0.196D-05-0.444D-04-0.135D-02-0.369D-02 0.213D-02 0.867D-01
 Coeff-Com:  0.916D+00
 Coeff:     -0.242D-07-0.128D-07 0.192D-06 0.772D-06 0.637D-05 0.100D-04
 Coeff:     -0.196D-05-0.444D-04-0.135D-02-0.369D-02 0.213D-02 0.867D-01
 Coeff:      0.916D+00
 Gap=     0.198 Goal=   None    Shift=    0.000
 RMSDP=2.12D-09 MaxDP=4.01D-08 DE= 1.02D-12 OVMax= 9.17D-09

 SCF Done:  E(RB3LYP) =  -255.189727334     A.U. after   13 cycles
            NFock= 13  Conv=0.21D-08     -V/T= 2.0059
 KE= 2.536913100300D+02 PE=-9.125598486063D+02 EE= 2.462188710034D+02
 Leave Link  502 at Tue May 11 16:53:01 2021, MaxMem=  2147483648 cpu:        16.1
 (Enter /opt/cluster/programs/g09_d.01/g09/l701.exe)
 Compute integral first derivatives.
 ... and contract with generalized density number  0.
 Leave Link  701 at Tue May 11 16:53:01 2021, MaxMem=  2147483648 cpu:         0.6
 (Enter /opt/cluster/programs/g09_d.01/g09/l702.exe)
 L702 exits ... SP integral derivatives will be done elsewhere.
 Leave Link  702 at Tue May 11 16:53:01 2021, MaxMem=  2147483648 cpu:         0.2
 (Enter /opt/cluster/programs/g09_d.01/g09/l703.exe)
 Compute integral first derivatives, UseDBF=F ICtDFT=           0.
 Integral derivatives from FoFJK, PRISM(SPDF).
 Calling FoFJK, ICntrl=      2127 FMM=F ISym2X=0 I1Cent= 0 IOpClX= 0 NMat=1 NMatS=1 NMatT=0.
 FoFJK:  IHMeth= 1 ICntrl=    2127 DoSepK=F KAlg= 0 I1Cent=   0 FoldK=F
 IRaf=         0 NMat=   1 IRICut=       1 DoRegI=T DoRafI=F ISym2E= 0.
 FoFCou: FMM=F IPFlag=           0 FMFlag=      100000 FMFlg1=         800
         NFxFlg=           0 DoJE=F BraDBF=F KetDBF=F FulRan=T
         wScrn=  0.000000 ICntrl=    2127 IOpCl=  0 I1Cent=           0 NGrid=           0
         NMat0=    1 NMatS0=      1 NMatT0=    0 NMatD0=    1 NMtDS0=    0 NMtDT0=    0
 Symmetry not used in FoFCou.
 Leave Link  703 at Tue May 11 16:53:02 2021, MaxMem=  2147483648 cpu:         2.4
 (Enter /opt/cluster/programs/g09_d.01/g09/l716.exe)
 Dipole        = 1.41029268D-01-8.22778932D-01 9.13237075D-02
 ***** Axes restored to original set *****
 -------------------------------------------------------------------
 Center     Atomic                   Forces (Hartrees/Bohr)
 Number     Number              X              Y              Z
 -------------------------------------------------------------------
      1        6           0.000089551   -0.000531086   -0.004899622
      2        6          -0.000927195   -0.002162121    0.010713186
      3        6           0.002469411   -0.001824945    0.008268105
      4        6          -0.000839528    0.001513200   -0.003514447
      5        1           0.000284387    0.000047146    0.000704957
      6        1          -0.000423385    0.000306159   -0.001825478
      7        9           0.000663910    0.001985438   -0.004300334
      8        1          -0.001167553    0.000543165   -0.004017327
      9        1          -0.000023535    0.000146612   -0.001029027
     10        1          -0.000126063   -0.000023568   -0.000100014
 -------------------------------------------------------------------
 Cartesian Forces:  Max     0.010713186 RMS     0.003075194
 Leave Link  716 at Tue May 11 16:53:02 2021, MaxMem=  2147483648 cpu:         0.2
 (Enter /opt/cluster/programs/g09_d.01/g09/l103.exe)

 GradGradGradGradGradGradGradGradGradGradGradGradGradGradGradGradGradGrad
 Berny optimization.
 FormGI is forming the generalized inverse of G from B-inverse, IUseBI=4.
 Internal  Forces:  Max     0.006055674 RMS     0.001946298
 Search for a local minimum.
 Step number   1 out of a maximum of   43 on scan point     2 out of    18
 All quantities printed in internal units (Hartrees-Bohrs-Radians)
 RMS Force = .12574D-02 SwitMx=.10000D-02 MixMth= 1
 Mixed Optimization -- RFO/linear search
 Second derivative matrix not updated -- first step.
 ITU=  0
     Eigenvalues ---    0.01794   0.02205   0.02816   0.02816   0.02913
     Eigenvalues ---    0.02913   0.15861   0.16000   0.16000   0.16000
     Eigenvalues ---    0.16000   0.22037   0.24802   0.25000   0.35067
     Eigenvalues ---    0.35427   0.35434   0.35559   0.35699   0.37683
     Eigenvalues ---    0.42377   0.56087   0.577191000.000001000.00000
     Eigenvalues --- 1000.000001000.000001000.000001000.000001000.00000
     Eigenvalues --- 1000.000001000.000001000.00000
 RFO step:  Lambda=-1.78955511D-03 EMin= 1.79402185D-02
 Linear search not attempted -- first point.
 Iteration  1 RMS(Cart)=  0.04672377 RMS(Int)=  0.00239854
 Iteration  2 RMS(Cart)=  0.00218266 RMS(Int)=  0.00058660
 Iteration  3 RMS(Cart)=  0.00000138 RMS(Int)=  0.00058660
 Iteration  4 RMS(Cart)=  0.00000000 RMS(Int)=  0.00058660
 Iteration  1 RMS(Cart)=  0.00006393 RMS(Int)=  0.00004440
 Iteration  2 RMS(Cart)=  0.00003261 RMS(Int)=  0.00004964
 Iteration  3 RMS(Cart)=  0.00001663 RMS(Int)=  0.00005564
 Iteration  4 RMS(Cart)=  0.00000849 RMS(Int)=  0.00005929
 Iteration  5 RMS(Cart)=  0.00000433 RMS(Int)=  0.00006129
 Iteration  6 RMS(Cart)=  0.00000221 RMS(Int)=  0.00006233
 Iteration  7 RMS(Cart)=  0.00000113 RMS(Int)=  0.00006287
 Iteration  8 RMS(Cart)=  0.00000057 RMS(Int)=  0.00006315
 ITry= 1 IFail=0 DXMaxC= 1.74D-01 DCOld= 1.00D+10 DXMaxT= 3.00D-01 DXLimC= 3.00D+00 Rises=F
 Variable       Old X    -DE/DX   Delta X   Delta X   Delta X     New X
                                 (Linear)    (Quad)   (Total)
    R1        2.52996  -0.00043   0.00000  -0.00074  -0.00074   2.52922
    R2        2.04582  -0.00010   0.00000  -0.00027  -0.00027   2.04554
    R3        2.04841  -0.00016   0.00000  -0.00044  -0.00044   2.04796
    R4        2.74828   0.00029   0.00000   0.00077   0.00077   2.74905
    R5        2.68443   0.00091   0.00000   0.00214   0.00214   2.68657
    R6        2.54392  -0.00058   0.00000  -0.00103  -0.00103   2.54289
    R7        2.05568   0.00008   0.00000   0.00022   0.00022   2.05591
    R8        2.05053  -0.00015   0.00000  -0.00043  -0.00043   2.05009
    R9        2.05007  -0.00010   0.00000  -0.00029  -0.00029   2.04978
    A1        2.11935  -0.00023   0.00000  -0.00144  -0.00159   2.11775
    A2        2.09924   0.00015   0.00000   0.00094   0.00079   2.10003
    A3        2.06460   0.00008   0.00000   0.00049   0.00034   2.06494
    A4        2.24593   0.00054   0.00000   0.00631   0.00465   2.25058
    A5        2.03637   0.00253   0.00000   0.01372   0.01208   2.04844
    A6        1.98891  -0.00234   0.00000  -0.00458  -0.00626   1.98264
    A7        2.17967   0.00023   0.00000   0.00288   0.00201   2.18168
    A8        2.00292  -0.00110   0.00000  -0.00268  -0.00357   1.99935
    A9        2.08829   0.00150   0.00000   0.01112   0.01028   2.09857
   A10        2.12644   0.00000   0.00000   0.00002  -0.00012   2.12632
   A11        2.11063  -0.00010   0.00000  -0.00059  -0.00073   2.10989
   A12        2.04612   0.00009   0.00000   0.00057   0.00043   2.04654
    D1        3.05295   0.00192   0.00000   0.03550   0.03585   3.08880
    D2        0.08853  -0.00321   0.00000  -0.07740  -0.07776   0.01077
    D3       -0.08867   0.00089   0.00000   0.00222   0.00258  -0.08610
    D4       -3.05310  -0.00424   0.00000  -0.11068  -0.11103   3.11906
    D5       -2.79234  -0.00606   0.00000   0.00000   0.00000  -2.79233
    D6        0.17994  -0.00163   0.00000   0.07827   0.07818   0.25812
    D7        0.17606  -0.00064   0.00000   0.11188   0.11160   0.28766
    D8       -3.13485   0.00379   0.00000   0.19015   0.18978  -2.94507
    D9       -0.08856   0.00130   0.00000   0.01047   0.01072  -0.07784
   D10        3.05298   0.00227   0.00000   0.04292   0.04317   3.09615
   D11       -3.05315  -0.00309   0.00000  -0.07006  -0.07031  -3.12346
   D12        0.08839  -0.00212   0.00000  -0.03761  -0.03786   0.05053
         Item               Value     Threshold  Converged?
 Maximum Force            0.003877     0.000450     NO 
 RMS     Force            0.001257     0.000300     NO 
 Maximum Displacement     0.173821     0.001800     NO 
 RMS     Displacement     0.046791     0.001200     NO 
 Predicted change in Energy=-9.769361D-04
 Lowest energy point so far.  Saving SCF results.
 GradGradGradGradGradGradGradGradGradGradGradGradGradGradGradGradGradGrad

 Leave Link  103 at Tue May 11 16:53:02 2021, MaxMem=  2147483648 cpu:         0.1
 (Enter /opt/cluster/programs/g09_d.01/g09/l202.exe)
                          Input orientation:                          
 ---------------------------------------------------------------------
 Center     Atomic      Atomic             Coordinates (Angstroms)
 Number     Number       Type             X           Y           Z
 ---------------------------------------------------------------------
      1          6           0       -4.736980    0.608674    0.103369
      2          6           0       -3.716113    1.465332   -0.020310
      3          6           0       -2.305244    1.181994   -0.233441
      4          6           0       -1.298591    2.036390    0.026194
      5          1           0       -5.741506    0.955819    0.308619
      6          1           0       -4.578221   -0.454838   -0.031609
      7          9           0       -4.000574    2.848777    0.141888
      8          1           0       -2.091409    0.163072   -0.549167
      9          1           0       -1.482060    3.052687    0.358468
     10          1           0       -0.265301    1.740093   -0.119011
 ---------------------------------------------------------------------
                    Distance matrix (angstroms):
                    1          2          3          4          5
     1  C    0.000000
     2  C    1.338405   0.000000
     3  C    2.521007   1.454736   0.000000
     4  C    3.723821   2.484488   1.345642   0.000000
     5  H    1.082456   2.114241   3.486098   4.581145   0.000000
     6  H    1.083735   2.104855   2.808270   4.118924   1.859823
     7  F    2.358354   1.421670   2.406903   2.823839   2.577195
     8  H    2.761052   2.148310   1.087939   2.113982   3.832421
     9  H    4.078330   2.766616   2.127788   1.084862   4.747865
    10  H    4.617951   3.463140   2.118003   1.084696   5.548583
                    6          7          8          9         10
     6  H    0.000000
     7  F    3.358221   0.000000
     8  H    2.614176   3.366821   0.000000
     9  H    4.694796   2.536021   3.089496   0.000000
    10  H    4.840108   3.905062   2.450857   1.852401   0.000000
 Stoichiometry    C4H5F
 Framework group  C1[X(C4H5F)]
 Deg. of freedom    24
 Full point group                 C1      NOp   1
 RotChk:  IX=0 Diff= 5.90D-02
 Largest Abelian subgroup         C1      NOp   1
 Largest concise Abelian subgroup C1      NOp   1
                         Standard orientation:                         
 ---------------------------------------------------------------------
 Center     Atomic      Atomic             Coordinates (Angstroms)
 Number     Number       Type             X           Y           Z
 ---------------------------------------------------------------------
      1          6           0       -1.706414   -0.684785    0.098043
      2          6           0       -0.519413   -0.083767   -0.047327
      3          6           0        0.804655   -0.681247   -0.125548
      4          6           0        1.959652   -0.031564    0.108218
      5          1           0       -2.620054   -0.111696    0.190459
      6          1           0       -1.776141   -1.766271    0.094902
      7          9           0       -0.504097    1.337744   -0.062099
      8          1           0        0.806633   -1.753627   -0.308876
      9          1           0        1.985953    1.033964    0.310420
     10          1           0        2.909606   -0.553883    0.071676
 ---------------------------------------------------------------------
 Rotational constants (GHZ):      9.4798498      4.1771528      2.9256303
 Leave Link  202 at Tue May 11 16:53:02 2021, MaxMem=  2147483648 cpu:         0.0
 (Enter /opt/cluster/programs/g09_d.01/g09/l301.exe)
 Standard basis: 6-31+G (6D, 7F)
 Ernie: Thresh=  0.10000D-02 Tol=  0.10000D-05 Strict=F.
 There are    75 symmetry adapted cartesian basis functions of A   symmetry.
 There are    75 symmetry adapted basis functions of A   symmetry.
    75 basis functions,   150 primitive gaussians,    75 cartesian basis functions
    19 alpha electrons       19 beta electrons
       nuclear repulsion energy       157.3422566382 Hartrees.
 IExCor=  402 DFT=T Ex+Corr=B3LYP ExCW=0 ScaHFX=  0.200000
 ScaDFX=  0.800000  0.720000  1.000000  0.810000 ScalE2=  1.000000  1.000000
 IRadAn=      0 IRanWt=     -1 IRanGd=            0 ICorTp=0 IEmpDi=  4
 NAtoms=   10 NActive=   10 NUniq=   10 SFac= 1.00D+00 NAtFMM=   60 NAOKFM=F Big=F
 Integral buffers will be    131072 words long.
 Raffenetti 2 integral format.
 Two-electron integral symmetry is turned on.
 Leave Link  301 at Tue May 11 16:53:02 2021, MaxMem=  2147483648 cpu:         0.3
 (Enter /opt/cluster/programs/g09_d.01/g09/l302.exe)
 NPDir=0 NMtPBC=     1 NCelOv=     1 NCel=       1 NClECP=     1 NCelD=      1
         NCelK=      1 NCelE2=     1 NClLst=     1 CellRange=     0.0.
 One-electron integrals computed using PRISM.
 NBasis=    75 RedAO= T EigKep=  3.69D-05  NBF=    75
 NBsUse=    75 1.00D-06 EigRej= -1.00D+00 NBFU=    75
 Precomputing XC quadrature grid using
 IXCGrd= 4 IRadAn=           0 IRanWt=          -1 IRanGd=           0 AccXCQ= 0.00D+00.
 Generated NRdTot=       0 NPtTot=           0 NUsed=           0 NTot=          32
 NSgBfM=    75    75    75    75    75 MxSgAt=    10 MxSgA2=    10.
 Leave Link  302 at Tue May 11 16:53:02 2021, MaxMem=  2147483648 cpu:         0.8
 (Enter /opt/cluster/programs/g09_d.01/g09/l303.exe)
 DipDrv:  MaxL=1.
 Leave Link  303 at Tue May 11 16:53:02 2021, MaxMem=  2147483648 cpu:         0.2
 (Enter /opt/cluster/programs/g09_d.01/g09/l401.exe)
 Initial guess from the checkpoint file:  "/home/unibas/boittier/RDKit_G2/B.pdb/SCAN_1_2_3_4_S_17_20.0/B.pdb.chk"
 B after Tr=     0.000000    0.000000    0.000000
         Rot=    1.000000   -0.000784   -0.000019    0.000239 Ang=  -0.09 deg.
 Guess basis will be translated and rotated to current coordinates.
 JPrj=2 DoOrth=T DoCkMO=T.
 Generating alternative initial guess.
 ExpMin= 4.38D-02 ExpMax= 7.00D+03 ExpMxC= 1.05D+03 IAcc=2 IRadAn=         4 AccDes= 0.00D+00
 Harris functional with IExCor=  402 and IRadAn=       4 diagonalized for initial guess.
 HarFok:  IExCor=  402 AccDes= 0.00D+00 IRadAn=         4 IDoV= 1 UseB2=F ITyADJ=14
 ICtDFT=  3500011 ScaDFX=  1.000000  1.000000  1.000000  1.000000
 FoFCou: FMM=F IPFlag=           0 FMFlag=      100000 FMFlg1=           0
         NFxFlg=           0 DoJE=T BraDBF=F KetDBF=T FulRan=T
         wScrn=  0.000000 ICntrl=     500 IOpCl=  0 I1Cent=   200000004 NGrid=           0
         NMat0=    1 NMatS0=      1 NMatT0=    0 NMatD0=    1 NMtDS0=    0 NMtDT0=    0
 Petite list used in FoFCou.
 Harris En= -255.208038968829    
 Leave Link  401 at Tue May 11 16:53:02 2021, MaxMem=  2147483648 cpu:         1.6
 (Enter /opt/cluster/programs/g09_d.01/g09/l502.exe)
 Closed shell SCF:
 Using DIIS extrapolation, IDIIS=  1040.
 Integral symmetry usage will be decided dynamically.
 Keep R1 ints in memory in canonical form, NReq=4993487.
 IVT=       36600 IEndB=       36600 NGot=  2147483648 MDV=  2143384374
 LenX=  2143384374 LenY=  2143378308
 Requested convergence on RMS density matrix=1.00D-08 within 128 cycles.
 Requested convergence on MAX density matrix=1.00D-06.
 Requested convergence on             energy=1.00D-06.
 No special actions if energy rises.
 FoFCou: FMM=F IPFlag=           0 FMFlag=           0 FMFlg1=           0
         NFxFlg=           0 DoJE=F BraDBF=F KetDBF=F FulRan=T
         wScrn=  0.000000 ICntrl=     600 IOpCl=  0 I1Cent=           0 NGrid=           0
         NMat0=    1 NMatS0=   2850 NMatT0=    0 NMatD0=    1 NMtDS0=    0 NMtDT0=    0
 Symmetry not used in FoFCou.

 Cycle   1  Pass 1  IDiag  1:
 E= -255.186472711212    
 DIIS: error= 3.25D-03 at cycle   1 NSaved=   1.
 NSaved= 1 IEnMin= 1 EnMin= -255.186472711212     IErMin= 1 ErrMin= 3.25D-03
 ErrMax= 3.25D-03  0.00D+00 EMaxC= 1.00D-01 BMatC= 1.52D-03 BMatP= 1.52D-03
 IDIUse=3 WtCom= 9.68D-01 WtEn= 3.25D-02
 Coeff-Com:  0.100D+01
 Coeff-En:   0.100D+01
 Coeff:      0.100D+01
 Gap=     0.420 Goal=   None    Shift=    0.000
 GapD=    0.420 DampG=2.000 DampE=1.000 DampFc=2.0000 IDamp=-1.
 RMSDP=3.85D-03 MaxDP=6.37D-02              OVMax= 2.96D-02

 Cycle   2  Pass 1  IDiag  1:
 E= -255.190374179959     Delta-E=       -0.003901468747 Rises=F Damp=F
 DIIS: error= 4.37D-04 at cycle   2 NSaved=   2.
 NSaved= 2 IEnMin= 2 EnMin= -255.190374179959     IErMin= 2 ErrMin= 4.37D-04
 ErrMax= 4.37D-04  0.00D+00 EMaxC= 1.00D-01 BMatC= 2.02D-05 BMatP= 1.52D-03
 IDIUse=3 WtCom= 9.96D-01 WtEn= 4.37D-03
 Coeff-Com: -0.805D-01 0.108D+01
 Coeff-En:   0.000D+00 0.100D+01
 Coeff:     -0.802D-01 0.108D+01
 Gap=     0.199 Goal=   None    Shift=    0.000
 RMSDP=3.02D-04 MaxDP=4.92D-03 DE=-3.90D-03 OVMax= 5.43D-03

 Cycle   3  Pass 1  IDiag  1:
 E= -255.190430595389     Delta-E=       -0.000056415430 Rises=F Damp=F
 DIIS: error= 4.03D-04 at cycle   3 NSaved=   3.
 NSaved= 3 IEnMin= 3 EnMin= -255.190430595389     IErMin= 3 ErrMin= 4.03D-04
 ErrMax= 4.03D-04  0.00D+00 EMaxC= 1.00D-01 BMatC= 1.05D-05 BMatP= 2.02D-05
 IDIUse=3 WtCom= 9.96D-01 WtEn= 4.03D-03
 Coeff-Com: -0.435D-01 0.521D+00 0.522D+00
 Coeff-En:   0.000D+00 0.000D+00 0.100D+01
 Coeff:     -0.433D-01 0.519D+00 0.524D+00
 Gap=     0.199 Goal=   None    Shift=    0.000
 RMSDP=1.11D-04 MaxDP=1.44D-03 DE=-5.64D-05 OVMax= 2.98D-03

 Cycle   4  Pass 1  IDiag  1:
 E= -255.190439226075     Delta-E=       -0.000008630687 Rises=F Damp=F
 DIIS: error= 2.19D-04 at cycle   4 NSaved=   4.
 NSaved= 4 IEnMin= 4 EnMin= -255.190439226075     IErMin= 4 ErrMin= 2.19D-04
 ErrMax= 2.19D-04  0.00D+00 EMaxC= 1.00D-01 BMatC= 3.25D-06 BMatP= 1.05D-05
 IDIUse=3 WtCom= 9.98D-01 WtEn= 2.19D-03
 Coeff-Com: -0.308D-02 0.275D-03 0.356D+00 0.646D+00
 Coeff-En:   0.000D+00 0.000D+00 0.271D+00 0.729D+00
 Coeff:     -0.307D-02 0.274D-03 0.356D+00 0.647D+00
 Gap=     0.199 Goal=   None    Shift=    0.000
 RMSDP=5.22D-05 MaxDP=9.24D-04 DE=-8.63D-06 OVMax= 1.21D-03

 Cycle   5  Pass 1  IDiag  1:
 E= -255.190442956319     Delta-E=       -0.000003730243 Rises=F Damp=F
 DIIS: error= 2.99D-05 at cycle   5 NSaved=   5.
 NSaved= 5 IEnMin= 5 EnMin= -255.190442956319     IErMin= 5 ErrMin= 2.99D-05
 ErrMax= 2.99D-05  0.00D+00 EMaxC= 1.00D-01 BMatC= 8.13D-08 BMatP= 3.25D-06
 IDIUse=1 WtCom= 1.00D+00 WtEn= 0.00D+00
 Coeff-Com: -0.778D-04-0.169D-01 0.148D+00 0.302D+00 0.566D+00
 Coeff:     -0.778D-04-0.169D-01 0.148D+00 0.302D+00 0.566D+00
 Gap=     0.199 Goal=   None    Shift=    0.000
 RMSDP=1.00D-05 MaxDP=1.19D-04 DE=-3.73D-06 OVMax= 1.87D-04

 Cycle   6  Pass 1  IDiag  1:
 E= -255.190443033846     Delta-E=       -0.000000077527 Rises=F Damp=F
 DIIS: error= 1.92D-05 at cycle   6 NSaved=   6.
 NSaved= 6 IEnMin= 6 EnMin= -255.190443033846     IErMin= 6 ErrMin= 1.92D-05
 ErrMax= 1.92D-05  0.00D+00 EMaxC= 1.00D-01 BMatC= 1.96D-08 BMatP= 8.13D-08
 IDIUse=1 WtCom= 1.00D+00 WtEn= 0.00D+00
 Coeff-Com:  0.309D-03-0.100D-01 0.436D-01 0.998D-01 0.349D+00 0.517D+00
 Coeff:      0.309D-03-0.100D-01 0.436D-01 0.998D-01 0.349D+00 0.517D+00
 Gap=     0.199 Goal=   None    Shift=    0.000
 RMSDP=5.63D-06 MaxDP=1.31D-04 DE=-7.75D-08 OVMax= 6.81D-05

 Cycle   7  Pass 1  IDiag  1:
 E= -255.190443053077     Delta-E=       -0.000000019231 Rises=F Damp=F
 DIIS: error= 4.26D-06 at cycle   7 NSaved=   7.
 NSaved= 7 IEnMin= 7 EnMin= -255.190443053077     IErMin= 7 ErrMin= 4.26D-06
 ErrMax= 4.26D-06  0.00D+00 EMaxC= 1.00D-01 BMatC= 1.64D-09 BMatP= 1.96D-08
 IDIUse=1 WtCom= 1.00D+00 WtEn= 0.00D+00
 Coeff-Com:  0.176D-03-0.307D-02 0.136D-02 0.908D-02 0.111D+00 0.278D+00
 Coeff-Com:  0.604D+00
 Coeff:      0.176D-03-0.307D-02 0.136D-02 0.908D-02 0.111D+00 0.278D+00
 Coeff:      0.604D+00
 Gap=     0.199 Goal=   None    Shift=    0.000
 RMSDP=9.62D-07 MaxDP=1.46D-05 DE=-1.92D-08 OVMax= 1.47D-05

 Cycle   8  Pass 1  IDiag  1:
 E= -255.190443054763     Delta-E=       -0.000000001687 Rises=F Damp=F
 DIIS: error= 3.07D-07 at cycle   8 NSaved=   8.
 NSaved= 8 IEnMin= 8 EnMin= -255.190443054763     IErMin= 8 ErrMin= 3.07D-07
 ErrMax= 3.07D-07  0.00D+00 EMaxC= 1.00D-01 BMatC= 1.47D-11 BMatP= 1.64D-09
 IDIUse=1 WtCom= 1.00D+00 WtEn= 0.00D+00
 Coeff-Com:  0.229D-04-0.260D-03-0.163D-02-0.258D-02 0.111D-01 0.452D-01
 Coeff-Com:  0.145D+00 0.803D+00
 Coeff:      0.229D-04-0.260D-03-0.163D-02-0.258D-02 0.111D-01 0.452D-01
 Coeff:      0.145D+00 0.803D+00
 Gap=     0.199 Goal=   None    Shift=    0.000
 RMSDP=4.21D-07 MaxDP=9.03D-06 DE=-1.69D-09 OVMax= 2.30D-06

 Cycle   9  Pass 1  IDiag  1:
 E= -255.190443054782     Delta-E=       -0.000000000019 Rises=F Damp=F
 DIIS: error= 2.16D-07 at cycle   9 NSaved=   9.
 NSaved= 9 IEnMin= 9 EnMin= -255.190443054782     IErMin= 9 ErrMin= 2.16D-07
 ErrMax= 2.16D-07  0.00D+00 EMaxC= 1.00D-01 BMatC= 3.90D-12 BMatP= 1.47D-11
 IDIUse=1 WtCom= 1.00D+00 WtEn= 0.00D+00
 Coeff-Com:  0.780D-05-0.527D-04-0.931D-03-0.167D-02 0.256D-02 0.164D-01
[...]
           R3           1.08363   1.08363   1.08370   1.08373   1.08351
           R4           1.45433   1.45624   1.46254   1.47297   1.47832
           R5           1.42055   1.42171   1.42490   1.42925   1.43226
           R6           1.34505   1.34485   1.34413   1.34234   1.34075
           R7           1.08781   1.08798   1.08836   1.08879   1.08954
           R8           1.08474   1.08487   1.08539   1.08617   1.08659
           R9           1.08468   1.08474   1.08497   1.08545   1.08591
           A1         121.42171 121.38478 121.33221 121.33446 121.38987
           A2         120.24677 120.27000 120.30442 120.30953 120.20119
           A3         118.33152 118.34203 118.35448 118.34876 118.40806
           A4         128.90194 128.96283 129.17655 129.71545 130.47402
           A5         117.41747 117.34812 117.22522 117.26460 117.55200
           A6         113.68059 113.52491 113.12544 112.71022 111.94241
           A7         125.09417 124.92363 124.50187 123.81403 123.55569
           A8         114.45377 114.58498 114.99075 115.95755 116.27141
           A9         120.45205 120.34894 120.12828 120.02132 120.13703
           A10        121.80626 121.79073 121.84721 121.90858 121.82067
           A11        120.91814 120.93456 120.96549 121.11297 121.29845
           A12        117.27560 117.27058 117.17099 116.96215 116.88083
           D1         179.99553 176.68870 174.60172 176.20186-178.25680
           D2           0.00110   1.68582   3.10379   3.12201  -0.48743
           D3          -0.00187  -3.97156  -6.50136  -4.79353   2.08929
           D4         180.00370-178.97445-177.99928-177.87339 179.85866
           D5        -179.98900-159.98911-139.98901-119.98903 -99.98884
           D6           0.01148  15.66484  32.92092  54.76717  82.19218
           D7           0.00560  15.17033  31.79224  53.34382  82.14322
           D8        -179.99391-169.17573-155.29783-131.89998 -95.67575
           D9          -0.00344  -3.55208  -5.73231  -4.08365   1.39860
           D10        180.00197 177.20717 175.77819 177.43027-178.52019
           D11       -180.00395-178.97196-178.30040-178.63770 179.13714
           D12          0.00146   1.78729   3.21011   2.87622  -0.78165
                           6         7         8         9        10
     Eigenvalues --  -255.18235-255.18506-255.18692-255.18743-255.18735
           R1           1.33110   1.33295   1.33486   1.33547   1.33564
           R2           1.08357   1.08333   1.08303   1.08264   1.08252
           R3           1.08323   1.08313   1.08307   1.08321   1.08329
           R4           1.47312   1.46713   1.46250   1.46171   1.46192
           R5           1.43212   1.42922   1.42724   1.42609   1.42567
           R6           1.34146   1.34256   1.34412   1.34455   1.34473
           R7           1.08962   1.08895   1.08794   1.08718   1.08678
           R8           1.08649   1.08653   1.08646   1.08651   1.08653
           R9           1.08583   1.08544   1.08513   1.08472   1.08460
           A1         121.33904 121.33025 121.23261 121.16191 121.09793
           A2         120.17113 120.16081 120.31317 120.57881 120.76374
           A3         118.48530 118.50809 118.45311 118.25665 118.13833
           A4         130.85635 130.88218 131.11590 131.87751 132.31899
           A5         117.61874 117.72352 117.55888 117.25855 117.04799
           A6         111.24515 111.16136 111.24517 110.85631 110.63302
           A7         123.77614 123.98275 124.35986 125.37430 125.96563
           A8         115.71121 115.33690 115.17789 114.46529 114.09073
           A9         120.31746 120.54777 120.43275 120.15971 119.94364
           A10        121.73265 121.75535 121.99619 122.46165 122.77109
           A11        121.32140 121.29777 121.18950 120.96103 120.83423
           A12        116.94358 116.94617 116.81419 116.57595 116.39468
           D1        -176.46114-177.60838-179.56127 179.35948-180.00493
           D2          -3.13886  -3.70754  -3.13928  -1.75155  -0.01290
           D3           4.32438   2.73392   0.04907  -1.24032  -0.01231
           D4         177.64665 176.63476 176.47105 177.64865-180.02028
           D5         -79.98892 -59.98883 -39.98888 -19.98895   0.01114
           D6         105.08762 124.18905 141.98628 160.31652-179.97556
           D7         106.35794 125.79947 143.41424 161.06794-179.98128
           D8         -68.56551 -50.02265 -34.61060 -18.62658   0.03202
           D9           2.39800   0.52429  -1.55735  -2.01607  -0.00318
           D10       -178.17935-179.78908 178.56849 178.42406-179.99709
           D11        177.09883 176.13934 176.36948 177.66235-180.01720
           D12         -3.47852  -4.17402  -3.50468  -1.89752  -0.01111
                          11        12        13        14        15
     Eigenvalues --  -255.18743-255.18691-255.18505-255.18235-255.18058
           R1           1.33544   1.33466   1.33305   1.33107   1.33030
           R2           1.08263   1.08300   1.08327   1.08357   1.08356
           R3           1.08324   1.08312   1.08315   1.08322   1.08351
           R4           1.46168   1.46266   1.46660   1.47316   1.47822
           R5           1.42600   1.42700   1.42933   1.43216   1.43231
           R6           1.34455   1.34391   1.34284   1.34135   1.34084
           R7           1.08719   1.08800   1.08893   1.08965   1.08950
           R8           1.08653   1.08653   1.08651   1.08651   1.08655
           R9           1.08471   1.08508   1.08544   1.08582   1.08593
           A1         121.16467 121.24343 121.31668 121.33434 121.39729
           A2         120.58319 120.32084 120.14580 120.17543 120.18159
           A3         118.24943 118.43486 118.53677 118.48574 118.42027
           A4         131.86966 131.11539 130.82444 130.88682 130.47370
           A5         117.26096 117.59116 117.69866 117.62051 117.56174
           A6         110.86175 111.21312 111.24240 111.21225 111.93279
           A7         125.37809 124.40145 123.95267 123.79260 123.53790
           A8         114.46061 115.11182 115.41920 115.69862 116.28114
           A9         120.16072 120.45654 120.49590 120.31412 120.14376
           A10        122.46653 122.00865 121.76324 121.74541 121.81981
           A11        120.95762 121.17660 121.27441 121.32912 121.28165
           A12        116.57446 116.81457 116.96149 116.92317 116.89851
           D1        -179.36955 179.55664 177.60968 176.42762 178.24782
           D2           1.74157   3.14162   3.72411   3.11562   0.48588
           D3           1.24017  -0.09924  -2.71229  -4.35503  -2.09204
           D4        -177.64871-176.51426-176.59786-177.66703-179.85399
           D5          20.01105  40.01103  60.01110  80.01096 100.01093
           D6        -160.26852-141.98665-124.16301-105.05916 -82.20991
           D7        -161.04595-143.39697-125.79622-106.34413 -82.12789
           D8          18.67448  34.60535  50.02967  68.58574  95.65126
           D9           2.03030   1.52593  -0.56819  -2.39580  -1.44127
           D10       -178.41300-178.63118 179.77998 178.17205 178.48953
           D11       -177.67537-176.37561-176.19254-177.10295-179.13855
           D12          1.88132   3.46728   4.15564   3.46490   0.79225
                          16        17        18
     Eigenvalues --  -255.18238-255.18687-255.19052
           R1           1.33301   1.33597   1.33731
           R2           1.08320   1.08278   1.08259
           R3           1.08373   1.08370   1.08364
           R4           1.47300   1.46256   1.45642
           R5           1.42904   1.42487   1.42175
           R6           1.34232   1.34414   1.34486
           R7           1.08880   1.08834   1.08790
           R8           1.08619   1.08535   1.08485
           R9           1.08546   1.08499   1.08480
           A1         121.33393 121.34284 121.39082
           A2         120.30694 120.30184 120.28786
           A3         118.35182 118.34596 118.31901
           A4         129.68659 129.17830 128.97362
           A5         117.27530 117.21862 117.35240
           A6         112.72640 113.12714 113.51262
           A7         123.82151 124.49316 124.89882
           A8         115.94878 115.01026 114.57239
           A9         120.02085 120.11627 120.38664
           A10        121.91411 121.85018 121.80822
           A11        121.12066 120.96007 120.93164
           A12        116.94872 117.17171 117.25527
           D1        -176.18565-174.61638-176.64442
           D2          -3.12628  -3.14646  -1.59967
           D3           4.81423   6.51513   3.91781
           D4         177.87361 177.98506 178.96257
           D5         120.01112 140.01109 160.01095
           D6         -54.72298 -32.88689 -15.64932
           D7         -53.30185 -31.74251 -15.18967
           D8         131.96405 155.35951 169.15006
           D9           4.10321   5.77290   3.56365
           D10       -177.41984-175.81574-177.26114
           D11        178.63392 178.33055 178.98797
           D12         -2.88913  -3.25809  -1.83683
 Largest change from initial coordinates is atom    8       0.082 Angstoms.
 Leave Link  103 at Tue May 11 16:56:55 2021, MaxMem=  2147483648 cpu:         0.1
 (Enter /opt/cluster/programs/g09_d.01/g09/l202.exe)
                          Input orientation:                          
 ---------------------------------------------------------------------
 Center     Atomic      Atomic             Coordinates (Angstroms)
 Number     Number       Type             X           Y           Z
 ---------------------------------------------------------------------
      1          6           0       -4.849537    1.516941    0.387524
      2          6           0       -3.677033    1.139392   -0.133140
      3          6           0       -2.379333    1.793677   -0.038046
      4          6           0       -1.196084    1.190177   -0.248635
      5          1           0       -5.736001    0.904209    0.283908
      6          1           0       -4.933828    2.457147    0.919683
      7          9           0       -3.631847   -0.116060   -0.798842
      8          1           0       -2.417615    2.827878    0.297359
      9          1           0       -1.130760    0.155302   -0.567487
     10          1           0       -0.263963    1.729337   -0.117323
 ---------------------------------------------------------------------
                    Distance matrix (angstroms):
                    1          2          3          4          5
     1  C    0.000000
     2  C    1.337311   0.000000
     3  C    2.521825   1.456419   0.000000
     4  C    3.722794   2.484154   1.344856   0.000000
     5  H    1.082588   2.113905   3.487410   4.579981   0.000000
     6  H    1.083645   2.103438   2.807647   4.115933   1.859923
     7  F    2.357313   1.421745   2.407218   2.818142   2.576967
     8  H    2.764223   2.149988   1.087903   2.114785   3.835671
     9  H    4.073747   2.764163   2.126855   1.084849   4.742783
    10  H    4.618168   3.463717   2.117833   1.084798   5.548426
                    6          7          8          9         10
     6  H    0.000000
     7  F    3.357064   0.000000
     8  H    2.618407   3.367905   0.000000
     9  H    4.687589   2.526381   3.089760   0.000000
    10  H    4.838670   3.900334   2.452952   1.852450   0.000000
 Stoichiometry    C4H5F
 Framework group  C1[X(C4H5F)]
 Deg. of freedom    24
 Full point group                 C1      NOp   1
 RotChk:  IX=2 Diff= 9.78D-16
 Largest Abelian subgroup         C1      NOp   1
 Largest concise Abelian subgroup C1      NOp   1
                         Standard orientation:                         
 ---------------------------------------------------------------------
 Center     Atomic      Atomic             Coordinates (Angstroms)
 Number     Number       Type             X           Y           Z
 ---------------------------------------------------------------------
      1          6           0       -1.707564   -0.682043   -0.095278
      2          6           0       -0.520614   -0.084516    0.054764
      3          6           0        0.804817   -0.684321    0.122751
      4          6           0        1.957789   -0.030675   -0.105377
      5          1           0       -2.620873   -0.107583   -0.183923
      6          1           0       -1.775699   -1.763219   -0.121780
      7          9           0       -0.500735    1.337086    0.058374
      8          1           0        0.807281   -1.756432    0.307430
      9          1           0        1.980591    1.034831   -0.308049
     10          1           0        2.908749   -0.552045   -0.080200
 ---------------------------------------------------------------------
 Rotational constants (GHZ):      9.4880249      4.1815918      2.9279790
 Leave Link  202 at Tue May 11 16:56:55 2021, MaxMem=  2147483648 cpu:         0.0
 (Enter /opt/cluster/programs/g09_d.01/g09/l601.exe)
 Copying SCF densities to generalized density rwf, IOpCl= 0 IROHF=0.

 **********************************************************************

            Population analysis using the SCF density.

 **********************************************************************

 Orbital symmetries:
       Occupied  (A) (A) (A) (A) (A) (A) (A) (A) (A) (A) (A) (A)
                 (A) (A) (A) (A) (A) (A) (A)
       Virtual   (A) (A) (A) (A) (A) (A) (A) (A) (A) (A) (A) (A)
                 (A) (A) (A) (A) (A) (A) (A) (A) (A) (A) (A) (A)
                 (A) (A) (A) (A) (A) (A) (A) (A) (A) (A) (A) (A)
                 (A) (A) (A) (A) (A) (A) (A) (A) (A) (A) (A) (A)
                 (A) (A) (A) (A) (A) (A) (A) (A)
 The electronic state is 1-A.
 Alpha  occ. eigenvalues --  -24.70636 -10.29270 -10.21994 -10.20548 -10.20419
 Alpha  occ. eigenvalues --   -1.20772  -0.82930  -0.76739  -0.64110  -0.57484
 Alpha  occ. eigenvalues --   -0.51455  -0.50117  -0.45785  -0.44656  -0.42355
 Alpha  occ. eigenvalues --   -0.39832  -0.37802  -0.32869  -0.25526
 Alpha virt. eigenvalues --   -0.05557   0.00157   0.02057   0.03353   0.03739
 Alpha virt. eigenvalues --    0.05024   0.05886   0.06644   0.08397   0.08582
 Alpha virt. eigenvalues --    0.09648   0.10322   0.12207   0.13240   0.13798
 Alpha virt. eigenvalues --    0.15496   0.16019   0.17569   0.19769   0.21820
 Alpha virt. eigenvalues --    0.23006   0.23537   0.25067   0.30646   0.32430
 Alpha virt. eigenvalues --    0.33627   0.35316   0.37488   0.41087   0.41501
 Alpha virt. eigenvalues --    0.44663   0.61301   0.65504   0.68227   0.69840
 Alpha virt. eigenvalues --    0.73188   0.73985   0.75221   0.79142   0.82992
 Alpha virt. eigenvalues --    0.90400   0.93287   0.94602   1.01155   1.04277
 Alpha virt. eigenvalues --    1.05532   1.10769   1.16418   1.20105   1.25108
 Alpha virt. eigenvalues --    1.33152   1.37821   1.56769   1.72828   1.76449
 Alpha virt. eigenvalues --    2.28871
          Condensed to atoms (all electrons):
               1          2          3          4          5          6
     1  C    6.427734  -0.313949  -0.103273  -0.155971   0.412340   0.352985
     2  C   -0.313949   5.981860  -0.400734   0.272177  -0.081879  -0.038548
     3  C   -0.103273  -0.400734   6.444601   0.017780   0.023173   0.019248
     4  C   -0.155971   0.272177   0.017780   5.505301  -0.003117  -0.000976
     5  H    0.412340  -0.081879   0.023173  -0.003117   0.478228  -0.025316
     6  H    0.352985  -0.038548   0.019248  -0.000976  -0.025316   0.499131
     7  F   -0.169772   0.301024  -0.152559  -0.000214  -0.002671   0.004815
     8  H   -0.024415   0.024408   0.285795   0.003865   0.000115   0.001035
     9  H   -0.012733   0.006769  -0.097656   0.442501   0.000004  -0.000004
    10  H    0.001183   0.025546  -0.058440   0.376290   0.000001  -0.000003
               7          8          9         10
     1  C   -0.169772  -0.024415  -0.012733   0.001183
     2  C    0.301024   0.024408   0.006769   0.025546
     3  C   -0.152559   0.285795  -0.097656  -0.058440
     4  C   -0.000214   0.003865   0.442501   0.376290
     5  H   -0.002671   0.000115   0.000004   0.000001
     6  H    0.004815   0.001035  -0.000004  -0.000003
     7  F    9.340158   0.004364   0.001799   0.000324
     8  H    0.004364   0.519271   0.003434  -0.004833
     9  H    0.001799   0.003434   0.481675  -0.029710
    10  H    0.000324  -0.004833  -0.029710   0.513630
 Mulliken charges:
               1
     1  C   -0.414129
     2  C    0.223325
     3  C    0.022064
     4  C   -0.457637
     5  H    0.199122
     6  H    0.187633
     7  F   -0.327268
     8  H    0.186961
     9  H    0.203919
    10  H    0.176010
 Sum of Mulliken charges =   0.00000
 Mulliken charges with hydrogens summed into heavy atoms:
               1
     1  C   -0.027374
     2  C    0.223325
     3  C    0.209025
     4  C   -0.077708
     7  F   -0.327268
 Electronic spatial extent (au):  <R**2>=            426.8587
 Charge=              0.0000 electrons
 Dipole moment (field-independent basis, Debye):
    X=              0.3605    Y=             -2.0943    Z=             -0.1589  Tot=              2.1310
 Quadrupole moment (field-independent basis, Debye-Ang):
   XX=            -25.5045   YY=            -29.9600   ZZ=            -32.8584
   XY=              1.2617   XZ=              0.0883   YZ=             -0.6832
 Traceless Quadrupole moment (field-independent basis, Debye-Ang):
   XX=              3.9365   YY=             -0.5190   ZZ=             -3.4174
   XY=              1.2617   XZ=              0.0883   YZ=             -0.6832
 Octapole moment (field-independent basis, Debye-Ang**2):
  XXX=             -3.1601  YYY=              1.7541  ZZZ=              0.5239  XYY=              0.6028
  XXY=              2.0186  XXZ=             -1.9075  XZZ=             -1.6721  YZZ=              4.9364
  YYZ=              0.1592  XYZ=             -1.0379
 Hexadecapole moment (field-independent basis, Debye-Ang**3):
 XXXX=           -341.2432 YYYY=           -141.4528 ZZZZ=            -41.3264 XXXY=             -8.5208
 XXXZ=              0.6709 YYYX=              1.3502 YYYZ=             -1.3509 ZZZX=             -0.4650
 ZZZY=             -0.0017 XXYY=            -83.2328 XXZZ=            -79.3267 YYZZ=            -32.8646
 XXYZ=             -0.8176 YYXZ=              0.5453 ZZXY=             -2.2238
 N-N= 1.573798062145D+02 E-N=-9.124065424680D+02  KE= 2.536915765964D+02
 No NMR shielding tensors so no spin-rotation constants.
 Leave Link  601 at Tue May 11 16:56:55 2021, MaxMem=  2147483648 cpu:         0.6
 (Enter /opt/cluster/programs/g09_d.01/g09/l9999.exe)
 1\1\GINC-NODE10\Scan\RB3LYP\6-31+G\C4H5F1\BOITTIER\11-May-2021\0\\#p B
 3LYP/6-31+G Opt=ModRedun\\B.pdb\\0,1\C,-4.8495370669,1.516941099,0.387
 5241004\C,-3.6770325442,1.139391594,-0.1331401972\C,-2.3793330502,1.79
 36769983,-0.0380463292\C,-1.1960840955,1.1901765096,-0.2486348805\H,-5
 .7360014518,0.9042085631,0.2839078314\H,-4.9338275439,2.4571474758,0.9
 196826365\F,-3.6318470622,-0.1160598992,-0.7988419407\H,-2.4176151391,
 2.8278781431,0.2973585035\H,-1.1307595188,0.1553024829,-0.5674867367\H
 ,-0.2639625274,1.7293370333,-0.1173229875\\Version=ES64L-G09RevD.01\St
 ate=1-A\HF=-255.1918563,-255.1905147,-255.1868669,-255.1823795,-255.18
 05828,-255.1823528,-255.1850564,-255.1869157,-255.1874264,-255.1873506
 ,-255.1874264,-255.1869148,-255.1850541,-255.1823499,-255.1805823,-255
 .1823838,-255.1868719,-255.1905176\RMSD=3.597e-09,4.676e-09,8.215e-09,
 9.437e-09,4.628e-09,5.617e-09,4.988e-09,1.665e-09,9.806e-09,5.056e-09,
 4.244e-09,6.478e-09,4.927e-09,6.133e-09,6.078e-09,9.352e-09,1.000e-08,
 4.592e-09\PG=C01 [X(C4H5F1)]\\@


 Everything starts as somebody's daydream.
                           -- Larry Niven
 Job cpu time:       0 days  0 hours 19 minutes 51.5 seconds.
 File lengths (MBytes):  RWF=      6 Int=      0 D2E=      0 Chk=      3 Scr=      1
 Normal termination of Gaussian 09 at Tue May 11 16:56:56 2021.
