 Entering Gaussian System, Link 0=/opt/cluster/programs/g09_d.01/g09//g09
 Input=/home/unibas/boittier/RDKit_G2/O.pdb/SCAN_1_2_6_8_S_17_20.0/15_SCAN_1_2_6_8_F/15_SCAN_O.pdb.com
 Output=/scratch/boittier/15_SCAN_O.pdb/15_SCAN_O.pdb.out
 Initial command:
 /opt/cluster/programs/g09_d.01/g09/l1.exe "/scratch/boittier/15_SCAN_O.pdb/Gau-148910.inp" -scrdir="/scratch/boittier/15_SCAN_O.pdb/"
 Entering Link 1 = /opt/cluster/programs/g09_d.01/g09/l1.exe PID=    148911.
  
 Copyright (c) 1988,1990,1992,1993,1995,1998,2003,2009,2013,
            Gaussian, Inc.  All Rights Reserved.
  
 This is part of the Gaussian(R) 09 program.  It is based on
 the Gaussian(R) 03 system (copyright 2003, Gaussian, Inc.),
 the Gaussian(R) 98 system (copyright 1998, Gaussian, Inc.),
 the Gaussian(R) 94 system (copyright 1995, Gaussian, Inc.),
 the Gaussian 92(TM) system (copyright 1992, Gaussian, Inc.),
 the Gaussian 90(TM) system (copyright 1990, Gaussian, Inc.),
 the Gaussian 88(TM) system (copyright 1988, Gaussian, Inc.),
 the Gaussian 86(TM) system (copyright 1986, Carnegie Mellon
 University), and the Gaussian 82(TM) system (copyright 1983,
 Carnegie Mellon University). Gaussian is a federally registered
 trademark of Gaussian, Inc.
  
 This software contains proprietary and confidential information,
 including trade secrets, belonging to Gaussian, Inc.
  
 This software is provided under written license and may be
 used, copied, transmitted, or stored only in accord with that
 written license.
  
 The following legend is applicable only to US Government
 contracts under FAR:
  
                    RESTRICTED RIGHTS LEGEND
  
 Use, reproduction and disclosure by the US Government is
 subject to restrictions as set forth in subparagraphs (a)
 and (c) of the Commercial Computer Software - Restricted
 Rights clause in FAR 52.227-19.
  
 Gaussian, Inc.
 340 Quinnipiac St., Bldg. 40, Wallingford CT 06492
  
  
 ---------------------------------------------------------------
 Warning -- This program may not be used in any manner that
 competes with the business of Gaussian, Inc. or will provide
 assistance to any competitor of Gaussian, Inc.  The licensee
 of this program is prohibited from giving any competitor of
 Gaussian, Inc. access to this program.  By using this program,
 the user acknowledges that Gaussian, Inc. is engaged in the
 business of creating and licensing software in the field of
 computational chemistry and represents and warrants to the
 licensee that it is not a competitor of Gaussian, Inc. and that
 it will not use this program in any manner prohibited above.
 ---------------------------------------------------------------
  

 Cite this work as:
 Gaussian 09, Revision D.01,
 M. J. Frisch, G. W. Trucks, H. B. Schlegel, G. E. Scuseria, 
 M. A. Robb, J. R. Cheeseman, G. Scalmani, V. Barone, B. Mennucci, 
 G. A. Petersson, H. Nakatsuji, M. Caricato, X. Li, H. P. Hratchian, 
 A. F. Izmaylov, J. Bloino, G. Zheng, J. L. Sonnenberg, M. Hada, 
 M. Ehara, K. Toyota, R. Fukuda, J. Hasegawa, M. Ishida, T. Nakajima, 
 Y. Honda, O. Kitao, H. Nakai, T. Vreven, J. A. Montgomery, Jr., 
 J. E. Peralta, F. Ogliaro, M. Bearpark, J. J. Heyd, E. Brothers, 
 K. N. Kudin, V. N. Staroverov, T. Keith, R. Kobayashi, J. Normand, 
 K. Raghavachari, A. Rendell, J. C. Burant, S. S. Iyengar, J. Tomasi, 
 M. Cossi, N. Rega, J. M. Millam, M. Klene, J. E. Knox, J. B. Cross, 
 V. Bakken, C. Adamo, J. Jaramillo, R. Gomperts, R. E. Stratmann, 
 O. Yazyev, A. J. Austin, R. Cammi, C. Pomelli, J. W. Ochterski, 
 R. L. Martin, K. Morokuma, V. G. Zakrzewski, G. A. Voth, 
 P. Salvador, J. J. Dannenberg, S. Dapprich, A. D. Daniels, 
 O. Farkas, J. B. Foresman, J. V. Ortiz, J. Cioslowski, 
 and D. J. Fox, Gaussian, Inc., Wallingford CT, 2013.
 
 ******************************************
 Gaussian 09:  ES64L-G09RevD.01 24-Apr-2013
                26-May-2021 
 ******************************************
 %chk=/home/unibas/boittier/RDKit_G2/O.pdb/SCAN_1_2_6_8_S_17_20.0/15_SCAN_1_2_6_8
 _F/O.pdb.chk
 %nproc=8
 Will use up to    8 processors via shared memory.
 %mem=16GB
 -----------------------------
 #p wB97XD/6-31+G Opt=ModRedun
 -----------------------------
 1/14=-1,18=120,19=15,26=3,38=1/1,3;
 2/9=110,12=2,17=6,18=5,40=1/2;
 3/5=1,6=6,7=10,11=2,16=1,25=1,30=1,71=1,74=-58/1,2,3;
 4//1;
 5/5=2,38=5/2;
 6/7=2,8=2,9=2,10=2,28=1/1;
 7//1,2,3,16;
 1/14=-1,18=20,19=15,26=3/3(2);
 2/9=110/2;
 99//99;
 2/9=110/2;
 3/5=1,6=6,7=10,11=2,16=1,25=1,30=1,71=1,74=-58/1,2,3;
 4/5=5,16=3,69=1/1;
 5/5=2,38=5/2;
 7//1,2,3,16;
 1/14=-1,18=20,19=15,26=3/3(-5);
 2/9=110/2;
 6/7=2,8=2,9=2,10=2,19=2,28=1/1;
 99/9=1/99;
 Leave Link    1 at Wed May 26 09:01:16 2021, MaxMem=  2147483648 cpu:         0.2
 (Enter /opt/cluster/programs/g09_d.01/g09/l101.exe)
 -----
 O.pdb
 -----
 Symbolic Z-matrix:
 Charge =  0 Multiplicity = 1
 C                     1.59309  -0.78903   0.16642 
 C                     0.51365   0.20436  -0.13294 
 H                     1.32424  -1.3221    1.08546 
 H                     2.5477   -0.28224   0.30671 
 H                     1.66877  -1.53115  -0.63195 
 O                    -0.66633  -0.40087  -0.53409 
 O                     0.59689   1.41657   0.03387 
 C                    -1.86161  -0.17796   0.27742 
 H                    -1.75237  -0.70196   1.2312 
 H                    -2.68296  -0.60293  -0.2944 
 H                    -2.02068   0.89052   0.43931 
 
 The following ModRedundant input section has been read:
 D       1       2       6       8 F                                           
 
 NAtoms=     11 NQM=       11 NQMF=       0 NMMI=      0 NMMIF=      0
                NMic=       0 NMicF=      0.
                    Isotopes and Nuclear Properties:
 (Nuclear quadrupole moments (NQMom) in fm**2, nuclear magnetic moments (NMagM)
  in nuclear magnetons)

  Atom         1           2           3           4           5           6           7           8           9          10
 IAtWgt=          12          12           1           1           1          16          16          12           1           1
 AtmWgt=  12.0000000  12.0000000   1.0078250   1.0078250   1.0078250  15.9949146  15.9949146  12.0000000   1.0078250   1.0078250
 NucSpn=           0           0           1           1           1           0           0           0           1           1
 AtZEff=   0.0000000   0.0000000   0.0000000   0.0000000   0.0000000   0.0000000   0.0000000   0.0000000   0.0000000   0.0000000
 NQMom=    0.0000000   0.0000000   0.0000000   0.0000000   0.0000000   0.0000000   0.0000000   0.0000000   0.0000000   0.0000000
 NMagM=    0.0000000   0.0000000   2.7928460   2.7928460   2.7928460   0.0000000   0.0000000   0.0000000   2.7928460   2.7928460
 AtZNuc=   6.0000000   6.0000000   1.0000000   1.0000000   1.0000000   8.0000000   8.0000000   6.0000000   1.0000000   1.0000000

  Atom        11
 IAtWgt=           1
 AtmWgt=   1.0078250
 NucSpn=           1
 AtZEff=   0.0000000
 NQMom=    0.0000000
 NMagM=    2.7928460
 AtZNuc=   1.0000000
 Leave Link  101 at Wed May 26 09:01:17 2021, MaxMem=  2147483648 cpu:         4.2
 (Enter /opt/cluster/programs/g09_d.01/g09/l103.exe)

 GradGradGradGradGradGradGradGradGradGradGradGradGradGradGradGradGradGrad
 Berny optimization.
 Initialization pass.
                           ----------------------------
                           !    Initial Parameters    !
                           ! (Angstroms and Degrees)  !
 --------------------------                            --------------------------
 ! Name  Definition              Value          Derivative Info.                !
 --------------------------------------------------------------------------------
 ! R1    R(1,2)                  1.4972         estimate D2E/DX2                !
 ! R2    R(1,3)                  1.0959         estimate D2E/DX2                !
 ! R3    R(1,4)                  1.0899         estimate D2E/DX2                !
 ! R4    R(1,5)                  1.0926         estimate D2E/DX2                !
 ! R5    R(2,6)                  1.3855         estimate D2E/DX2                !
 ! R6    R(2,7)                  1.2265         estimate D2E/DX2                !
 ! R7    R(6,8)                  1.4618         estimate D2E/DX2                !
 ! R8    R(8,9)                  1.0937         estimate D2E/DX2                !
 ! R9    R(8,10)                 1.0873         estimate D2E/DX2                !
 ! R10   R(8,11)                 1.0923         estimate D2E/DX2                !
 ! A1    A(2,1,3)              108.2725         estimate D2E/DX2                !
 ! A2    A(2,1,4)              110.4084         estimate D2E/DX2                !
 ! A3    A(2,1,5)              110.7616         estimate D2E/DX2                !
 ! A4    A(3,1,4)              109.4575         estimate D2E/DX2                !
 ! A5    A(3,1,5)              107.419          estimate D2E/DX2                !
 ! A6    A(4,1,5)              110.4398         estimate D2E/DX2                !
 ! A7    A(1,2,6)              112.4628         estimate D2E/DX2                !
 ! A8    A(1,2,7)              125.4266         estimate D2E/DX2                !
 ! A9    A(6,2,7)              121.9338         estimate D2E/DX2                !
 ! A10   A(2,6,8)              117.9722         estimate D2E/DX2                !
 ! A11   A(6,8,9)              109.2307         estimate D2E/DX2                !
 ! A12   A(6,8,10)             105.4338         estimate D2E/DX2                !
 ! A13   A(6,8,11)             110.5186         estimate D2E/DX2                !
 ! A14   A(9,8,10)             110.293          estimate D2E/DX2                !
 ! A15   A(9,8,11)             110.7286         estimate D2E/DX2                !
 ! A16   A(10,8,11)            110.5035         estimate D2E/DX2                !
 ! D1    D(3,1,2,6)            -70.1199         estimate D2E/DX2                !
 ! D2    D(3,1,2,7)            105.1025         estimate D2E/DX2                !
 ! D3    D(4,1,2,6)            170.0691         estimate D2E/DX2                !
 ! D4    D(4,1,2,7)            -14.7086         estimate D2E/DX2                !
 ! D5    D(5,1,2,6)             47.417          estimate D2E/DX2                !
 ! D6    D(5,1,2,7)           -137.3606         estimate D2E/DX2                !
 ! D7    D(1,2,6,8)            119.3854         Frozen                          !
 ! D8    D(7,2,6,8)            -56.0276         estimate D2E/DX2                !
 ! D9    D(2,6,8,9)            -70.1789         estimate D2E/DX2                !
 ! D10   D(2,6,8,10)           171.3076         estimate D2E/DX2                !
 ! D11   D(2,6,8,11)            51.8811         estimate D2E/DX2                !
 --------------------------------------------------------------------------------
 Trust Radius=3.00D-01 FncErr=1.00D-07 GrdErr=1.00D-06
 Number of steps in this run=     47 maximum allowed number of steps=    100.
 GradGradGradGradGradGradGradGradGradGradGradGradGradGradGradGradGradGrad

 Leave Link  103 at Wed May 26 09:01:17 2021, MaxMem=  2147483648 cpu:         0.1
 (Enter /opt/cluster/programs/g09_d.01/g09/l202.exe)
                          Input orientation:                          
 ---------------------------------------------------------------------
 Center     Atomic      Atomic             Coordinates (Angstroms)
 Number     Number       Type             X           Y           Z
 ---------------------------------------------------------------------
      1          6           0        1.593093   -0.789026    0.166420
      2          6           0        0.513653    0.204360   -0.132941
      3          1           0        1.324243   -1.322101    1.085459
      4          1           0        2.547701   -0.282239    0.306710
      5          1           0        1.668766   -1.531148   -0.631950
      6          8           0       -0.666325   -0.400868   -0.534086
      7          8           0        0.596888    1.416566    0.033873
      8          6           0       -1.861613   -0.177957    0.277416
      9          1           0       -1.752367   -0.701959    1.231196
     10          1           0       -2.682960   -0.602928   -0.294402
     11          1           0       -2.020684    0.890524    0.439313
 ---------------------------------------------------------------------
                    Distance matrix (angstroms):
                    1          2          3          4          5
     1  C    0.000000
     2  C    1.497205   0.000000
     3  H    1.095939   2.114625   0.000000
     4  H    1.089858   2.137153   1.784548   0.000000
     5  H    1.092642   2.143661   1.764055   1.792591   0.000000
     6  O    2.397154   1.385484   2.726528   3.324301   2.596105
     7  O    2.423763   1.226458   3.022445   2.601163   3.206440
     8  C    3.510088   2.440583   3.480184   4.410644   3.888656
     9  H    3.511899   2.795913   3.141870   4.418306   3.982840
    10  H    4.304837   3.300927   4.298709   5.274845   4.462404
    11  H    3.994339   2.687222   4.062235   4.718379   4.541381
                    6          7          8          9         10
     6  O    0.000000
     7  O    2.285028   0.000000
     8  C    1.461827   2.940416   0.000000
     9  H    2.094365   3.382415   1.093713   0.000000
    10  H    2.040856   3.865685   1.087284   1.789765   0.000000
    11  H    2.109381   2.700516   1.092321   1.798631   1.790906
                   11
    11  H    0.000000
 Stoichiometry    C3H6O2
 Framework group  C1[X(C3H6O2)]
 Deg. of freedom    27
 Full point group                 C1      NOp   1
 Largest Abelian subgroup         C1      NOp   1
 Largest concise Abelian subgroup C1      NOp   1
                         Standard orientation:                         
 ---------------------------------------------------------------------
 Center     Atomic      Atomic             Coordinates (Angstroms)
 Number     Number       Type             X           Y           Z
 ---------------------------------------------------------------------
      1          6           0        1.593093   -0.789026    0.166420
      2          6           0        0.513653    0.204360   -0.132941
      3          1           0        1.324243   -1.322101    1.085459
      4          1           0        2.547701   -0.282238    0.306710
      5          1           0        1.668766   -1.531148   -0.631950
      6          8           0       -0.666325   -0.400868   -0.534086
      7          8           0        0.596888    1.416566    0.033873
      8          6           0       -1.861613   -0.177957    0.277416
      9          1           0       -1.752367   -0.701959    1.231196
     10          1           0       -2.682960   -0.602928   -0.294402
     11          1           0       -2.020684    0.890524    0.439313
 ---------------------------------------------------------------------
 Rotational constants (GHZ):      8.7202330      4.0996416      3.1133090
 Leave Link  202 at Wed May 26 09:01:17 2021, MaxMem=  2147483648 cpu:         0.0
 (Enter /opt/cluster/programs/g09_d.01/g09/l301.exe)
 Standard basis: 6-31+G (6D, 7F)
 Ernie: Thresh=  0.10000D-02 Tol=  0.10000D-05 Strict=F.
 There are    77 symmetry adapted cartesian basis functions of A   symmetry.
 There are    77 symmetry adapted basis functions of A   symmetry.
    77 basis functions,   154 primitive gaussians,    77 cartesian basis functions
    20 alpha electrons       20 beta electrons
       nuclear repulsion energy       178.7123121535 Hartrees.
 IExCor= 4639 DFT=T Ex+Corr=wB97XD ExCW=0 ScaHFX=  1.000000
 ScaDFX=  1.000000  1.000000  1.000000  1.000000 ScalE2=  1.000000  1.000000
 IRadAn=      0 IRanWt=     -1 IRanGd=            0 ICorTp=0 IEmpDi=121
  HFx wShort=  0.000000 wLong=  0.200000 cFull=  0.222036 cShort=  0.000000 cLong=  0.777964
  DFx wShort=  0.000000 wLong=  0.200000 cFull=  0.000000 cShort=  0.000000 cLong=  1.000000
 NAtoms=   11 NActive=   11 NUniq=   11 SFac= 1.00D+00 NAtFMM=   60 NAOKFM=F Big=F
 Integral buffers will be    131072 words long.
 Raffenetti 2 integral format.
 Two-electron integral symmetry is turned on.
 R6Disp:  Grimme-D2 Dispersion energy=       -0.0032818366 Hartrees.
 Nuclear repulsion after empirical dispersion term =      178.7090303168 Hartrees.
 Leave Link  301 at Wed May 26 09:01:17 2021, MaxMem=  2147483648 cpu:         0.3
 (Enter /opt/cluster/programs/g09_d.01/g09/l302.exe)
 NPDir=0 NMtPBC=     1 NCelOv=     1 NCel=       1 NClECP=     1 NCelD=      1
         NCelK=      1 NCelE2=     1 NClLst=     1 CellRange=     0.0.
 One-electron integrals computed using PRISM.
 NBasis=    77 RedAO= T EigKep=  1.55D-04  NBF=    77
 NBsUse=    77 1.00D-06 EigRej= -1.00D+00 NBFU=    77
 Precomputing XC quadrature grid using
 IXCGrd= 4 IRadAn=           0 IRanWt=          -1 IRanGd=           0 AccXCQ= 0.00D+00.
 Generated NRdTot=       0 NPtTot=           0 NUsed=           0 NTot=          32
 NSgBfM=    77    77    77    77    77 MxSgAt=    11 MxSgA2=    11.
 Leave Link  302 at Wed May 26 09:01:17 2021, MaxMem=  2147483648 cpu:         0.9
 (Enter /opt/cluster/programs/g09_d.01/g09/l303.exe)
 DipDrv:  MaxL=1.
 Leave Link  303 at Wed May 26 09:01:17 2021, MaxMem=  2147483648 cpu:         0.3
 (Enter /opt/cluster/programs/g09_d.01/g09/l401.exe)
 ExpMin= 4.38D-02 ExpMax= 5.48D+03 ExpMxC= 8.25D+02 IAcc=2 IRadAn=         4 AccDes= 0.00D+00
 Harris functional with IExCor= 4639 and IRadAn=       4 diagonalized for initial guess.
 HarFok:  IExCor= 4639 AccDes= 0.00D+00 IRadAn=         4 IDoV= 1 UseB2=F ITyADJ=14
 ICtDFT=  3500011 ScaDFX=  1.000000  1.000000  1.000000  1.000000
 FoFCou: FMM=F IPFlag=           0 FMFlag=      100000 FMFlg1=           0
         NFxFlg=           0 DoJE=T BraDBF=F KetDBF=T FulRan=T
         wScrn=  0.000000 ICntrl=     500 IOpCl=  0 I1Cent=   200000004 NGrid=           0
         NMat0=    1 NMatS0=      1 NMatT0=    0 NMatD0=    1 NMtDS0=    0 NMtDT0=    0
 Petite list used in FoFCou.
 Harris En= -257.356505736949    
 JPrj=0 DoOrth=F DoCkMO=F.
 Leave Link  401 at Wed May 26 09:01:17 2021, MaxMem=  2147483648 cpu:         1.4
 (Enter /opt/cluster/programs/g09_d.01/g09/l502.exe)
 Closed shell SCF:
 Using DIIS extrapolation, IDIIS=  1040.
 Integral symmetry usage will be decided dynamically.
 Keep R1 ints in memory in canonical form, NReq=9956864.
 IVT=       37546 IEndB=       37546 NGot=  2147483648 MDV=  2138425091
 LenX=  2138425091 LenY=  2138418721
 Requested convergence on RMS density matrix=1.00D-08 within 128 cycles.
 Requested convergence on MAX density matrix=1.00D-06.
 Requested convergence on             energy=1.00D-06.
 No special actions if energy rises.
 FoFCou: FMM=F IPFlag=           0 FMFlag=           0 FMFlg1=           0
         NFxFlg=           0 DoJE=F BraDBF=F KetDBF=F FulRan=T
         wScrn=  0.000000 ICntrl=     600 IOpCl=  0 I1Cent=           0 NGrid=           0
         NMat0=    1 NMatS0=   3003 NMatT0=    0 NMatD0=    1 NMtDS0=    0 NMtDT0=    0
 Symmetry not used in FoFCou.

 Cycle   1  Pass 1  IDiag  1:
 E= -268.117814962211    
 DIIS: error= 2.37D-02 at cycle   1 NSaved=   1.
 NSaved= 1 IEnMin= 1 EnMin= -268.117814962211     IErMin= 1 ErrMin= 2.37D-02
 ErrMax= 2.37D-02  0.00D+00 EMaxC= 1.00D-01 BMatC= 1.38D-01 BMatP= 1.38D-01
 IDIUse=3 WtCom= 7.63D-01 WtEn= 2.37D-01
 Coeff-Com:  0.100D+01
 Coeff-En:   0.100D+01
 Coeff:      0.100D+01
 Gap=     0.543 Goal=   None    Shift=    0.000
 GapD=    0.543 DampG=2.000 DampE=0.500 DampFc=1.0000 IDamp=-1.
 RMSDP=1.00D-02 MaxDP=2.02D-01              OVMax= 9.25D-02

 Cycle   2  Pass 1  IDiag  1:
 E= -268.141807116882     Delta-E=       -0.023992154671 Rises=F Damp=F
 DIIS: error= 2.97D-02 at cycle   2 NSaved=   2.
 NSaved= 2 IEnMin= 2 EnMin= -268.141807116882     IErMin= 1 ErrMin= 2.37D-02
 ErrMax= 2.97D-02  0.00D+00 EMaxC= 1.00D-01 BMatC= 8.19D-02 BMatP= 1.38D-01
 IDIUse=3 WtCom= 7.03D-01 WtEn= 2.97D-01
 Coeff-Com:  0.425D+00 0.575D+00
 Coeff-En:   0.405D+00 0.595D+00
 Coeff:      0.419D+00 0.581D+00
 Gap=     0.425 Goal=   None    Shift=    0.000
 RMSDP=5.10D-03 MaxDP=7.27D-02 DE=-2.40D-02 OVMax= 6.25D-02

 Cycle   3  Pass 1  IDiag  1:
 E= -268.199394736317     Delta-E=       -0.057587619435 Rises=F Damp=F
 DIIS: error= 9.31D-03 at cycle   3 NSaved=   3.
 NSaved= 3 IEnMin= 3 EnMin= -268.199394736317     IErMin= 3 ErrMin= 9.31D-03
 ErrMax= 9.31D-03  0.00D+00 EMaxC= 1.00D-01 BMatC= 8.98D-03 BMatP= 8.19D-02
 IDIUse=3 WtCom= 9.07D-01 WtEn= 9.31D-02
 Coeff-Com:  0.913D-01 0.267D+00 0.642D+00
 Coeff-En:   0.000D+00 0.000D+00 0.100D+01
 Coeff:      0.828D-01 0.242D+00 0.675D+00
 Gap=     0.434 Goal=   None    Shift=    0.000
 RMSDP=1.48D-03 MaxDP=2.13D-02 DE=-5.76D-02 OVMax= 3.05D-02

 Cycle   4  Pass 1  IDiag  1:
 E= -268.204704087519     Delta-E=       -0.005309351202 Rises=F Damp=F
 DIIS: error= 4.64D-03 at cycle   4 NSaved=   4.
 NSaved= 4 IEnMin= 4 EnMin= -268.204704087519     IErMin= 4 ErrMin= 4.64D-03
 ErrMax= 4.64D-03  0.00D+00 EMaxC= 1.00D-01 BMatC= 1.83D-03 BMatP= 8.98D-03
 IDIUse=3 WtCom= 9.54D-01 WtEn= 4.64D-02
 Coeff-Com: -0.274D-02 0.599D-01 0.369D+00 0.574D+00
 Coeff-En:   0.000D+00 0.000D+00 0.154D+00 0.846D+00
 Coeff:     -0.261D-02 0.571D-01 0.359D+00 0.587D+00
 Gap=     0.414 Goal=   None    Shift=    0.000
 RMSDP=9.73D-04 MaxDP=1.82D-02 DE=-5.31D-03 OVMax= 1.03D-02

 Cycle   5  Pass 1  IDiag  1:
 E= -268.206009511476     Delta-E=       -0.001305423957 Rises=F Damp=F
 DIIS: error= 7.39D-04 at cycle   5 NSaved=   5.
 NSaved= 5 IEnMin= 5 EnMin= -268.206009511476     IErMin= 5 ErrMin= 7.39D-04
 ErrMax= 7.39D-04  0.00D+00 EMaxC= 1.00D-01 BMatC= 1.05D-04 BMatP= 1.83D-03
 IDIUse=3 WtCom= 9.93D-01 WtEn= 7.39D-03
 Coeff-Com: -0.559D-02 0.142D-01 0.154D+00 0.316D+00 0.522D+00
 Coeff-En:   0.000D+00 0.000D+00 0.000D+00 0.000D+00 0.100D+01
 Coeff:     -0.555D-02 0.141D-01 0.153D+00 0.313D+00 0.525D+00
 Gap=     0.411 Goal=   None    Shift=    0.000
 RMSDP=1.40D-04 MaxDP=2.28D-03 DE=-1.31D-03 OVMax= 2.53D-03

 Cycle   6  Pass 1  IDiag  1:
 E= -268.206092935988     Delta-E=       -0.000083424512 Rises=F Damp=F
 DIIS: error= 1.11D-04 at cycle   6 NSaved=   6.
 NSaved= 6 IEnMin= 6 EnMin= -268.206092935988     IErMin= 6 ErrMin= 1.11D-04
 ErrMax= 1.11D-04  0.00D+00 EMaxC= 1.00D-01 BMatC= 2.38D-06 BMatP= 1.05D-04
 IDIUse=3 WtCom= 9.99D-01 WtEn= 1.11D-03
 Coeff-Com: -0.279D-03-0.770D-02-0.278D-01-0.364D-01 0.657D-01 0.101D+01
 Coeff-En:   0.000D+00 0.000D+00 0.000D+00 0.000D+00 0.000D+00 0.100D+01
 Coeff:     -0.279D-03-0.769D-02-0.278D-01-0.364D-01 0.656D-01 0.101D+01
 Gap=     0.411 Goal=   None    Shift=    0.000
 RMSDP=1.71D-04 MaxDP=3.98D-03 DE=-8.34D-05 OVMax= 8.35D-04

 Cycle   7  Pass 1  IDiag  1:
 E= -268.206097031301     Delta-E=       -0.000004095313 Rises=F Damp=F
 DIIS: error= 3.81D-05 at cycle   7 NSaved=   7.
 NSaved= 7 IEnMin= 7 EnMin= -268.206097031301     IErMin= 7 ErrMin= 3.81D-05
 ErrMax= 3.81D-05  0.00D+00 EMaxC= 1.00D-01 BMatC= 2.32D-07 BMatP= 2.38D-06
 IDIUse=1 WtCom= 1.00D+00 WtEn= 0.00D+00
 Coeff-Com:  0.418D-03-0.354D-02-0.198D-01-0.358D-01-0.112D-01 0.307D+00
 Coeff-Com:  0.762D+00
 Coeff:      0.418D-03-0.354D-02-0.198D-01-0.358D-01-0.112D-01 0.307D+00
 Coeff:      0.762D+00
 Gap=     0.411 Goal=   None    Shift=    0.000
 RMSDP=2.98D-05 MaxDP=5.87D-04 DE=-4.10D-06 OVMax= 2.40D-04

 Cycle   8  Pass 1  IDiag  1:
 E= -268.206097430062     Delta-E=       -0.000000398761 Rises=F Damp=F
 DIIS: error= 1.51D-05 at cycle   8 NSaved=   8.
 NSaved= 8 IEnMin= 8 EnMin= -268.206097430062     IErMin= 8 ErrMin= 1.51D-05
 ErrMax= 1.51D-05  0.00D+00 EMaxC= 1.00D-01 BMatC= 1.49D-08 BMatP= 2.32D-07
 IDIUse=1 WtCom= 1.00D+00 WtEn= 0.00D+00
 Coeff-Com: -0.201D-04 0.937D-03 0.393D-02 0.455D-02-0.299D-02-0.126D+00
 Coeff-Com: -0.435D-01 0.116D+01
 Coeff:     -0.201D-04 0.937D-03 0.393D-02 0.455D-02-0.299D-02-0.126D+00
 Coeff:     -0.435D-01 0.116D+01
 Gap=     0.411 Goal=   None    Shift=    0.000
 RMSDP=9.78D-06 MaxDP=1.16D-04 DE=-3.99D-07 OVMax= 1.63D-04

 Cycle   9  Pass 1  IDiag  1:
 E= -268.206097480636     Delta-E=       -0.000000050574 Rises=F Damp=F
 DIIS: error= 4.14D-06 at cycle   9 NSaved=   9.
 NSaved= 9 IEnMin= 9 EnMin= -268.206097480636     IErMin= 9 ErrMin= 4.14D-06
 ErrMax= 4.14D-06  0.00D+00 EMaxC= 1.00D-01 BMatC= 6.36D-10 BMatP= 1.49D-08
 IDIUse=1 WtCom= 1.00D+00 WtEn= 0.00D+00
 Coeff-Com: -0.169D-04 0.808D-04 0.649D-03 0.129D-02 0.195D-02 0.314D-03
 Coeff-Com: -0.366D-01-0.158D+00 0.119D+01
 Coeff:     -0.169D-04 0.808D-04 0.649D-03 0.129D-02 0.195D-02 0.314D-03
 Coeff:     -0.366D-01-0.158D+00 0.119D+01
 Gap=     0.411 Goal=   None    Shift=    0.000
 RMSDP=2.25D-06 MaxDP=3.39D-05 DE=-5.06D-08 OVMax= 4.21D-05

 Cycle  10  Pass 1  IDiag  1:
 E= -268.206097483766     Delta-E=       -0.000000003130 Rises=F Damp=F
 DIIS: error= 1.08D-06 at cycle  10 NSaved=  10.
 NSaved=10 IEnMin=10 EnMin= -268.206097483766     IErMin=10 ErrMin= 1.08D-06
 ErrMax= 1.08D-06  0.00D+00 EMaxC= 1.00D-01 BMatC= 4.50D-11 BMatP= 6.36D-10
 IDIUse=1 WtCom= 1.00D+00 WtEn= 0.00D+00
 Coeff-Com:  0.190D-05-0.640D-04-0.275D-03-0.358D-03 0.200D-03 0.855D-02
 Coeff-Com:  0.271D-02-0.726D-01-0.123D-01 0.107D+01
 Coeff:      0.190D-05-0.640D-04-0.275D-03-0.358D-03 0.200D-03 0.855D-02
 Coeff:      0.271D-02-0.726D-01-0.123D-01 0.107D+01
 Gap=     0.411 Goal=   None    Shift=    0.000
 RMSDP=5.97D-07 MaxDP=9.53D-06 DE=-3.13D-09 OVMax= 1.34D-05

 Cycle  11  Pass 1  IDiag  1:
 E= -268.206097484003     Delta-E=       -0.000000000237 Rises=F Damp=F
 DIIS: error= 2.95D-07 at cycle  11 NSaved=  11.
 NSaved=11 IEnMin=11 EnMin= -268.206097484003     IErMin=11 ErrMin= 2.95D-07
 ErrMax= 2.95D-07  0.00D+00 EMaxC= 1.00D-01 BMatC= 1.05D-11 BMatP= 4.50D-11
 IDIUse=1 WtCom= 1.00D+00 WtEn= 0.00D+00
 Coeff-Com:  0.209D-05-0.274D-04-0.149D-03-0.242D-03-0.202D-03 0.243D-02
 Coeff-Com:  0.458D-02-0.343D-02-0.138D+00 0.323D+00 0.812D+00
 Coeff:      0.209D-05-0.274D-04-0.149D-03-0.242D-03-0.202D-03 0.243D-02
 Coeff:      0.458D-02-0.343D-02-0.138D+00 0.323D+00 0.812D+00
 Gap=     0.411 Goal=   None    Shift=    0.000
 RMSDP=1.50D-07 MaxDP=2.51D-06 DE=-2.37D-10 OVMax= 4.58D-06

 Cycle  12  Pass 1  IDiag  1:
 E= -268.206097484037     Delta-E=       -0.000000000034 Rises=F Damp=F
 DIIS: error= 1.57D-07 at cycle  12 NSaved=  12.
 NSaved=12 IEnMin=12 EnMin= -268.206097484037     IErMin=12 ErrMin= 1.57D-07
 ErrMax= 1.57D-07  0.00D+00 EMaxC= 1.00D-01 BMatC= 9.94D-13 BMatP= 1.05D-11
 IDIUse=1 WtCom= 1.00D+00 WtEn= 0.00D+00
 Coeff-Com: -0.437D-06 0.116D-04 0.510D-04 0.717D-04-0.652D-04-0.151D-02
 Coeff-Com: -0.627D-03 0.124D-01 0.575D-02-0.187D+00-0.348D-01 0.121D+01
 Coeff:     -0.437D-06 0.116D-04 0.510D-04 0.717D-04-0.652D-04-0.151D-02
 Coeff:     -0.627D-03 0.124D-01 0.575D-02-0.187D+00-0.348D-01 0.121D+01
 Gap=     0.411 Goal=   None    Shift=    0.000
 RMSDP=9.62D-08 MaxDP=1.79D-06 DE=-3.35D-11 OVMax= 2.72D-06

 Cycle  13  Pass 1  IDiag  1:
 E= -268.206097484042     Delta-E=       -0.000000000005 Rises=F Damp=F
 DIIS: error= 4.04D-08 at cycle  13 NSaved=  13.
 NSaved=13 IEnMin=13 EnMin= -268.206097484042     IErMin=13 ErrMin= 4.04D-08
 ErrMax= 4.04D-08  0.00D+00 EMaxC= 1.00D-01 BMatC= 4.00D-14 BMatP= 9.94D-13
 IDIUse=1 WtCom= 1.00D+00 WtEn= 0.00D+00
 Coeff-Com: -0.250D-07-0.985D-06-0.228D-05 0.741D-06 0.284D-04 0.229D-03
 Coeff-Com: -0.103D-03-0.288D-02 0.653D-02 0.313D-01-0.386D-01-0.315D+00
 Coeff-Com:  0.132D+01
 Coeff:     -0.250D-07-0.985D-06-0.228D-05 0.741D-06 0.284D-04 0.229D-03
 Coeff:     -0.103D-03-0.288D-02 0.653D-02 0.313D-01-0.386D-01-0.315D+00
 Coeff:      0.132D+01
 Gap=     0.411 Goal=   None    Shift=    0.000
 RMSDP=2.16D-08 MaxDP=2.89D-07 DE=-5.46D-12 OVMax= 5.74D-07

 Cycle  14  Pass 1  IDiag  1:
 E= -268.206097484041     Delta-E=        0.000000000002 Rises=F Damp=F
 DIIS: error= 9.16D-09 at cycle  14 NSaved=  14.
 NSaved=14 IEnMin=13 EnMin= -268.206097484042     IErMin=14 ErrMin= 9.16D-09
 ErrMax= 9.16D-09  0.00D+00 EMaxC= 1.00D-01 BMatC= 2.25D-15 BMatP= 4.00D-14
 IDIUse=1 WtCom= 1.00D+00 WtEn= 0.00D+00
 Coeff-Com:  0.222D-07-0.457D-07-0.113D-05-0.261D-05-0.538D-05-0.269D-04
 Coeff-Com:  0.608D-04 0.476D-03-0.251D-02-0.179D-02 0.140D-01 0.504D-01
 Coeff-Com: -0.468D+00 0.141D+01
 Coeff:      0.222D-07-0.457D-07-0.113D-05-0.261D-05-0.538D-05-0.269D-04
 Coeff:      0.608D-04 0.476D-03-0.251D-02-0.179D-02 0.140D-01 0.504D-01
 Coeff:     -0.468D+00 0.141D+01
 Gap=     0.411 Goal=   None    Shift=    0.000
 RMSDP=4.81D-09 MaxDP=5.83D-08 DE= 1.59D-12 OVMax= 1.18D-07

 SCF Done:  E(RwB97XD) =  -268.206097484     A.U. after   14 cycles
            NFock= 14  Conv=0.48D-08     -V/T= 2.0057
 KE= 2.666736614630D+02 PE=-9.850235918268D+02 EE= 2.714348025628D+02
 Leave Link  502 at Wed May 26 09:01:19 2021, MaxMem=  2147483648 cpu:        15.5
 (Enter /opt/cluster/programs/g09_d.01/g09/l601.exe)
 Copying SCF densities to generalized density rwf, IOpCl= 0 IROHF=0.

 **********************************************************************

            Population analysis using the SCF density.

 **********************************************************************

 Orbital symmetries:
       Occupied  (A) (A) (A) (A) (A) (A) (A) (A) (A) (A) (A) (A)
                 (A) (A) (A) (A) (A) (A) (A) (A)
       Virtual   (A) (A) (A) (A) (A) (A) (A) (A) (A) (A) (A) (A)
                 (A) (A) (A) (A) (A) (A) (A) (A) (A) (A) (A) (A)
                 (A) (A) (A) (A) (A) (A) (A) (A) (A) (A) (A) (A)
                 (A) (A) (A) (A) (A) (A) (A) (A) (A) (A) (A) (A)
                 (A) (A) (A) (A) (A) (A) (A) (A) (A)
 The electronic state is 1-A.
 Alpha  occ. eigenvalues --  -19.30967 -19.28389 -10.45413 -10.36126 -10.31373
 Alpha  occ. eigenvalues --   -1.21707  -1.13552  -0.87762  -0.81812  -0.66429
 Alpha  occ. eigenvalues --   -0.59620  -0.58336  -0.56995  -0.53111  -0.52278
 Alpha  occ. eigenvalues --   -0.50303  -0.46772  -0.43287  -0.38098  -0.36807
 Alpha virt. eigenvalues --    0.04337   0.06934   0.08155   0.10075   0.10490
 Alpha virt. eigenvalues --    0.10845   0.12574   0.13136   0.14970   0.15465
 Alpha virt. eigenvalues --    0.16461   0.18097   0.20138   0.22777   0.24455
 Alpha virt. eigenvalues --    0.25900   0.27333   0.28440   0.29866   0.32147
 Alpha virt. eigenvalues --    0.33356   0.34500   0.35942   0.37362   0.38142
 Alpha virt. eigenvalues --    0.40190   0.40773   0.42583   0.43903   0.45145
 Alpha virt. eigenvalues --    0.56118   0.72011   0.72179   0.75433   0.75812
 Alpha virt. eigenvalues --    0.77034   0.82686   0.87200   0.91605   0.92910
 Alpha virt. eigenvalues --    1.08474   1.09635   1.11752   1.16125   1.16493
 Alpha virt. eigenvalues --    1.19889   1.24671   1.28183   1.34452   1.36884
 Alpha virt. eigenvalues --    1.40918   1.45165   1.46854   1.48462   1.59801
 Alpha virt. eigenvalues --    1.93936   2.00887
          Condensed to atoms (all electrons):
               1          2          3          4          5          6
     1  C    6.933896  -0.689754   0.338486   0.344801   0.369533  -0.536765
     2  C   -0.689754   5.896449   0.001394  -0.011432  -0.037719   0.283904
     3  H    0.338486   0.001394   0.471703  -0.022284  -0.022095   0.000492
     4  H    0.344801  -0.011432  -0.022284   0.463946  -0.021966   0.010806
     5  H    0.369533  -0.037719  -0.022095  -0.021966   0.455895   0.001600
     6  O   -0.536765   0.283904   0.000492   0.010806   0.001600   8.821927
     7  O   -0.102918   0.313950  -0.003984  -0.003349   0.005799  -0.215032
     8  C   -0.028518  -0.114959  -0.000305  -0.000029   0.000899   0.095757
     9  H    0.013032  -0.003853   0.000376  -0.000050   0.000023  -0.064709
    10  H   -0.002270   0.001934  -0.000015   0.000003  -0.000001  -0.051185
    11  H   -0.005153   0.000857  -0.000049   0.000015  -0.000006  -0.041815
               7          8          9         10         11
     1  C   -0.102918  -0.028518   0.013032  -0.002270  -0.005153
     2  C    0.313950  -0.114959  -0.003853   0.001934   0.000857
     3  H   -0.003984  -0.000305   0.000376  -0.000015  -0.000049
     4  H   -0.003349  -0.000029  -0.000050   0.000003   0.000015
     5  H    0.005799   0.000899   0.000023  -0.000001  -0.000006
     6  O   -0.215032   0.095757  -0.064709  -0.051185  -0.041815
     7  O    8.435825  -0.023915  -0.001156  -0.000553   0.011229
     8  C   -0.023915   5.299699   0.382956   0.398302   0.377622
     9  H   -0.001156   0.382956   0.536229  -0.029301  -0.037474
    10  H   -0.000553   0.398302  -0.029301   0.483642  -0.025527
    11  H    0.011229   0.377622  -0.037474  -0.025527   0.489525
 Mulliken charges:
               1
     1  C   -0.634370
     2  C    0.359227
     3  H    0.236280
     4  H    0.239539
     5  H    0.248038
     6  O   -0.304981
     7  O   -0.415896
     8  C   -0.387510
     9  H    0.203926
    10  H    0.224971
    11  H    0.230775
 Sum of Mulliken charges =   0.00000
 Mulliken charges with hydrogens summed into heavy atoms:
               1
     1  C    0.089487
     2  C    0.359227
     6  O   -0.304981
     7  O   -0.415896
     8  C    0.272162
 Electronic spatial extent (au):  <R**2>=            435.7749
 Charge=              0.0000 electrons
 Dipole moment (field-independent basis, Debye):
    X=             -0.7348    Y=             -2.5478    Z=              1.4111  Tot=              3.0037
 Quadrupole moment (field-independent basis, Debye-Ang):
   XX=            -24.4149   YY=            -35.3019   ZZ=            -30.6465
   XY=             -2.8798   XZ=             -1.6231   YZ=             -1.2080
 Traceless Quadrupole moment (field-independent basis, Debye-Ang):
   XX=              5.7062   YY=             -5.1808   ZZ=             -0.5254
   XY=             -2.8798   XZ=             -1.6231   YZ=             -1.2080
 Octapole moment (field-independent basis, Debye-Ang**2):
  XXX=             -8.4123  YYY=             -6.1101  ZZZ=              0.4237  XYY=             -2.8672
  XXY=             -2.6541  XXZ=              0.1906  XZZ=              0.5095  YZZ=             -0.2249
  YYZ=             -0.0419  XYZ=              0.1356
 Hexadecapole moment (field-independent basis, Debye-Ang**3):
 XXXX=           -320.1715 YYYY=           -162.3037 ZZZZ=            -57.6556 XXXY=              5.7135
 XXXZ=              3.4566 YYYX=             -5.3067 YYYZ=              0.5606 ZZZX=             -1.0418
 ZZZY=             -1.4636 XXYY=            -84.0605 XXZZ=            -67.9247 YYZZ=            -33.0708
 XXYZ=              1.7033 YYXZ=             -1.6400 ZZXY=              0.0725
 N-N= 1.787090303168D+02 E-N=-9.850235919313D+02  KE= 2.666736614630D+02
 No NMR shielding tensors so no spin-rotation constants.
 Leave Link  601 at Wed May 26 09:01:19 2021, MaxMem=  2147483648 cpu:         0.6
 (Enter /opt/cluster/programs/g09_d.01/g09/l701.exe)
 Compute integral first derivatives.
 ... and contract with generalized density number  0.
 R6Disp: Adding Grimme-D2 dispersion energy 1st derivatives to the gradient.
 Leave Link  701 at Wed May 26 09:01:19 2021, MaxMem=  2147483648 cpu:         0.6
 (Enter /opt/cluster/programs/g09_d.01/g09/l702.exe)
 L702 exits ... SP integral derivatives will be done elsewhere.
 Leave Link  702 at Wed May 26 09:01:19 2021, MaxMem=  2147483648 cpu:         0.2
 (Enter /opt/cluster/programs/g09_d.01/g09/l703.exe)
 Compute integral first derivatives, UseDBF=F ICtDFT=           0.
 Integral derivatives from FoFJK, PRISM(SPDF).
 Calling FoFJK, ICntrl=      2127 FMM=F ISym2X=0 I1Cent= 0 IOpClX= 0 NMat=1 NMatS=1 NMatT=0.
 FoFJK:  IHMeth= 1 ICntrl=    2127 DoSepK=T KAlg= 0 I1Cent=   0 FoldK=F
 IRaf=         1 NMat=   1 IRICut=       1 DoRegI=T DoRafI=F ISym2E= 0.
 FoFCou: FMM=F IPFlag=           0 FMFlag=      100000 FMFlg1=         800
         NFxFlg=           0 DoJE=F BraDBF=F KetDBF=F FulRan=T
         wScrn=  0.000000 ICntrl=    2527 IOpCl=  0 I1Cent=           0 NGrid=           0
         NMat0=    1 NMatS0=      1 NMatT0=    0 NMatD0=    1 NMtDS0=    0 NMtDT0=    0
 Symmetry not used in FoFCou.
 Leave Link  703 at Wed May 26 09:01:20 2021, MaxMem=  2147483648 cpu:         3.6
 (Enter /opt/cluster/programs/g09_d.01/g09/l716.exe)
 Dipole        =-2.89088529D-01-1.00237847D+00 5.55170824D-01
 ***** Axes restored to original set *****
 -------------------------------------------------------------------
 Center     Atomic                   Forces (Hartrees/Bohr)
 Number     Number              X              Y              Z
 -------------------------------------------------------------------
      1        6           0.002242208    0.000313393   -0.007058947
      2        6          -0.004052686    0.002708780    0.007789854
      3        1           0.000001303    0.000003155    0.000001868
      4        1          -0.000000224   -0.000005430   -0.000013672
      5        1          -0.000009423   -0.000012634    0.000002828
      6        8           0.003589685   -0.009411126    0.003639326
      7        8           0.000002498    0.000000799   -0.000016859
      8        6          -0.001778180    0.006382535   -0.004371494
      9        1           0.000004463    0.000014054    0.000012435
     10        1          -0.000002279    0.000001076    0.000013923
     11        1           0.000002635    0.000005399    0.000000738
 -------------------------------------------------------------------
 Cartesian Forces:  Max     0.009411126 RMS     0.003099892
 Leave Link  716 at Wed May 26 09:01:20 2021, MaxMem=  2147483648 cpu:         0.2
 (Enter /opt/cluster/programs/g09_d.01/g09/l103.exe)

 GradGradGradGradGradGradGradGradGradGradGradGradGradGradGradGradGradGrad
 Berny optimization.
 FormGI is forming the generalized inverse of G from B-inverse, IUseBI=4.
 Internal  Forces:  Max     0.011975143 RMS     0.002503796
 Search for a local minimum.
 Step number   1 out of a maximum of   47
 All quantities printed in internal units (Hartrees-Bohrs-Radians)
 RMS Force = .20559D-05 SwitMx=.10000D-02 MixMth= 2
 Mixed Optimization -- En-DIIS/RFO-DIIS
 Second derivative matrix not updated -- first step.
 ITU=  0
     Eigenvalues ---    0.00803   0.00874   0.01232   0.07290   0.07674
     Eigenvalues ---    0.10108   0.10613   0.16000   0.16000   0.16000
     Eigenvalues ---    0.16000   0.16000   0.16000   0.24917   0.25000
     Eigenvalues ---    0.25000   0.32672   0.34135   0.34387   0.34509
     Eigenvalues ---    0.34546   0.34829   0.35128   0.36737   0.48113
     Eigenvalues ---    0.925781000.000001000.000001000.000001000.00000
     Eigenvalues --- 1000.000001000.000001000.000001000.000001000.00000
     Eigenvalues --- 1000.000001000.00000
 RFO step:  Lambda= 0.00000000D+00 EMin= 8.02917037D-03
 Linear search not attempted -- first point.
 Iteration  1 RMS(Cart)=  0.00003833 RMS(Int)=  0.00000000
 Iteration  2 RMS(Cart)=  0.00000000 RMS(Int)=  0.00000000
 Iteration  1 RMS(Cart)=  0.00000000 RMS(Int)=  0.00000000
 ITry= 1 IFail=0 DXMaxC= 1.35D-04 DCOld= 1.00D+10 DXMaxT= 3.00D-01 DXLimC= 3.00D+00 Rises=F
 Variable       Old X    -DE/DX   Delta X   Delta X   Delta X     New X
                                 (Linear)    (Quad)   (Total)
    R1        2.82931   0.00000   0.00000  -0.00001  -0.00001   2.82930
    R2        2.07102   0.00000   0.00000   0.00000   0.00000   2.07103
    R3        2.05953   0.00000   0.00000   0.00000   0.00000   2.05953
    R4        2.06479   0.00000   0.00000   0.00000   0.00000   2.06480
    R5        2.61819  -0.00001   0.00000  -0.00002  -0.00002   2.61817
    R6        2.31767   0.00000   0.00000   0.00000   0.00000   2.31767
    R7        2.76245   0.00000   0.00000  -0.00001  -0.00001   2.76244
    R8        2.06682   0.00000   0.00000   0.00000   0.00000   2.06682
    R9        2.05467   0.00000   0.00000   0.00000   0.00000   2.05467
   R10        2.06419   0.00000   0.00000   0.00000   0.00000   2.06419
    A1        1.88971   0.00000   0.00000  -0.00001  -0.00001   1.88971
    A2        1.92699   0.00000   0.00000   0.00002   0.00002   1.92701
    A3        1.93315   0.00000   0.00000  -0.00002  -0.00002   1.93314
    A4        1.91039   0.00000   0.00000   0.00001   0.00001   1.91040
    A5        1.87482   0.00000   0.00000  -0.00003  -0.00003   1.87479
    A6        1.92754   0.00000   0.00000   0.00001   0.00001   1.92755
    A7        1.96285   0.00010   0.00000  -0.00001  -0.00001   1.96284
    A8        2.18911   0.00052   0.00000   0.00000   0.00000   2.18911
    A9        2.12815  -0.00027   0.00000   0.00000   0.00000   2.12815
   A10        2.05900   0.00000   0.00000   0.00000   0.00000   2.05901
   A11        1.90644   0.00000   0.00000   0.00001   0.00001   1.90644
   A12        1.84017   0.00000   0.00000  -0.00002  -0.00002   1.84015
   A13        1.92891   0.00000   0.00000   0.00002   0.00002   1.92893
   A14        1.92498   0.00000   0.00000   0.00001   0.00001   1.92499
   A15        1.93258   0.00000   0.00000  -0.00001  -0.00001   1.93257
   A16        1.92865   0.00000   0.00000   0.00000   0.00000   1.92865
    D1       -1.22382  -0.00236   0.00000  -0.00004  -0.00004  -1.22386
    D2        1.83438   0.00236   0.00000  -0.00006  -0.00006   1.83433
    D3        2.96827  -0.00236   0.00000  -0.00006  -0.00006   2.96821
    D4       -0.25671   0.00236   0.00000  -0.00008  -0.00008  -0.25679
    D5        0.82758  -0.00237   0.00000  -0.00008  -0.00008   0.82750
    D6       -2.39740   0.00236   0.00000  -0.00010  -0.00010  -2.39750
    D7        2.08367   0.01198   0.00000   0.00000   0.00000   2.08367
    D8       -0.97787   0.00739   0.00000   0.00002   0.00002  -0.97785
    D9       -1.22485   0.00000   0.00000   0.00000   0.00000  -1.22486
   D10        2.98988   0.00000   0.00000  -0.00001  -0.00001   2.98988
   D11        0.90550   0.00000   0.00000   0.00000   0.00000   0.90549
         Item               Value     Threshold  Converged?
 Maximum Force            0.000007     0.000450     YES
 RMS     Force            0.000002     0.000300     YES
 Maximum Displacement     0.000135     0.001800     YES
 RMS     Displacement     0.000038     0.001200     YES
 Predicted change in Energy=-4.634132D-10
 Optimization completed.
    -- Stationary point found.
                           ----------------------------
                           !   Optimized Parameters   !
                           ! (Angstroms and Degrees)  !
 --------------------------                            --------------------------
 ! Name  Definition              Value          Derivative Info.                !
 --------------------------------------------------------------------------------
 ! R1    R(1,2)                  1.4972         -DE/DX =    0.0                 !
 ! R2    R(1,3)                  1.0959         -DE/DX =    0.0                 !
 ! R3    R(1,4)                  1.0899         -DE/DX =    0.0                 !
 ! R4    R(1,5)                  1.0926         -DE/DX =    0.0                 !
 ! R5    R(2,6)                  1.3855         -DE/DX =    0.0                 !
 ! R6    R(2,7)                  1.2265         -DE/DX =    0.0                 !
 ! R7    R(6,8)                  1.4618         -DE/DX =    0.0                 !
 ! R8    R(8,9)                  1.0937         -DE/DX =    0.0                 !
 ! R9    R(8,10)                 1.0873         -DE/DX =    0.0                 !
 ! R10   R(8,11)                 1.0923         -DE/DX =    0.0                 !
 ! A1    A(2,1,3)              108.2725         -DE/DX =    0.0                 !
 ! A2    A(2,1,4)              110.4084         -DE/DX =    0.0                 !
 ! A3    A(2,1,5)              110.7616         -DE/DX =    0.0                 !
 ! A4    A(3,1,4)              109.4575         -DE/DX =    0.0                 !
 ! A5    A(3,1,5)              107.419          -DE/DX =    0.0                 !
 ! A6    A(4,1,5)              110.4398         -DE/DX =    0.0                 !
 ! A7    A(1,2,6)              112.4628         -DE/DX =    0.0001              !
 ! A8    A(1,2,7)              125.4266         -DE/DX =    0.0005              !
 ! A9    A(6,2,7)              121.9338         -DE/DX =   -0.0003              !
 ! A10   A(2,6,8)              117.9722         -DE/DX =    0.0                 !
 ! A11   A(6,8,9)              109.2307         -DE/DX =    0.0                 !
 ! A12   A(6,8,10)             105.4338         -DE/DX =    0.0                 !
 ! A13   A(6,8,11)             110.5186         -DE/DX =    0.0                 !
 ! A14   A(9,8,10)             110.293          -DE/DX =    0.0                 !
 ! A15   A(9,8,11)             110.7286         -DE/DX =    0.0                 !
 ! A16   A(10,8,11)            110.5035         -DE/DX =    0.0                 !
 ! D1    D(3,1,2,6)            -70.1199         -DE/DX =   -0.0024              !
 ! D2    D(3,1,2,7)            105.1025         -DE/DX =    0.0024              !
 ! D3    D(4,1,2,6)            170.0691         -DE/DX =   -0.0024              !
 ! D4    D(4,1,2,7)            -14.7086         -DE/DX =    0.0024              !
 ! D5    D(5,1,2,6)             47.417          -DE/DX =   -0.0024              !
 ! D6    D(5,1,2,7)           -137.3606         -DE/DX =    0.0024              !
 ! D7    D(1,2,6,8)            119.3854         -DE/DX =    0.012               !
 ! D8    D(7,2,6,8)            -56.0276         -DE/DX =    0.0074              !
 ! D9    D(2,6,8,9)            -70.1789         -DE/DX =    0.0                 !
 ! D10   D(2,6,8,10)           171.3076         -DE/DX =    0.0                 !
 ! D11   D(2,6,8,11)            51.8811         -DE/DX =    0.0                 !
 --------------------------------------------------------------------------------
 Lowest energy point so far.  Saving SCF results.
 GradGradGradGradGradGradGradGradGradGradGradGradGradGradGradGradGradGrad

 Largest change from initial coordinates is atom    3       0.000 Angstoms.
 Leave Link  103 at Wed May 26 09:01:20 2021, MaxMem=  2147483648 cpu:         0.1
 (Enter /opt/cluster/programs/g09_d.01/g09/l202.exe)
                          Input orientation:                          
 ---------------------------------------------------------------------
 Center     Atomic      Atomic             Coordinates (Angstroms)
 Number     Number       Type             X           Y           Z
 ---------------------------------------------------------------------
      1          6           0        1.593093   -0.789026    0.166420
      2          6           0        0.513653    0.204360   -0.132941
      3          1           0        1.324243   -1.322101    1.085459
      4          1           0        2.547701   -0.282239    0.306710
      5          1           0        1.668766   -1.531148   -0.631950
      6          8           0       -0.666325   -0.400868   -0.534086
      7          8           0        0.596888    1.416566    0.033873
      8          6           0       -1.861613   -0.177957    0.277416
      9          1           0       -1.752367   -0.701959    1.231196
     10          1           0       -2.682960   -0.602928   -0.294402
     11          1           0       -2.020684    0.890524    0.439313
 ---------------------------------------------------------------------
                    Distance matrix (angstroms):
                    1          2          3          4          5
     1  C    0.000000
     2  C    1.497205   0.000000
     3  H    1.095939   2.114625   0.000000
     4  H    1.089858   2.137153   1.784548   0.000000
     5  H    1.092642   2.143661   1.764055   1.792591   0.000000
     6  O    2.397154   1.385484   2.726528   3.324301   2.596105
     7  O    2.423763   1.226458   3.022445   2.601163   3.206440
     8  C    3.510088   2.440583   3.480184   4.410644   3.888656
     9  H    3.511899   2.795913   3.141870   4.418306   3.982840
    10  H    4.304837   3.300927   4.298709   5.274845   4.462404
    11  H    3.994339   2.687222   4.062235   4.718379   4.541381
                    6          7          8          9         10
     6  O    0.000000
     7  O    2.285028   0.000000
     8  C    1.461827   2.940416   0.000000
     9  H    2.094365   3.382415   1.093713   0.000000
    10  H    2.040856   3.865685   1.087284   1.789765   0.000000
    11  H    2.109381   2.700516   1.092321   1.798631   1.790906
                   11
    11  H    0.000000
 Stoichiometry    C3H6O2
 Framework group  C1[X(C3H6O2)]
 Deg. of freedom    27
 Full point group                 C1      NOp   1
 RotChk:  IX=0 Diff= 7.85D-17
 Largest Abelian subgroup         C1      NOp   1
 Largest concise Abelian subgroup C1      NOp   1
                         Standard orientation:                         
 ---------------------------------------------------------------------
 Center     Atomic      Atomic             Coordinates (Angstroms)
 Number     Number       Type             X           Y           Z
 ---------------------------------------------------------------------
      1          6           0        1.593093   -0.789026    0.166420
      2          6           0        0.513653    0.204360   -0.132941
      3          1           0        1.324243   -1.322101    1.085459
      4          1           0        2.547701   -0.282238    0.306710
      5          1           0        1.668766   -1.531148   -0.631950
      6          8           0       -0.666325   -0.400868   -0.534086
      7          8           0        0.596888    1.416566    0.033873
      8          6           0       -1.861613   -0.177957    0.277416
      9          1           0       -1.752367   -0.701959    1.231196
     10          1           0       -2.682960   -0.602928   -0.294402
     11          1           0       -2.020684    0.890524    0.439313
 ---------------------------------------------------------------------
 Rotational constants (GHZ):      8.7202330      4.0996416      3.1133090
 Leave Link  202 at Wed May 26 09:01:20 2021, MaxMem=  2147483648 cpu:         0.0
 (Enter /opt/cluster/programs/g09_d.01/g09/l9999.exe)
 1\1\GINC-NODE12\FOpt\RwB97XD\6-31+G\C3H6O2\BOITTIER\26-May-2021\0\\#p 
 wB97XD/6-31+G Opt=ModRedun\\O.pdb\\0,1\C,1.593093,-0.789026,0.16642\C,
 0.513653,0.20436,-0.132941\H,1.324243,-1.322101,1.085459\H,2.547701,-0
 .282239,0.30671\H,1.668766,-1.531148,-0.63195\O,-0.666325,-0.400868,-0
 .534086\O,0.596888,1.416566,0.033873\C,-1.861613,-0.177957,0.277416\H,
 -1.752367,-0.701959,1.231196\H,-2.68296,-0.602928,-0.294402\H,-2.02068
 4,0.890524,0.439313\\Version=ES64L-G09RevD.01\State=1-A\HF=-268.206097
 5\RMSD=4.813e-09\RMSF=3.100e-03\Dipole=-0.2890887,-1.0023784,0.5551708
 \Quadrupole=4.2424114,-3.8518168,-0.3905945,-2.1410936,-1.2067529,-0.8
 98112\PG=C01 [X(C3H6O2)]\\@


 THE WHOLE OF SCIENCE IS NOTHING MORE THAN A REFINEMENT OF EVERYDAY THINKING.
                                                              -- A. EINSTEIN
 Job cpu time:       0 days  0 hours  0 minutes 28.7 seconds.
 File lengths (MBytes):  RWF=      5 Int=      0 D2E=      0 Chk=      2 Scr=      1
 Normal termination of Gaussian 09 at Wed May 26 09:01:20 2021.
