 Entering Gaussian System, Link 0=/opt/cluster/programs/g09_d.01/g09//g09
 Input=/home/unibas/boittier/RDKit_G2/L.pdb/SCAN_1_2_3_4_S_17_20.0/4_SCAN_1_2_3_4_F/4_SCAN_L.pdb.com
 Output=/scratch/boittier/4_SCAN_L.pdb/4_SCAN_L.pdb.out
 Initial command:
 /opt/cluster/programs/g09_d.01/g09/l1.exe "/scratch/boittier/4_SCAN_L.pdb/Gau-185901.inp" -scrdir="/scratch/boittier/4_SCAN_L.pdb/"
 Entering Link 1 = /opt/cluster/programs/g09_d.01/g09/l1.exe PID=    185902.
  
 Copyright (c) 1988,1990,1992,1993,1995,1998,2003,2009,2013,
            Gaussian, Inc.  All Rights Reserved.
  
 This is part of the Gaussian(R) 09 program.  It is based on
 the Gaussian(R) 03 system (copyright 2003, Gaussian, Inc.),
 the Gaussian(R) 98 system (copyright 1998, Gaussian, Inc.),
 the Gaussian(R) 94 system (copyright 1995, Gaussian, Inc.),
 the Gaussian 92(TM) system (copyright 1992, Gaussian, Inc.),
 the Gaussian 90(TM) system (copyright 1990, Gaussian, Inc.),
 the Gaussian 88(TM) system (copyright 1988, Gaussian, Inc.),
 the Gaussian 86(TM) system (copyright 1986, Carnegie Mellon
 University), and the Gaussian 82(TM) system (copyright 1983,
 Carnegie Mellon University). Gaussian is a federally registered
 trademark of Gaussian, Inc.
  
 This software contains proprietary and confidential information,
 including trade secrets, belonging to Gaussian, Inc.
  
 This software is provided under written license and may be
 used, copied, transmitted, or stored only in accord with that
 written license.
  
 The following legend is applicable only to US Government
 contracts under FAR:
  
                    RESTRICTED RIGHTS LEGEND
  
 Use, reproduction and disclosure by the US Government is
 subject to restrictions as set forth in subparagraphs (a)
 and (c) of the Commercial Computer Software - Restricted
 Rights clause in FAR 52.227-19.
  
 Gaussian, Inc.
 340 Quinnipiac St., Bldg. 40, Wallingford CT 06492
  
  
 ---------------------------------------------------------------
 Warning -- This program may not be used in any manner that
 competes with the business of Gaussian, Inc. or will provide
 assistance to any competitor of Gaussian, Inc.  The licensee
 of this program is prohibited from giving any competitor of
 Gaussian, Inc. access to this program.  By using this program,
 the user acknowledges that Gaussian, Inc. is engaged in the
 business of creating and licensing software in the field of
 computational chemistry and represents and warrants to the
 licensee that it is not a competitor of Gaussian, Inc. and that
 it will not use this program in any manner prohibited above.
 ---------------------------------------------------------------
  

 Cite this work as:
 Gaussian 09, Revision D.01,
 M. J. Frisch, G. W. Trucks, H. B. Schlegel, G. E. Scuseria, 
 M. A. Robb, J. R. Cheeseman, G. Scalmani, V. Barone, B. Mennucci, 
 G. A. Petersson, H. Nakatsuji, M. Caricato, X. Li, H. P. Hratchian, 
 A. F. Izmaylov, J. Bloino, G. Zheng, J. L. Sonnenberg, M. Hada, 
 M. Ehara, K. Toyota, R. Fukuda, J. Hasegawa, M. Ishida, T. Nakajima, 
 Y. Honda, O. Kitao, H. Nakai, T. Vreven, J. A. Montgomery, Jr., 
 J. E. Peralta, F. Ogliaro, M. Bearpark, J. J. Heyd, E. Brothers, 
 K. N. Kudin, V. N. Staroverov, T. Keith, R. Kobayashi, J. Normand, 
 K. Raghavachari, A. Rendell, J. C. Burant, S. S. Iyengar, J. Tomasi, 
 M. Cossi, N. Rega, J. M. Millam, M. Klene, J. E. Knox, J. B. Cross, 
 V. Bakken, C. Adamo, J. Jaramillo, R. Gomperts, R. E. Stratmann, 
 O. Yazyev, A. J. Austin, R. Cammi, C. Pomelli, J. W. Ochterski, 
 R. L. Martin, K. Morokuma, V. G. Zakrzewski, G. A. Voth, 
 P. Salvador, J. J. Dannenberg, S. Dapprich, A. D. Daniels, 
 O. Farkas, J. B. Foresman, J. V. Ortiz, J. Cioslowski, 
 and D. J. Fox, Gaussian, Inc., Wallingford CT, 2013.
 
 ******************************************
 Gaussian 09:  ES64L-G09RevD.01 24-Apr-2013
                12-May-2021 
 ******************************************
 %chk=/home/unibas/boittier/RDKit_G2/L.pdb/SCAN_1_2_3_4_S_17_20.0/4_SCAN_1_2_3_4_
 F/L.pdb.chk
 %nproc=8
 Will use up to    8 processors via shared memory.
 %mem=16GB
 -----------------------------
 #p wB97XD/6-31+G Opt=ModRedun
 -----------------------------
 1/14=-1,18=120,19=15,26=3,38=1/1,3;
 2/9=110,12=2,17=6,18=5,40=1/2;
 3/5=1,6=6,7=10,11=2,16=1,25=1,30=1,71=1,74=-58/1,2,3;
 4//1;
 5/5=2,38=5/2;
 6/7=2,8=2,9=2,10=2,28=1/1;
 7//1,2,3,16;
 1/14=-1,18=20,19=15,26=3/3(2);
 2/9=110/2;
 99//99;
 2/9=110/2;
 3/5=1,6=6,7=10,11=2,16=1,25=1,30=1,71=1,74=-58/1,2,3;
 4/5=5,16=3,69=1/1;
 5/5=2,38=5/2;
 7//1,2,3,16;
 1/14=-1,18=20,19=15,26=3/3(-5);
 2/9=110/2;
 6/7=2,8=2,9=2,10=2,19=2,28=1/1;
 99/9=1/99;
 Leave Link    1 at Wed May 12 11:58:23 2021, MaxMem=  2147483648 cpu:         0.2
 (Enter /opt/cluster/programs/g09_d.01/g09/l101.exe)
 -----
 L.pdb
 -----
 Symbolic Z-matrix:
 Charge =  0 Multiplicity = 1
 C                     1.67263   0.31443   0.08766 
 C                     0.61499  -0.50111  -0.02194 
 C                    -0.74542  -0.03529  -0.4229 
 O                    -1.659     0.17703   0.38766 
 H                    -0.92046   0.14414  -1.49886 
 H                     2.63336  -0.04931   0.43879 
 H                     1.61651   1.37119  -0.16231 
 H                     0.68932  -1.55052   0.26421 
 
 The following ModRedundant input section has been read:
 D       1       2       3       4 F                                           
 
 NAtoms=      8 NQM=        8 NQMF=       0 NMMI=      0 NMMIF=      0
                NMic=       0 NMicF=      0.
                    Isotopes and Nuclear Properties:
 (Nuclear quadrupole moments (NQMom) in fm**2, nuclear magnetic moments (NMagM)
  in nuclear magnetons)

  Atom         1           2           3           4           5           6           7           8
 IAtWgt=          12          12          12          16           1           1           1           1
 AtmWgt=  12.0000000  12.0000000  12.0000000  15.9949146   1.0078250   1.0078250   1.0078250   1.0078250
 NucSpn=           0           0           0           0           1           1           1           1
 AtZEff=   0.0000000   0.0000000   0.0000000   0.0000000   0.0000000   0.0000000   0.0000000   0.0000000
 NQMom=    0.0000000   0.0000000   0.0000000   0.0000000   0.0000000   0.0000000   0.0000000   0.0000000
 NMagM=    0.0000000   0.0000000   0.0000000   0.0000000   2.7928460   2.7928460   2.7928460   2.7928460
 AtZNuc=   6.0000000   6.0000000   6.0000000   8.0000000   1.0000000   1.0000000   1.0000000   1.0000000
 Leave Link  101 at Wed May 12 11:58:24 2021, MaxMem=  2147483648 cpu:         4.3
 (Enter /opt/cluster/programs/g09_d.01/g09/l103.exe)

 GradGradGradGradGradGradGradGradGradGradGradGradGradGradGradGradGradGrad
 Berny optimization.
 Initialization pass.
                           ----------------------------
                           !    Initial Parameters    !
                           ! (Angstroms and Degrees)  !
 --------------------------                            --------------------------
 ! Name  Definition              Value          Derivative Info.                !
 --------------------------------------------------------------------------------
 ! R1    R(1,2)                  1.34           estimate D2E/DX2                !
 ! R2    R(1,6)                  1.0856         estimate D2E/DX2                !
 ! R3    R(1,7)                  1.0874         estimate D2E/DX2                !
 ! R4    R(2,3)                  1.4928         estimate D2E/DX2                !
 ! R5    R(2,8)                  1.0903         estimate D2E/DX2                !
 ! R6    R(3,4)                  1.2396         estimate D2E/DX2                !
 ! R7    R(3,5)                  1.1048         estimate D2E/DX2                !
 ! A1    A(2,1,6)              121.3989         estimate D2E/DX2                !
 ! A2    A(2,1,7)              122.1354         estimate D2E/DX2                !
 ! A3    A(6,1,7)              116.4647         estimate D2E/DX2                !
 ! A4    A(1,2,3)              123.4576         estimate D2E/DX2                !
 ! A5    A(1,2,8)              120.6978         estimate D2E/DX2                !
 ! A6    A(3,2,8)              115.6568         estimate D2E/DX2                !
 ! A7    A(2,3,4)              123.3284         estimate D2E/DX2                !
 ! A8    A(2,3,5)              117.1713         estimate D2E/DX2                !
 ! A9    A(4,3,5)              119.487          estimate D2E/DX2                !
 ! D1    D(6,1,2,3)            176.3171         estimate D2E/DX2                !
 ! D2    D(6,1,2,8)              1.5172         estimate D2E/DX2                !
 ! D3    D(7,1,2,3)             -3.3086         estimate D2E/DX2                !
 ! D4    D(7,1,2,8)           -178.1085         estimate D2E/DX2                !
 ! D5    D(1,2,3,4)            -99.9989         Frozen                          !
 ! D6    D(1,2,3,5)             78.6637         estimate D2E/DX2                !
 ! D7    D(8,2,3,4)             75.0412         estimate D2E/DX2                !
 ! D8    D(8,2,3,5)           -106.2961         estimate D2E/DX2                !
 --------------------------------------------------------------------------------
 Trust Radius=3.00D-01 FncErr=1.00D-07 GrdErr=1.00D-06
 Number of steps in this run=     34 maximum allowed number of steps=    100.
 GradGradGradGradGradGradGradGradGradGradGradGradGradGradGradGradGradGrad

 Leave Link  103 at Wed May 12 11:58:24 2021, MaxMem=  2147483648 cpu:         0.1
 (Enter /opt/cluster/programs/g09_d.01/g09/l202.exe)
                          Input orientation:                          
 ---------------------------------------------------------------------
 Center     Atomic      Atomic             Coordinates (Angstroms)
 Number     Number       Type             X           Y           Z
 ---------------------------------------------------------------------
      1          6           0        1.672633    0.314434    0.087656
      2          6           0        0.614991   -0.501106   -0.021943
      3          6           0       -0.745415   -0.035287   -0.422896
      4          8           0       -1.659000    0.177032    0.387658
      5          1           0       -0.920455    0.144137   -1.498862
      6          1           0        2.633363   -0.049313    0.438787
      7          1           0        1.616512    1.371191   -0.162309
      8          1           0        0.689324   -1.550522    0.264214
 ---------------------------------------------------------------------
                    Distance matrix (angstroms):
                    1          2          3          4          5
     1  C    0.000000
     2  C    1.340046   0.000000
     3  C    2.495982   1.492801   0.000000
     4  O    3.347934   2.408045   1.239643   0.000000
     5  H    3.044691   2.226033   1.104778   2.026201   0.000000
     6  H    1.085637   2.119013   3.486952   4.298631   4.052349
     7  H    1.087367   2.127967   2.761301   3.529512   3.119012
     8  H    2.115687   1.090268   2.196937   2.917929   2.927746
                    6          7          8
     6  H    0.000000
     7  H    1.847467   0.000000
     8  H    2.462396   3.094835   0.000000
 Stoichiometry    C3H4O
 Framework group  C1[X(C3H4O)]
 Deg. of freedom    18
 Full point group                 C1      NOp   1
 Largest Abelian subgroup         C1      NOp   1
 Largest concise Abelian subgroup C1      NOp   1
                         Standard orientation:                         
 ---------------------------------------------------------------------
 Center     Atomic      Atomic             Coordinates (Angstroms)
 Number     Number       Type             X           Y           Z
 ---------------------------------------------------------------------
      1          6           0        1.672633   -0.314434   -0.087656
      2          6           0        0.614991    0.501106    0.021943
      3          6           0       -0.745415    0.035287    0.422896
      4          8           0       -1.659000   -0.177032   -0.387658
      5          1           0       -0.920455   -0.144137    1.498862
      6          1           0        2.633363    0.049313   -0.438787
      7          1           0        1.616512   -1.371191    0.162309
      8          1           0        0.689324    1.550522   -0.264214
 ---------------------------------------------------------------------
 Rotational constants (GHZ):     31.2455018      4.7518171      4.6405096
 Leave Link  202 at Wed May 12 11:58:24 2021, MaxMem=  2147483648 cpu:         0.0
 (Enter /opt/cluster/programs/g09_d.01/g09/l301.exe)
 Standard basis: 6-31+G (6D, 7F)
 Ernie: Thresh=  0.10000D-02 Tol=  0.10000D-05 Strict=F.
 There are    60 symmetry adapted cartesian basis functions of A   symmetry.
 There are    60 symmetry adapted basis functions of A   symmetry.
    60 basis functions,   120 primitive gaussians,    60 cartesian basis functions
    15 alpha electrons       15 beta electrons
       nuclear repulsion energy       102.2097816015 Hartrees.
 IExCor= 4639 DFT=T Ex+Corr=wB97XD ExCW=0 ScaHFX=  1.000000
 ScaDFX=  1.000000  1.000000  1.000000  1.000000 ScalE2=  1.000000  1.000000
 IRadAn=      0 IRanWt=     -1 IRanGd=            0 ICorTp=0 IEmpDi=121
  HFx wShort=  0.000000 wLong=  0.200000 cFull=  0.222036 cShort=  0.000000 cLong=  0.777964
  DFx wShort=  0.000000 wLong=  0.200000 cFull=  0.000000 cShort=  0.000000 cLong=  1.000000
 NAtoms=    8 NActive=    8 NUniq=    8 SFac= 1.00D+00 NAtFMM=   60 NAOKFM=F Big=F
 Integral buffers will be    131072 words long.
 Raffenetti 2 integral format.
 Two-electron integral symmetry is turned on.
 R6Disp:  Grimme-D2 Dispersion energy=       -0.0017849851 Hartrees.
 Nuclear repulsion after empirical dispersion term =      102.2079966164 Hartrees.
 Leave Link  301 at Wed May 12 11:58:24 2021, MaxMem=  2147483648 cpu:         0.3
 (Enter /opt/cluster/programs/g09_d.01/g09/l302.exe)
 NPDir=0 NMtPBC=     1 NCelOv=     1 NCel=       1 NClECP=     1 NCelD=      1
         NCelK=      1 NCelE2=     1 NClLst=     1 CellRange=     0.0.
 One-electron integrals computed using PRISM.
 NBasis=    60 RedAO= T EigKep=  1.35D-04  NBF=    60
 NBsUse=    60 1.00D-06 EigRej= -1.00D+00 NBFU=    60
 Precomputing XC quadrature grid using
 IXCGrd= 4 IRadAn=           0 IRanWt=          -1 IRanGd=           0 AccXCQ= 0.00D+00.
 Generated NRdTot=       0 NPtTot=           0 NUsed=           0 NTot=          32
 NSgBfM=    60    60    60    60    60 MxSgAt=     8 MxSgA2=     8.
 Leave Link  302 at Wed May 12 11:58:24 2021, MaxMem=  2147483648 cpu:         0.8
 (Enter /opt/cluster/programs/g09_d.01/g09/l303.exe)
 DipDrv:  MaxL=1.
 Leave Link  303 at Wed May 12 11:58:24 2021, MaxMem=  2147483648 cpu:         0.2
 (Enter /opt/cluster/programs/g09_d.01/g09/l401.exe)
 ExpMin= 4.38D-02 ExpMax= 5.48D+03 ExpMxC= 8.25D+02 IAcc=2 IRadAn=         4 AccDes= 0.00D+00
 Harris functional with IExCor= 4639 and IRadAn=       4 diagonalized for initial guess.
 HarFok:  IExCor= 4639 AccDes= 0.00D+00 IRadAn=         4 IDoV= 1 UseB2=F ITyADJ=14
 ICtDFT=  3500011 ScaDFX=  1.000000  1.000000  1.000000  1.000000
 FoFCou: FMM=F IPFlag=           0 FMFlag=      100000 FMFlg1=           0
         NFxFlg=           0 DoJE=T BraDBF=F KetDBF=T FulRan=T
         wScrn=  0.000000 ICntrl=     500 IOpCl=  0 I1Cent=   200000004 NGrid=           0
         NMat0=    1 NMatS0=      1 NMatT0=    0 NMatD0=    1 NMtDS0=    0 NMtDT0=    0
 Petite list used in FoFCou.
 Harris En= -183.740491019702    
 JPrj=0 DoOrth=F DoCkMO=F.
 Leave Link  401 at Wed May 12 11:58:24 2021, MaxMem=  2147483648 cpu:         1.0
 (Enter /opt/cluster/programs/g09_d.01/g09/l502.exe)
 Closed shell SCF:
 Using DIIS extrapolation, IDIIS=  1040.
 Integral symmetry usage will be decided dynamically.
 Keep R1 ints in memory in canonical form, NReq=4262490.
 IVT=       30290 IEndB=       30290 NGot=  2147483648 MDV=  2144102629
 LenX=  2144102629 LenY=  2144098588
 Requested convergence on RMS density matrix=1.00D-08 within 128 cycles.
 Requested convergence on MAX density matrix=1.00D-06.
 Requested convergence on             energy=1.00D-06.
 No special actions if energy rises.
 FoFCou: FMM=F IPFlag=           0 FMFlag=           0 FMFlg1=           0
         NFxFlg=           0 DoJE=F BraDBF=F KetDBF=F FulRan=T
         wScrn=  0.000000 ICntrl=     600 IOpCl=  0 I1Cent=           0 NGrid=           0
         NMat0=    1 NMatS0=   1830 NMatT0=    0 NMatD0=    1 NMtDS0=    0 NMtDT0=    0
 Symmetry not used in FoFCou.

 Cycle   1  Pass 1  IDiag  1:
 E= -191.740339104925    
 DIIS: error= 2.26D-02 at cycle   1 NSaved=   1.
 NSaved= 1 IEnMin= 1 EnMin= -191.740339104925     IErMin= 1 ErrMin= 2.26D-02
 ErrMax= 2.26D-02  0.00D+00 EMaxC= 1.00D-01 BMatC= 7.51D-02 BMatP= 7.51D-02
 IDIUse=3 WtCom= 7.74D-01 WtEn= 2.26D-01
 Coeff-Com:  0.100D+01
 Coeff-En:   0.100D+01
 Coeff:      0.100D+01
 Gap=     0.430 Goal=   None    Shift=    0.000
 GapD=    0.430 DampG=2.000 DampE=0.500 DampFc=1.0000 IDamp=-1.
 RMSDP=9.78D-03 MaxDP=1.13D-01              OVMax= 7.85D-02

 Cycle   2  Pass 1  IDiag  1:
 E= -191.754933518658     Delta-E=       -0.014594413733 Rises=F Damp=F
 DIIS: error= 2.22D-02 at cycle   2 NSaved=   2.
 NSaved= 2 IEnMin= 2 EnMin= -191.754933518658     IErMin= 2 ErrMin= 2.22D-02
 ErrMax= 2.22D-02  0.00D+00 EMaxC= 1.00D-01 BMatC= 3.32D-02 BMatP= 7.51D-02
 IDIUse=3 WtCom= 7.78D-01 WtEn= 2.22D-01
 Coeff-Com:  0.378D+00 0.622D+00
 Coeff-En:   0.362D+00 0.638D+00
 Coeff:      0.374D+00 0.626D+00
 Gap=     0.406 Goal=   None    Shift=    0.000
 RMSDP=3.73D-03 MaxDP=5.62D-02 DE=-1.46D-02 OVMax= 7.04D-02

 Cycle   3  Pass 1  IDiag  1:
 E= -191.776484786990     Delta-E=       -0.021551268333 Rises=F Damp=F
 DIIS: error= 9.02D-03 at cycle   3 NSaved=   3.
 NSaved= 3 IEnMin= 3 EnMin= -191.776484786990     IErMin= 3 ErrMin= 9.02D-03
 ErrMax= 9.02D-03  0.00D+00 EMaxC= 1.00D-01 BMatC= 7.69D-03 BMatP= 3.32D-02
 IDIUse=3 WtCom= 9.10D-01 WtEn= 9.02D-02
 Coeff-Com:  0.662D-01 0.332D+00 0.602D+00
 Coeff-En:   0.000D+00 0.142D+00 0.858D+00
 Coeff:      0.602D-01 0.315D+00 0.625D+00
 Gap=     0.369 Goal=   None    Shift=    0.000
 RMSDP=1.62D-03 MaxDP=2.26D-02 DE=-2.16D-02 OVMax= 3.24D-02

 Cycle   4  Pass 1  IDiag  1:
 E= -191.781730757601     Delta-E=       -0.005245970611 Rises=F Damp=F
 DIIS: error= 3.46D-03 at cycle   4 NSaved=   4.
 NSaved= 4 IEnMin= 4 EnMin= -191.781730757601     IErMin= 4 ErrMin= 3.46D-03
 ErrMax= 3.46D-03  0.00D+00 EMaxC= 1.00D-01 BMatC= 8.52D-04 BMatP= 7.69D-03
 IDIUse=3 WtCom= 9.65D-01 WtEn= 3.46D-02
 Coeff-Com: -0.411D-02 0.894D-01 0.324D+00 0.591D+00
 Coeff-En:   0.000D+00 0.000D+00 0.563D-01 0.944D+00
 Coeff:     -0.397D-02 0.863D-01 0.314D+00 0.603D+00
 Gap=     0.364 Goal=   None    Shift=    0.000
 RMSDP=6.20D-04 MaxDP=6.15D-03 DE=-5.25D-03 OVMax= 9.36D-03

 Cycle   5  Pass 1  IDiag  1:
 E= -191.782440916377     Delta-E=       -0.000710158776 Rises=F Damp=F
 DIIS: error= 9.34D-04 at cycle   5 NSaved=   5.
 NSaved= 5 IEnMin= 5 EnMin= -191.782440916377     IErMin= 5 ErrMin= 9.34D-04
 ErrMax= 9.34D-04  0.00D+00 EMaxC= 1.00D-01 BMatC= 2.71D-05 BMatP= 8.52D-04
 IDIUse=3 WtCom= 9.91D-01 WtEn= 9.34D-03
 Coeff-Com: -0.461D-02 0.219D-01 0.110D+00 0.264D+00 0.609D+00
 Coeff-En:   0.000D+00 0.000D+00 0.000D+00 0.000D+00 0.100D+01
 Coeff:     -0.456D-02 0.217D-01 0.109D+00 0.262D+00 0.613D+00
 Gap=     0.364 Goal=   None    Shift=    0.000
 RMSDP=1.39D-04 MaxDP=1.49D-03 DE=-7.10D-04 OVMax= 2.62D-03

 Cycle   6  Pass 1  IDiag  1:
 E= -191.782468968778     Delta-E=       -0.000028052401 Rises=F Damp=F
 DIIS: error= 1.44D-04 at cycle   6 NSaved=   6.
 NSaved= 6 IEnMin= 6 EnMin= -191.782468968778     IErMin= 6 ErrMin= 1.44D-04
 ErrMax= 1.44D-04  0.00D+00 EMaxC= 1.00D-01 BMatC= 1.51D-06 BMatP= 2.71D-05
 IDIUse=3 WtCom= 9.99D-01 WtEn= 1.44D-03
 Coeff-Com: -0.610D-04-0.122D-01-0.322D-01-0.417D-01 0.135D+00 0.951D+00
 Coeff-En:   0.000D+00 0.000D+00 0.000D+00 0.000D+00 0.000D+00 0.100D+01
 Coeff:     -0.609D-04-0.122D-01-0.322D-01-0.416D-01 0.135D+00 0.952D+00
 Gap=     0.365 Goal=   None    Shift=    0.000
 RMSDP=1.16D-04 MaxDP=1.62D-03 DE=-2.81D-05 OVMax= 8.85D-04

 Cycle   7  Pass 1  IDiag  1:
 E= -191.782471809014     Delta-E=       -0.000002840236 Rises=F Damp=F
 DIIS: error= 3.87D-05 at cycle   7 NSaved=   7.
 NSaved= 7 IEnMin= 7 EnMin= -191.782471809014     IErMin= 7 ErrMin= 3.87D-05
 ErrMax= 3.87D-05  0.00D+00 EMaxC= 1.00D-01 BMatC= 9.80D-08 BMatP= 1.51D-06
 IDIUse=1 WtCom= 1.00D+00 WtEn= 0.00D+00
 Coeff-Com:  0.305D-03-0.456D-02-0.157D-01-0.247D-01-0.344D-02 0.244D+00
 Coeff-Com:  0.804D+00
 Coeff:      0.305D-03-0.456D-02-0.157D-01-0.247D-01-0.344D-02 0.244D+00
 Coeff:      0.804D+00
 Gap=     0.365 Goal=   None    Shift=    0.000
 RMSDP=1.70D-05 MaxDP=1.70D-04 DE=-2.84D-06 OVMax= 2.67D-04

 Cycle   8  Pass 1  IDiag  1:
 E= -191.782472015986     Delta-E=       -0.000000206971 Rises=F Damp=F
 DIIS: error= 1.99D-05 at cycle   8 NSaved=   8.
 NSaved= 8 IEnMin= 8 EnMin= -191.782472015986     IErMin= 8 ErrMin= 1.99D-05
 ErrMax= 1.99D-05  0.00D+00 EMaxC= 1.00D-01 BMatC= 8.47D-09 BMatP= 9.80D-08
 IDIUse=1 WtCom= 1.00D+00 WtEn= 0.00D+00
 Coeff-Com: -0.205D-04 0.152D-02 0.380D-02 0.626D-02-0.190D-01-0.120D+00
 Coeff-Com:  0.904D-02 0.112D+01
 Coeff:     -0.205D-04 0.152D-02 0.380D-02 0.626D-02-0.190D-01-0.120D+00
 Coeff:      0.904D-02 0.112D+01
 Gap=     0.365 Goal=   None    Shift=    0.000
 RMSDP=6.40D-06 MaxDP=3.72D-05 DE=-2.07D-07 OVMax= 1.77D-04

 Cycle   9  Pass 1  IDiag  1:
 E= -191.782472051857     Delta-E=       -0.000000035872 Rises=F Damp=F
 DIIS: error= 5.93D-06 at cycle   9 NSaved=   9.
 NSaved= 9 IEnMin= 9 EnMin= -191.782472051857     IErMin= 9 ErrMin= 5.93D-06
 ErrMax= 5.93D-06  0.00D+00 EMaxC= 1.00D-01 BMatC= 4.25D-10 BMatP= 8.47D-09
 IDIUse=1 WtCom= 1.00D+00 WtEn= 0.00D+00
 Coeff-Com: -0.187D-04 0.111D-03 0.634D-03 0.108D-02 0.386D-02 0.142D-02
 Coeff-Com: -0.639D-01-0.173D+00 0.123D+01
 Coeff:     -0.187D-04 0.111D-03 0.634D-03 0.108D-02 0.386D-02 0.142D-02
 Coeff:     -0.639D-01-0.173D+00 0.123D+01
 Gap=     0.365 Goal=   None    Shift=    0.000
 RMSDP=2.55D-06 MaxDP=2.87D-05 DE=-3.59D-08 OVMax= 6.21D-05

 Cycle  10  Pass 1  IDiag  1:
 E= -191.782472055351     Delta-E=       -0.000000003494 Rises=F Damp=F
 DIIS: error= 2.04D-06 at cycle  10 NSaved=  10.
 NSaved=10 IEnMin=10 EnMin= -191.782472055351     IErMin=10 ErrMin= 2.04D-06
 ErrMax= 2.04D-06  0.00D+00 EMaxC= 1.00D-01 BMatC= 4.74D-11 BMatP= 4.25D-10
 IDIUse=1 WtCom= 1.00D+00 WtEn= 0.00D+00
 Coeff-Com:  0.763D-05-0.141D-03-0.498D-03-0.810D-03-0.126D-03 0.769D-02
 Coeff-Com:  0.232D-01-0.619D-02-0.497D+00 0.147D+01
 Coeff:      0.763D-05-0.141D-03-0.498D-03-0.810D-03-0.126D-03 0.769D-02
 Coeff:      0.232D-01-0.619D-02-0.497D+00 0.147D+01
 Gap=     0.365 Goal=   None    Shift=    0.000
 RMSDP=8.30D-07 MaxDP=7.09D-06 DE=-3.49D-09 OVMax= 2.85D-05

 Cycle  11  Pass 1  IDiag  1:
 E= -191.782472055853     Delta-E=       -0.000000000501 Rises=F Damp=F
 DIIS: error= 6.15D-07 at cycle  11 NSaved=  11.
 NSaved=11 IEnMin=11 EnMin= -191.782472055853     IErMin=11 ErrMin= 6.15D-07
 ErrMax= 6.15D-07  0.00D+00 EMaxC= 1.00D-01 BMatC= 5.80D-12 BMatP= 4.74D-11
 IDIUse=1 WtCom= 1.00D+00 WtEn= 0.00D+00
 Coeff-Com: -0.173D-05 0.472D-04 0.156D-03 0.205D-03-0.255D-03-0.364D-02
 Coeff-Com: -0.436D-02 0.181D-01 0.102D+00-0.660D+00 0.155D+01
 Coeff:     -0.173D-05 0.472D-04 0.156D-03 0.205D-03-0.255D-03-0.364D-02
 Coeff:     -0.436D-02 0.181D-01 0.102D+00-0.660D+00 0.155D+01
 Gap=     0.365 Goal=   None    Shift=    0.000
 RMSDP=2.90D-07 MaxDP=2.59D-06 DE=-5.01D-10 OVMax= 1.10D-05

 Cycle  12  Pass 1  IDiag  1:
 E= -191.782472055903     Delta-E=       -0.000000000051 Rises=F Damp=F
 DIIS: error= 1.20D-07 at cycle  12 NSaved=  12.
 NSaved=12 IEnMin=12 EnMin= -191.782472055903     IErMin=12 ErrMin= 1.20D-07
 ErrMax= 1.20D-07  0.00D+00 EMaxC= 1.00D-01 BMatC= 1.87D-13 BMatP= 5.80D-12
 IDIUse=1 WtCom= 1.00D+00 WtEn= 0.00D+00
 Coeff-Com:  0.109D-06-0.558D-05-0.146D-04-0.799D-05 0.967D-04 0.738D-03
 Coeff-Com: -0.175D-03-0.566D-02 0.269D-02 0.109D+00-0.477D+00 0.137D+01
 Coeff:      0.109D-06-0.558D-05-0.146D-04-0.799D-05 0.967D-04 0.738D-03
 Coeff:     -0.175D-03-0.566D-02 0.269D-02 0.109D+00-0.477D+00 0.137D+01
 Gap=     0.365 Goal=   None    Shift=    0.000
 RMSDP=6.28D-08 MaxDP=7.32D-07 DE=-5.08D-11 OVMax= 1.72D-06

 Cycle  13  Pass 1  IDiag  1:
 E= -191.782472055906     Delta-E=       -0.000000000002 Rises=F Damp=F
 DIIS: error= 1.74D-08 at cycle  13 NSaved=  13.
 NSaved=13 IEnMin=13 EnMin= -191.782472055906     IErMin=13 ErrMin= 1.74D-08
 ErrMax= 1.74D-08  0.00D+00 EMaxC= 1.00D-01 BMatC= 1.11D-14 BMatP= 1.87D-13
 IDIUse=1 WtCom= 1.00D+00 WtEn= 0.00D+00
 Coeff-Com:  0.246D-07-0.150D-06-0.205D-05-0.390D-05-0.208D-04-0.685D-04
 Coeff-Com:  0.160D-03 0.778D-03-0.360D-02-0.791D-02 0.779D-01-0.396D+00
 Coeff-Com:  0.133D+01
 Coeff:      0.246D-07-0.150D-06-0.205D-05-0.390D-05-0.208D-04-0.685D-04
 Coeff:      0.160D-03 0.778D-03-0.360D-02-0.791D-02 0.779D-01-0.396D+00
 Coeff:      0.133D+01
 Gap=     0.365 Goal=   None    Shift=    0.000
 RMSDP=1.12D-08 MaxDP=1.23D-07 DE=-2.27D-12 OVMax= 1.95D-07

 Cycle  14  Pass 1  IDiag  1:
 E= -191.782472055906     Delta-E=       -0.000000000001 Rises=F Damp=F
 DIIS: error= 2.06D-09 at cycle  14 NSaved=  14.
 NSaved=14 IEnMin=14 EnMin= -191.782472055906     IErMin=14 ErrMin= 2.06D-09
 ErrMax= 2.06D-09  0.00D+00 EMaxC= 1.00D-01 BMatC= 1.89D-16 BMatP= 1.11D-14
 IDIUse=1 WtCom= 1.00D+00 WtEn= 0.00D+00
 Coeff-Com: -0.978D-08 0.158D-06 0.853D-06 0.128D-05 0.148D-05-0.214D-05
 Coeff-Com: -0.382D-04-0.226D-04 0.755D-03-0.101D-02-0.552D-02 0.566D-01
 Coeff-Com: -0.311D+00 0.126D+01
 Coeff:     -0.978D-08 0.158D-06 0.853D-06 0.128D-05 0.148D-05-0.214D-05
 Coeff:     -0.382D-04-0.226D-04 0.755D-03-0.101D-02-0.552D-02 0.566D-01
 Coeff:     -0.311D+00 0.126D+01
 Gap=     0.365 Goal=   None    Shift=    0.000
 RMSDP=1.55D-09 MaxDP=1.28D-08 DE=-5.68D-13 OVMax= 2.70D-08

 SCF Done:  E(RwB97XD) =  -191.782472056     A.U. after   14 cycles
            NFock= 14  Conv=0.15D-08     -V/T= 2.0061
 KE= 1.906253196449D+02 PE=-6.517706495863D+02 EE= 1.671548612690D+02
 Leave Link  502 at Wed May 12 11:58:25 2021, MaxMem=  2147483648 cpu:         9.3
 (Enter /opt/cluster/programs/g09_d.01/g09/l601.exe)
 Copying SCF densities to generalized density rwf, IOpCl= 0 IROHF=0.

 **********************************************************************

            Population analysis using the SCF density.

 **********************************************************************

 Orbital symmetries:
       Occupied  (A) (A) (A) (A) (A) (A) (A) (A) (A) (A) (A) (A)
                 (A) (A) (A)
       Virtual   (A) (A) (A) (A) (A) (A) (A) (A) (A) (A) (A) (A)
                 (A) (A) (A) (A) (A) (A) (A) (A) (A) (A) (A) (A)
                 (A) (A) (A) (A) (A) (A) (A) (A) (A) (A) (A) (A)
                 (A) (A) (A) (A) (A) (A) (A) (A) (A)
 The electronic state is 1-A.
 Alpha  occ. eigenvalues --  -19.29802 -10.41442 -10.33301 -10.32643  -1.17695
 Alpha  occ. eigenvalues --   -0.90982  -0.76207  -0.67103  -0.59612  -0.56596
 Alpha  occ. eigenvalues --   -0.53772  -0.48988  -0.46785  -0.37754  -0.35574
 Alpha virt. eigenvalues --    0.00885   0.05015   0.07567   0.08585   0.09089
 Alpha virt. eigenvalues --    0.11023   0.12443   0.13228   0.14720   0.16685
 Alpha virt. eigenvalues --    0.17079   0.17779   0.19450   0.22495   0.27611
 Alpha virt. eigenvalues --    0.28135   0.29781   0.31008   0.32546   0.33510
 Alpha virt. eigenvalues --    0.36902   0.39835   0.43910   0.45391   0.50311
 Alpha virt. eigenvalues --    0.69179   0.72132   0.75583   0.78566   0.80726
 Alpha virt. eigenvalues --    0.85799   0.88771   0.89647   1.01323   1.05180
 Alpha virt. eigenvalues --    1.09460   1.12109   1.13594   1.23485   1.26888
 Alpha virt. eigenvalues --    1.31504   1.32864   1.38643   1.46610   1.88868
          Condensed to atoms (all electrons):
               1          2          3          4          5          6
     1  C    5.006934   0.585092   0.022053  -0.024391  -0.002609   0.367172
     2  C    0.585092   5.226859   0.241315  -0.103223  -0.086010  -0.017990
     3  C    0.022053   0.241315   5.068775   0.294496   0.361151   0.006587
     4  O   -0.024391  -0.103223   0.294496   8.276003  -0.073958  -0.000344
     5  H   -0.002609  -0.086010   0.361151  -0.073958   0.612252  -0.000123
     6  H    0.367172  -0.017990   0.006587  -0.000344  -0.000123   0.467627
     7  H    0.387888  -0.054556   0.010658   0.000301   0.000281  -0.022998
     8  H    0.001702   0.342361  -0.019122  -0.001162   0.001232  -0.004417
               7          8
     1  C    0.387888   0.001702
     2  C   -0.054556   0.342361
     3  C    0.010658  -0.019122
     4  O    0.000301  -0.001162
     5  H    0.000281   0.001232
     6  H   -0.022998  -0.004417
     7  H    0.472663   0.002512
     8  H    0.002512   0.441089
 Mulliken charges:
               1
     1  C   -0.343841
     2  C   -0.133848
     3  C    0.014086
     4  O   -0.367722
     5  H    0.187783
     6  H    0.204487
     7  H    0.203251
     8  H    0.235805
 Sum of Mulliken charges =   0.00000
 Mulliken charges with hydrogens summed into heavy atoms:
               1
     1  C    0.063897
     2  C    0.101957
     3  C    0.201869
     4  O   -0.367722
 Electronic spatial extent (au):  <R**2>=            293.9035
 Charge=              0.0000 electrons
 Dipole moment (field-independent basis, Debye):
    X=              2.6768    Y=              0.5210    Z=              1.6125  Tot=              3.1681
 Quadrupole moment (field-independent basis, Debye-Ang):
   XX=            -27.2499   YY=            -21.9680   ZZ=            -25.2248
   XY=             -1.2077   XZ=             -3.4854   YZ=             -0.9659
 Traceless Quadrupole moment (field-independent basis, Debye-Ang):
   XX=             -2.4356   YY=              2.8462   ZZ=             -0.4106
   XY=             -1.2077   XZ=             -3.4854   YZ=             -0.9659
 Octapole moment (field-independent basis, Debye-Ang**2):
  XXX=             11.4425  YYY=              0.3146  ZZZ=              1.3941  XYY=             -0.1406
  XXY=              0.8676  XXZ=              0.5950  XZZ=             -3.7139  YZZ=             -0.3924
  YYZ=             -0.7019  XYZ=             -0.6901
 Hexadecapole moment (field-independent basis, Debye-Ang**3):
 XXXX=           -285.7492 YYYY=            -47.6552 ZZZZ=            -48.7434 XXXY=             -3.0726
 XXXZ=            -10.7272 YYYX=             -0.2620 YYYZ=             -1.9740 ZZZX=             -1.7270
 ZZZY=             -0.8120 XXYY=            -54.2540 XXZZ=            -57.9328 YYZZ=            -17.6721
 XXYZ=             -1.9891 YYXZ=              0.1573 ZZXY=              0.5328
 N-N= 1.022079966164D+02 E-N=-6.517706495788D+02  KE= 1.906253196449D+02
 No NMR shielding tensors so no spin-rotation constants.
 Leave Link  601 at Wed May 12 11:58:25 2021, MaxMem=  2147483648 cpu:         0.6
 (Enter /opt/cluster/programs/g09_d.01/g09/l701.exe)
 Compute integral first derivatives.
 ... and contract with generalized density number  0.
 R6Disp: Adding Grimme-D2 dispersion energy 1st derivatives to the gradient.
 Leave Link  701 at Wed May 12 11:58:25 2021, MaxMem=  2147483648 cpu:         0.6
 (Enter /opt/cluster/programs/g09_d.01/g09/l702.exe)
 L702 exits ... SP integral derivatives will be done elsewhere.
 Leave Link  702 at Wed May 12 11:58:25 2021, MaxMem=  2147483648 cpu:         0.2
 (Enter /opt/cluster/programs/g09_d.01/g09/l703.exe)
 Compute integral first derivatives, UseDBF=F ICtDFT=           0.
 Integral derivatives from FoFJK, PRISM(SPDF).
 Calling FoFJK, ICntrl=      2127 FMM=F ISym2X=0 I1Cent= 0 IOpClX= 0 NMat=1 NMatS=1 NMatT=0.
 FoFJK:  IHMeth= 1 ICntrl=    2127 DoSepK=T KAlg= 0 I1Cent=   0 FoldK=F
 IRaf=         1 NMat=   1 IRICut=       1 DoRegI=T DoRafI=F ISym2E= 0.
 FoFCou: FMM=F IPFlag=           0 FMFlag=      100000 FMFlg1=         800
         NFxFlg=           0 DoJE=F BraDBF=F KetDBF=F FulRan=T
         wScrn=  0.000000 ICntrl=    2527 IOpCl=  0 I1Cent=           0 NGrid=           0
         NMat0=    1 NMatS0=      1 NMatT0=    0 NMatD0=    1 NMtDS0=    0 NMtDT0=    0
 Symmetry not used in FoFCou.
 Leave Link  703 at Wed May 12 11:58:26 2021, MaxMem=  2147483648 cpu:         2.4
 (Enter /opt/cluster/programs/g09_d.01/g09/l716.exe)
 Dipole        = 1.05311944D+00 2.04973179D-01 6.34417118D-01
 ***** Axes restored to original set *****
 -------------------------------------------------------------------
 Center     Atomic                   Forces (Hartrees/Bohr)
 Number     Number              X              Y              Z
 -------------------------------------------------------------------
      1        6          -0.002853053   -0.002544461   -0.003375099
      2        6           0.001138068    0.001442630    0.005294045
      3        6          -0.003488720    0.005922474    0.002663473
      4        8           0.006201597   -0.004518594   -0.005923167
      5        1           0.000160913   -0.000378769    0.001827236
      6        1          -0.000781713   -0.000313881   -0.000232094
      7        1          -0.000490905   -0.000451829    0.000170719
      8        1           0.000113812    0.000842430   -0.000425115
 -------------------------------------------------------------------
 Cartesian Forces:  Max     0.006201597 RMS     0.002967606
 Leave Link  716 at Wed May 12 11:58:26 2021, MaxMem=  2147483648 cpu:         0.2
 (Enter /opt/cluster/programs/g09_d.01/g09/l103.exe)

 GradGradGradGradGradGradGradGradGradGradGradGradGradGradGradGradGradGrad
 Berny optimization.
 FormGI is forming the generalized inverse of G from B-inverse, IUseBI=4.
 Internal  Forces:  Max     0.009215884 RMS     0.002499706
 Search for a local minimum.
 Step number   1 out of a maximum of   34
 All quantities printed in internal units (Hartrees-Bohrs-Radians)
 RMS Force = .23622D-02 SwitMx=.10000D-02 MixMth= 1
 Mixed Optimization -- RFO/linear search
 Second derivative matrix not updated -- first step.
 ITU=  0
     Eigenvalues ---    0.00862   0.01728   0.02882   0.02882   0.15962
     Eigenvalues ---    0.16000   0.16000   0.16000   0.22001   0.22009
     Eigenvalues ---    0.33144   0.33159   0.34782   0.35119   0.35322
     Eigenvalues ---    0.57195   0.871841000.000001000.000001000.00000
     Eigenvalues --- 1000.000001000.000001000.000001000.00000
 RFO step:  Lambda=-2.04701292D-04 EMin= 8.62319538D-03
 Linear search not attempted -- first point.
 Iteration  1 RMS(Cart)=  0.00852438 RMS(Int)=  0.00003013
 Iteration  2 RMS(Cart)=  0.00002952 RMS(Int)=  0.00000569
 Iteration  3 RMS(Cart)=  0.00000000 RMS(Int)=  0.00000569
 Iteration  1 RMS(Cart)=  0.00000028 RMS(Int)=  0.00000021
 ITry= 1 IFail=0 DXMaxC= 2.14D-02 DCOld= 1.00D+10 DXMaxT= 3.00D-01 DXLimC= 3.00D+00 Rises=F
 Variable       Old X    -DE/DX   Delta X   Delta X   Delta X     New X
                                 (Linear)    (Quad)   (Total)
    R1        2.53232  -0.00556   0.00000  -0.00971  -0.00971   2.52261
    R2        2.05156  -0.00066   0.00000  -0.00186  -0.00186   2.04969
    R3        2.05483  -0.00046   0.00000  -0.00130  -0.00130   2.05352
    R4        2.82099  -0.00191   0.00000  -0.00576  -0.00576   2.81523
    R5        2.06031  -0.00091   0.00000  -0.00262  -0.00262   2.05768
    R6        2.34259  -0.00922   0.00000  -0.01057  -0.01057   2.33202
    R7        2.08773  -0.00187   0.00000  -0.00562  -0.00562   2.08210
    A1        2.11881  -0.00046   0.00000  -0.00286  -0.00286   2.11595
    A2        2.13167  -0.00026   0.00000  -0.00164  -0.00164   2.13003
    A3        2.03269   0.00072   0.00000   0.00448   0.00448   2.03717
    A4        2.15474  -0.00109   0.00000  -0.00491  -0.00493   2.14982
    A5        2.10657   0.00054   0.00000   0.00203   0.00202   2.10859
    A6        2.01859   0.00066   0.00000   0.00363   0.00361   2.02220
    A7        2.15249  -0.00080   0.00000  -0.00369  -0.00370   2.14879
    A8        2.04502   0.00054   0.00000   0.00260   0.00259   2.04762
    A9        2.08544   0.00032   0.00000   0.00124   0.00123   2.08667
    D1        3.07731   0.00090   0.00000   0.00767   0.00767   3.08498
    D2        0.02648  -0.00076   0.00000  -0.00286  -0.00286   0.02362
    D3       -0.05775   0.00098   0.00000   0.01036   0.01036  -0.04739
    D4       -3.10858  -0.00068   0.00000  -0.00017  -0.00017  -3.10875
    D5       -1.74531  -0.00366   0.00000   0.00000   0.00000  -1.74531
    D6        1.37294  -0.00068   0.00000   0.00744   0.00744   1.38038
    D7        1.30972  -0.00208   0.00000   0.01000   0.01000   1.31971
    D8       -1.85522   0.00090   0.00000   0.01743   0.01744  -1.83778
         Item               Value     Threshold  Converged?
 Maximum Force            0.009216     0.000450     NO 
 RMS     Force            0.002362     0.000300     NO 
 Maximum Displacement     0.021412     0.001800     NO 
 RMS     Displacement     0.008529     0.001200     NO 
 Predicted change in Energy=-1.024413D-04
 Lowest energy point so far.  Saving SCF results.
 GradGradGradGradGradGradGradGradGradGradGradGradGradGradGradGradGradGrad

 Leave Link  103 at Wed May 12 11:58:26 2021, MaxMem=  2147483648 cpu:         0.0
 (Enter /opt/cluster/programs/g09_d.01/g09/l202.exe)
                          Input orientation:                          
 ---------------------------------------------------------------------
 Center     Atomic      Atomic             Coordinates (Angstroms)
 Number     Number       Type             X           Y           Z
 ---------------------------------------------------------------------
      1          6           0        1.667434    0.313502    0.087701
      2          6           0        0.614959   -0.500665   -0.019069
      3          6           0       -0.740396   -0.032254   -0.422766
      4          8           0       -1.647669    0.183403    0.385460
      5          1           0       -0.917450    0.138046   -1.496832
      6          1           0        2.628130   -0.051667    0.434373
      7          1           0        1.606057    1.370301   -0.157814
      8          1           0        0.690887   -1.550100    0.261252
 ---------------------------------------------------------------------
                    Distance matrix (angstroms):
                    1          2          3          4          5
     1  C    0.000000
     2  C    1.334905   0.000000
     3  C    2.485512   1.489755   0.000000
     4  O    3.330991   2.398141   1.234051   0.000000
     5  H    3.036965   2.222614   1.101802   2.019480   0.000000
     6  H    1.084650   2.111886   3.475922   4.282535   4.041865
     7  H    1.086677   2.121801   2.746489   3.505797   3.111191
     8  H    2.111108   1.088880   2.195521   2.913641   2.920179
                    6          7          8
     6  H    0.000000
     7  H    1.848597   0.000000
     8  H    2.455235   3.088996   0.000000
 Stoichiometry    C3H4O
 Framework group  C1[X(C3H4O)]
 Deg. of freedom    18
 Full point group                 C1      NOp   1
 RotChk:  IX=0 Diff= 1.54D-02
 Largest Abelian subgroup         C1      NOp   1
 Largest concise Abelian subgroup C1      NOp   1
                         Standard orientation:                         
 ---------------------------------------------------------------------
 Center     Atomic      Atomic             Coordinates (Angstroms)
 Number     Number       Type             X           Y           Z
 ---------------------------------------------------------------------
      1          6           0        1.664138   -0.316563   -0.082829
      2          6           0        0.613562    0.501253    0.014335
      3          6           0       -0.743309    0.040442    0.421671
      4          8           0       -1.650361   -0.181529   -0.385092
      5          1           0       -0.921770   -0.118065    1.497308
      6          1           0        2.626044    0.042578   -0.432428
      7          1           0        1.599946   -1.370555    0.173779
      8          1           0        0.692320    1.547479   -0.276987
 ---------------------------------------------------------------------
 Rotational constants (GHZ):     31.2977474      4.7959983      4.6802929
 Leave Link  202 at Wed May 12 11:58:26 2021, MaxMem=  2147483648 cpu:         0.0
 (Enter /opt/cluster/programs/g09_d.01/g09/l301.exe)
 Standard basis: 6-31+G (6D, 7F)
 Ernie: Thresh=  0.10000D-02 Tol=  0.10000D-05 Strict=F.
 There are    60 symmetry adapted cartesian basis functions of A   symmetry.
 There are    60 symmetry adapted basis functions of A   symmetry.
    60 basis functions,   120 primitive gaussians,    60 cartesian basis functions
    15 alpha electrons       15 beta electrons
       nuclear repulsion energy       102.5642003389 Hartrees.
 IExCor= 4639 DFT=T Ex+Corr=wB97XD ExCW=0 ScaHFX=  1.000000
 ScaDFX=  1.000000  1.000000  1.000000  1.000000 ScalE2=  1.000000  1.000000
 IRadAn=      0 IRanWt=     -1 IRanGd=            0 ICorTp=0 IEmpDi=121
  HFx wShort=  0.000000 wLong=  0.200000 cFull=  0.222036 cShort=  0.000000 cLong=  0.777964
  DFx wShort=  0.000000 wLong=  0.200000 cFull=  0.000000 cShort=  0.000000 cLong=  1.000000
 NAtoms=    8 NActive=    8 NUniq=    8 SFac= 1.00D+00 NAtFMM=   60 NAOKFM=F Big=F
 Integral buffers will be    131072 words long.
 Raffenetti 2 integral format.
 Two-electron integral symmetry is turned on.
 R6Disp:  Grimme-D2 Dispersion energy=       -0.0017864777 Hartrees.
 Nuclear repulsion after empirical dispersion term =      102.5624138613 Hartrees.
 Leave Link  301 at Wed May 12 11:58:26 2021, MaxMem=  2147483648 cpu:         0.3
 (Enter /opt/cluster/programs/g09_d.01/g09/l302.exe)
 NPDir=0 NMtPBC=     1 NCelOv=     1 NCel=       1 NClECP=     1 NCelD=      1
         NCelK=      1 NCelE2=     1 NClLst=     1 CellRange=     0.0.
 One-electron integrals computed using PRISM.
 NBasis=    60 RedAO= T EigKep=  1.32D-04  NBF=    60
 NBsUse=    60 1.00D-06 EigRej= -1.00D+00 NBFU=    60
 Precomputing XC quadrature grid using
 IXCGrd= 4 IRadAn=           0 IRanWt=          -1 IRanGd=           0 AccXCQ= 0.00D+00.
 Generated NRdTot=       0 NPtTot=           0 NUsed=           0 NTot=          32
 NSgBfM=    60    60    60    60    60 MxSgAt=     8 MxSgA2=     8.
 Leave Link  302 at Wed May 12 11:58:26 2021, MaxMem=  2147483648 cpu:         0.8
 (Enter /opt/cluster/programs/g09_d.01/g09/l303.exe)
 DipDrv:  MaxL=1.
 Leave Link  303 at Wed May 12 11:58:26 2021, MaxMem=  2147483648 cpu:         0.2
 (Enter /opt/cluster/programs/g09_d.01/g09/l401.exe)
 Initial guess from the checkpoint file:  "/home/unibas/boittier/RDKit_G2/L.pdb/SCAN_1_2_3_4_S_17_20.0/4_SCAN_1_2_3_4_F/L.pdb.chk"
 B after Tr=     0.000000    0.000000    0.000000
         Rot=    0.999981    0.006166    0.000327    0.000439 Ang=   0.71 deg.
 Guess basis will be translated and rotated to current coordinates.
 JPrj=2 DoOrth=T DoCkMO=T.
 Generating alternative initial guess.
 ExpMin= 4.38D-02 ExpMax= 5.48D+03 ExpMxC= 8.25D+02 IAcc=2 IRadAn=         4 AccDes= 0.00D+00
 Harris functional with IExCor= 4639 and IRadAn=       4 diagonalized for initial guess.
 HarFok:  IExCor= 4639 AccDes= 0.00D+00 IRadAn=         4 IDoV= 1 UseB2=F ITyADJ=14
 ICtDFT=  3500011 ScaDFX=  1.000000  1.000000  1.000000  1.000000
 FoFCou: FMM=F IPFlag=           0 FMFlag=      100000 FMFlg1=           0
         NFxFlg=           0 DoJE=T BraDBF=F KetDBF=T FulRan=T
         wScrn=  0.000000 ICntrl=     500 IOpCl=  0 I1Cent=   200000004 NGrid=           0
         NMat0=    1 NMatS0=      1 NMatT0=    0 NMatD0=    1 NMtDS0=    0 NMtDT0=    0
 Petite list used in FoFCou.
 Harris En= -183.738042308985    
 Leave Link  401 at Wed May 12 11:58:26 2021, MaxMem=  2147483648 cpu:         1.4
 (Enter /opt/cluster/programs/g09_d.01/g09/l502.exe)
 Closed shell SCF:
 Using DIIS extrapolation, IDIIS=  1040.
 Integral symmetry usage will be decided dynamically.
 Keep R1 ints in memory in canonical form, NReq=4262490.
 IVT=       30290 IEndB=       30290 NGot=  2147483648 MDV=  2144102629
 LenX=  2144102629 LenY=  2144098588
 Requested convergence on RMS density matrix=1.00D-08 within 128 cycles.
 Requested convergence on MAX density matrix=1.00D-06.
 Requested convergence on             energy=1.00D-06.
 No special actions if energy rises.
 FoFCou: FMM=F IPFlag=           0 FMFlag=           0 FMFlg1=           0
         NFxFlg=           0 DoJE=F BraDBF=F KetDBF=F FulRan=T
         wScrn=  0.000000 ICntrl=     600 IOpCl=  0 I1Cent=           0 NGrid=           0
         NMat0=    1 NMatS0=   1830 NMatT0=    0 NMatD0=    1 NMtDS0=    0 NMtDT0=    0
 Symmetry not used in FoFCou.

 Cycle   1  Pass 1  IDiag  1:
 E= -191.782512747505    
 DIIS: error= 3.54D-04 at cycle   1 NSaved=   1.
 NSaved= 1 IEnMin= 1 EnMin= -191.782512747505     IErMin= 1 ErrMin= 3.54D-04
 ErrMax= 3.54D-04  0.00D+00 EMaxC= 1.00D-01 BMatC= 3.32D-05 BMatP= 3.32D-05
 IDIUse=3 WtCom= 9.96D-01 WtEn= 3.54D-03
 Coeff-Com:  0.100D+01
 Coeff-En:   0.100D+01
 Coeff:      0.100D+01
 Gap=     0.612 Goal=   None    Shift=    0.000
 RMSDP=1.86D-04 MaxDP=1.37D-03              OVMax= 2.03D-03

 Cycle   2  Pass 1  IDiag  1:
 E= -191.782559938313     Delta-E=       -0.000047190808 Rises=F Damp=F
 DIIS: error= 2.14D-04 at cycle   2 NSaved=   2.
 NSaved= 2 IEnMin= 2 EnMin= -191.782559938313     IErMin= 2 ErrMin= 2.14D-04
 ErrMax= 2.14D-04  0.00D+00 EMaxC= 1.00D-01 BMatC= 3.43D-06 BMatP= 3.32D-05
 IDIUse=3 WtCom= 9.98D-01 WtEn= 2.14D-03
 Coeff-Com:  0.919D-01 0.908D+00
 Coeff-En:   0.000D+00 0.100D+01
 Coeff:      0.917D-01 0.908D+00
 Gap=     0.366 Goal=   None    Shift=    0.000
 RMSDP=7.00D-05 MaxDP=5.82D-04 DE=-4.72D-05 OVMax= 9.31D-04

 Cycle   3  Pass 1  IDiag  1:
 E= -191.782563545993     Delta-E=       -0.000003607680 Rises=F Damp=F
 DIIS: error= 1.25D-04 at cycle   3 NSaved=   3.
 NSaved= 3 IEnMin= 3 EnMin= -191.782563545993     IErMin= 3 ErrMin= 1.25D-04
 ErrMax= 1.25D-04  0.00D+00 EMaxC= 1.00D-01 BMatC= 2.19D-06 BMatP= 3.43D-06
 IDIUse=3 WtCom= 9.99D-01 WtEn= 1.25D-03
 Coeff-Com: -0.412D-01 0.433D+00 0.608D+00
 Coeff-En:   0.000D+00 0.000D+00 0.100D+01
 Coeff:     -0.411D-01 0.433D+00 0.608D+00
 Gap=     0.366 Goal=   None    Shift=    0.000
 RMSDP=3.21D-05 MaxDP=3.74D-04 DE=-3.61D-06 OVMax= 5.79D-04

 Cycle   4  Pass 1  IDiag  1:
 E= -191.782565454613     Delta-E=       -0.000001908620 Rises=F Damp=F
 DIIS: error= 7.38D-05 at cycle   4 NSaved=   4.
 NSaved= 4 IEnMin= 4 EnMin= -191.782565454613     IErMin= 4 ErrMin= 7.38D-05
 ErrMax= 7.38D-05  0.00D+00 EMaxC= 1.00D-01 BMatC= 4.46D-07 BMatP= 2.19D-06
 IDIUse=1 WtCom= 1.00D+00 WtEn= 0.00D+00
 Coeff-Com: -0.412D-01 0.110D+00 0.340D+00 0.592D+00
 Coeff:     -0.412D-01 0.110D+00 0.340D+00 0.592D+00
 Gap=     0.366 Goal=   None    Shift=    0.000
 RMSDP=1.35D-05 MaxDP=1.58D-04 DE=-1.91D-06 OVMax= 2.11D-04

 Cycle   5  Pass 1  IDiag  1:
 E= -191.782565877968     Delta-E=       -0.000000423355 Rises=F Damp=F
 DIIS: error= 1.88D-05 at cycle   5 NSaved=   5.
 NSaved= 5 IEnMin= 5 EnMin= -191.782565877968     IErMin= 5 ErrMin= 1.88D-05
 ErrMax= 1.88D-05  0.00D+00 EMaxC= 1.00D-01 BMatC= 1.20D-08 BMatP= 4.46D-07
 IDIUse=1 WtCom= 1.00D+00 WtEn= 0.00D+00
 Coeff-Com:  0.618D-02-0.582D-01-0.787D-01 0.142D-02 0.113D+01
 Coeff:      0.618D-02-0.582D-01-0.787D-01 0.142D-02 0.113D+01
 Gap=     0.366 Goal=   None    Shift=    0.000
 RMSDP=8.03D-06 MaxDP=1.11D-04 DE=-4.23D-07 OVMax= 1.57D-04

 Cycle   6  Pass 1  IDiag  1:
 E= -191.782565925078     Delta-E=       -0.000000047110 Rises=F Damp=F
 DIIS: error= 8.17D-06 at cycle   6 NSaved=   6.
 NSaved= 6 IEnMin= 6 EnMin= -191.782565925078     IErMin= 6 ErrMin= 8.17D-06
 ErrMax= 8.17D-06  0.00D+00 EMaxC= 1.00D-01 BMatC= 3.01D-09 BMatP= 1.20D-08
 IDIUse=1 WtCom= 1.00D+00 WtEn= 0.00D+00
 Coeff-Com:  0.545D-02-0.321D-01-0.562D-01-0.471D-01 0.472D+00 0.658D+00
 Coeff:      0.545D-02-0.321D-01-0.562D-01-0.471D-01 0.472D+00 0.658D+00
 Gap=     0.366 Goal=   None    Shift=    0.000
 RMSDP=1.90D-06 MaxDP=2.35D-05 DE=-4.71D-08 OVMax= 4.07D-05

 Cycle   7  Pass 1  IDiag  1:
 E= -191.782565930716     Delta-E=       -0.000000005637 Rises=F Damp=F
 DIIS: error= 2.94D-06 at cycle   7 NSaved=   7.
 NSaved= 7 IEnMin= 7 EnMin= -191.782565930716     IErMin= 7 ErrMin= 2.94D-06
 ErrMax= 2.94D-06  0.00D+00 EMaxC= 1.00D-01 BMatC= 3.09D-10 BMatP= 3.01D-09
 IDIUse=1 WtCom= 1.00D+00 WtEn= 0.00D+00
 Coeff-Com: -0.197D-03 0.636D-02 0.653D-02-0.137D-01-0.158D+00 0.125D+00
 Coeff-Com:  0.103D+01
 Coeff:     -0.197D-03 0.636D-02 0.653D-02-0.137D-01-0.158D+00 0.125D+00
 Coeff:      0.103D+01
 Gap=     0.366 Goal=   None    Shift=    0.000
 RMSDP=1.25D-06 MaxDP=1.38D-05 DE=-5.64D-09 OVMax= 3.17D-05

 Cycle   8  Pass 1  IDiag  1:
 E= -191.782565932237     Delta-E=       -0.000000001521 Rises=F Damp=F
 DIIS: error= 1.34D-06 at cycle   8 NSaved=   8.
 NSaved= 8 IEnMin= 8 EnMin= -191.782565932237     IErMin= 8 ErrMin= 1.34D-06
 ErrMax= 1.34D-06  0.00D+00 EMaxC= 1.00D-01 BMatC= 3.68D-11 BMatP= 3.09D-10
 IDIUse=1 WtCom= 1.00D+00 WtEn= 0.00D+00
 Coeff-Com: -0.574D-03 0.389D-02 0.607D-02 0.429D-02-0.681D-01-0.474D-01
 Coeff-Com:  0.134D+00 0.968D+00
 Coeff:     -0.574D-03 0.389D-02 0.607D-02 0.429D-02-0.681D-01-0.474D-01
 Coeff:      0.134D+00 0.968D+00
 Gap=     0.366 Goal=   None    Shift=    0.000
 RMSDP=3.76D-07 MaxDP=3.17D-06 DE=-1.52D-09 OVMax= 1.37D-05

 Cycle   9  Pass 1  IDiag  1:
 E= -191.782565932446     Delta-E=       -0.000000000209 Rises=F Damp=F
 DIIS: error= 6.31D-07 at cycle   9 NSaved=   9.
 NSaved= 9 IEnMin= 9 EnMin= -191.782565932446     IErMin= 9 ErrMin= 6.31D-07
 ErrMax= 6.31D-07  0.00D+00 EMaxC= 1.00D-01 BMatC= 7.96D-12 BMatP= 3.68D-11
 IDIUse=1 WtCom= 1.00D+00 WtEn= 0.00D+00
 Coeff-Com: -0.114D-04-0.107D-02-0.844D-03 0.449D-02 0.291D-01-0.351D-01
 Coeff-Com: -0.238D+00 0.151D+00 0.109D+01
 Coeff:     -0.114D-04-0.107D-02-0.844D-03 0.449D-02 0.291D-01-0.351D-01
 Coeff:     -0.238D+00 0.151D+00 0.109D+01
 Gap=     0.366 Goal=   None    Shift=    0.000
 RMSDP=2.41D-07 MaxDP=2.04D-06 DE=-2.09D-10 OVMax= 9.15D-06

 Cycle  10  Pass 1  IDiag  1:
 E= -191.782565932500     Delta-E=       -0.000000000054 Rises=F Damp=F
 DIIS: error= 2.10D-07 at cycle  10 NSaved=  10.
 NSaved=10 IEnMin=10 EnMin= -191.782565932500     IErMin=10 ErrMin= 2.10D-07
 ErrMax= 2.10D-07  0.00D+00 EMaxC= 1.00D-01 BMatC= 6.72D-13 BMatP= 7.96D-12
 IDIUse=1 WtCom= 1.00D+00 WtEn= 0.00D+00
 Coeff-Com:  0.729D-04-0.296D-03-0.514D-03-0.174D-02 0.338D-02 0.134D-01
 Coeff-Com:  0.282D-01-0.154D+00-0.217D+00 0.133D+01
 Coeff:      0.729D-04-0.296D-03-0.514D-03-0.174D-02 0.338D-02 0.134D-01
 Coeff:      0.282D-01-0.154D+00-0.217D+00 0.133D+01
 Gap=     0.366 Goal=   None    Shift=    0.000
 RMSDP=9.21D-08 MaxDP=7.60D-07 DE=-5.39D-11 OVMax= 3.52D-06

 Cycle  11  Pass 1  IDiag  1:
 E= -191.782565932509     Delta-E=       -0.000000000009 Rises=F Damp=F
 DIIS: error= 4.01D-08 at cycle  11 NSaved=  11.
 NSaved=11 IEnMin=11 EnMin= -191.782565932509     IErMin=11 ErrMin= 4.01D-08
 ErrMax= 4.01D-08  0.00D+00 EMaxC= 1.00D-01 BMatC= 3.22D-14 BMatP= 6.72D-13
 IDIUse=1 WtCom= 1.00D+00 WtEn= 0.00D+00
 Coeff-Com: -0.150D-04 0.132D-03 0.156D-03 0.130D-03-0.268D-02-0.627D-03
 Coeff-Com:  0.883D-02 0.277D-01-0.279D-01-0.318D+00 0.131D+01
 Coeff:     -0.150D-04 0.132D-03 0.156D-03 0.130D-03-0.268D-02-0.627D-03
 Coeff:      0.883D-02 0.277D-01-0.279D-01-0.318D+00 0.131D+01
 Gap=     0.366 Goal=   None    Shift=    0.000
 RMSDP=2.15D-08 MaxDP=1.77D-07 DE=-8.70D-12 OVMax= 6.82D-07

 Cycle  12  Pass 1  IDiag  1:
 E= -191.782565932508     Delta-E=        0.000000000000 Rises=F Damp=F
 DIIS: error= 5.27D-09 at cycle  12 NSaved=  12.
 NSaved=12 IEnMin=11 EnMin= -191.782565932509     IErMin=12 ErrMin= 5.27D-09
 ErrMax= 5.27D-09  0.00D+00 EMaxC= 1.00D-01 BMatC= 1.43D-15 BMatP= 3.22D-14
 IDIUse=1 WtCom= 1.00D+00 WtEn= 0.00D+00
 Coeff-Com:  0.153D-05-0.285D-04-0.285D-04 0.415D-04 0.701D-03-0.248D-03
 Coeff-Com: -0.455D-02-0.980D-03 0.187D-01 0.406D-01-0.430D+00 0.138D+01
 Coeff:      0.153D-05-0.285D-04-0.285D-04 0.415D-04 0.701D-03-0.248D-03
 Coeff:     -0.455D-02-0.980D-03 0.187D-01 0.406D-01-0.430D+00 0.138D+01
 Gap=     0.366 Goal=   None    Shift=    0.000
 RMSDP=4.77D-09 MaxDP=4.28D-08 DE= 1.71D-13 OVMax= 1.05D-07

 SCF Done:  E(RwB97XD) =  -191.782565933     A.U. after   12 cycles
            NFock= 12  Conv=0.48D-08     -V/T= 2.0058
 KE= 1.906767722258D+02 PE=-6.525191004469D+02 EE= 1.674973484273D+02
 Leave Link  502 at Wed May 12 11:58:27 2021, MaxMem=  2147483648 cpu:         8.1
 (Enter /opt/cluster/programs/g09_d.01/g09/l701.exe)
 Compute integral first derivatives.
 ... and contract with generalized density number  0.
 R6Disp: Adding Grimme-D2 dispersion energy 1st derivatives to the gradient.
 Leave Link  701 at Wed May 12 11:58:27 2021, MaxMem=  2147483648 cpu:         0.6
 (Enter /opt/cluster/programs/g09_d.01/g09/l702.exe)
 L702 exits ... SP integral derivatives will be done elsewhere.
 Leave Link  702 at Wed May 12 11:58:27 2021, MaxMem=  2147483648 cpu:         0.2
 (Enter /opt/cluster/programs/g09_d.01/g09/l703.exe)
 Compute integral first derivatives, UseDBF=F ICtDFT=           0.
 Integral derivatives from FoFJK, PRISM(SPDF).
 Calling FoFJK, ICntrl=      2127 FMM=F ISym2X=0 I1Cent= 0 IOpClX= 0 NMat=1 NMatS=1 NMatT=0.
 FoFJK:  IHMeth= 1 ICntrl=    2127 DoSepK=T KAlg= 0 I1Cent=   0 FoldK=F
 IRaf=         1 NMat=   1 IRICut=       1 DoRegI=T DoRafI=F ISym2E= 0.
 FoFCou: FMM=F IPFlag=           0 FMFlag=      100000 FMFlg1=         800
         NFxFlg=           0 DoJE=F BraDBF=F KetDBF=F FulRan=T
         wScrn=  0.000000 ICntrl=    2527 IOpCl=  0 I1Cent=           0 NGrid=           0
         NMat0=    1 NMatS0=      1 NMatT0=    0 NMatD0=    1 NMtDS0=    0 NMtDT0=    0
 Symmetry not used in FoFCou.
 Leave Link  703 at Wed May 12 11:58:28 2021, MaxMem=  2147483648 cpu:         2.4
 (Enter /opt/cluster/programs/g09_d.01/g09/l716.exe)
 Dipole        = 1.04061828D+00 2.15967166D-01 6.32420283D-01
 ***** Axes restored to original set *****
 -------------------------------------------------------------------
 Center     Atomic                   Forces (Hartrees/Bohr)
 Number     Number              X              Y              Z
 -------------------------------------------------------------------
      1        6           0.001387341    0.000162976   -0.002413480
      2        6          -0.001376846   -0.001233689    0.003578607
      3        6           0.000194856    0.003331999   -0.000143952
      4        8          -0.000467967   -0.002503490   -0.000680534
      5        1           0.000212311    0.000180738   -0.000209925
      6        1           0.000079148    0.000081721    0.000068947
      7        1          -0.000001382    0.000008980   -0.000021539
      8        1          -0.000027461   -0.000029235   -0.000178124
 -------------------------------------------------------------------
 Cartesian Forces:  Max     0.003578607 RMS     0.001327343
 Leave Link  716 at Wed May 12 11:58:28 2021, MaxMem=  2147483648 cpu:         0.2
 (Enter /opt/cluster/programs/g09_d.01/g09/l103.exe)

 GradGradGradGradGradGradGradGradGradGradGradGradGradGradGradGradGradGrad
 Berny optimization.
 Using GEDIIS/GDIIS optimizer.
 FormGI is forming the generalized inverse of G from B-inverse, IUseBI=4.
 Internal  Forces:  Max     0.003164756 RMS     0.000880994
 Search for a local minimum.
 Step number   2 out of a maximum of   34
 All quantities printed in internal units (Hartrees-Bohrs-Radians)
 RMS Force = .32671D-03 SwitMx=.10000D-02 MixMth= 2
 Mixed Optimization -- En-DIIS/RFO-DIIS
 Update second derivatives using D2CorX and points    1    2
 DE= -9.39D-05 DEPred=-1.02D-04 R= 9.16D-01
 TightC=F SS=  1.41D+00  RLast= 3.18D-02 DXNew= 5.0454D-01 9.5374D-02
 Trust test= 9.16D-01 RLast= 3.18D-02 DXMaxT set to 3.00D-01
 ITU=  1  0
 Use linear search instead of GDIIS.
     Eigenvalues ---    0.00897   0.01669   0.02881   0.02900   0.15907
     Eigenvalues ---    0.15972   0.16000   0.16166   0.21777   0.22405
     Eigenvalues ---    0.33032   0.34317   0.34805   0.35127   0.35399
     Eigenvalues ---    0.62706   0.803021000.000001000.000001000.00000
     Eigenvalues --- 1000.000001000.000001000.000001000.00000
 RFO step:  Lambda=-1.34991190D-05 EMin= 8.97246780D-03
 Quartic linear search produced a step of -0.06869.
 Iteration  1 RMS(Cart)=  0.00631213 RMS(Int)=  0.00006334
 Iteration  2 RMS(Cart)=  0.00004896 RMS(Int)=  0.00002742
 Iteration  3 RMS(Cart)=  0.00000000 RMS(Int)=  0.00002742
 Iteration  1 RMS(Cart)=  0.00000016 RMS(Int)=  0.00000012
 ITry= 1 IFail=0 DXMaxC= 1.92D-02 DCOld= 1.00D+10 DXMaxT= 3.00D-01 DXLimC= 3.00D+00 Rises=F
 Variable       Old X    -DE/DX   Delta X   Delta X   Delta X     New X
                                 (Linear)    (Quad)   (Total)
    R1        2.52261   0.00111   0.00067   0.00052   0.00118   2.52379
    R2        2.04969   0.00007   0.00013  -0.00007   0.00006   2.04975
    R3        2.05352   0.00001   0.00009  -0.00015  -0.00006   2.05346
    R4        2.81523   0.00066   0.00040   0.00108   0.00148   2.81670
    R5        2.05768  -0.00002   0.00018  -0.00040  -0.00022   2.05747
    R6        2.33202  -0.00054   0.00073  -0.00199  -0.00126   2.33075
    R7        2.08210   0.00020   0.00039  -0.00019   0.00019   2.08230
    A1        2.11595   0.00013   0.00020   0.00036   0.00056   2.11651
    A2        2.13003  -0.00007   0.00011  -0.00060  -0.00048   2.12954
    A3        2.03717  -0.00006  -0.00031   0.00023  -0.00008   2.03710
    A4        2.14982  -0.00003   0.00034  -0.00079  -0.00046   2.14936
    A5        2.10859   0.00020  -0.00014   0.00105   0.00090   2.10950
    A6        2.02220  -0.00007  -0.00025   0.00028   0.00002   2.02223
    A7        2.14879   0.00038   0.00025   0.00098   0.00116   2.14995
    A8        2.04762  -0.00038  -0.00018  -0.00175  -0.00200   2.04561
    A9        2.08667   0.00003  -0.00008   0.00046   0.00029   2.08697
    D1        3.08498   0.00065  -0.00053   0.00282   0.00229   3.08728
    D2        0.02362  -0.00075   0.00020  -0.00558  -0.00538   0.01824
    D3       -0.04739   0.00066  -0.00071   0.00339   0.00268  -0.04471
    D4       -3.10875  -0.00075   0.00001  -0.00501  -0.00500  -3.11375
    D5       -1.74531  -0.00316   0.00000   0.00000   0.00000  -1.74531
    D6        1.38038  -0.00086  -0.00051  -0.02283  -0.02334   1.35704
    D7        1.31971  -0.00181  -0.00069   0.00805   0.00736   1.32708
    D8       -1.83778   0.00049  -0.00120  -0.01478  -0.01598  -1.85376
         Item               Value     Threshold  Converged?
 Maximum Force            0.001115     0.000450     NO 
 RMS     Force            0.000327     0.000300     NO 
 Maximum Displacement     0.019228     0.001800     NO 
 RMS     Displacement     0.006319     0.001200     NO 
 Predicted change in Energy=-7.134966D-06
 Lowest energy point so far.  Saving SCF results.
 GradGradGradGradGradGradGradGradGradGradGradGradGradGradGradGradGradGrad

 Leave Link  103 at Wed May 12 11:58:28 2021, MaxMem=  2147483648 cpu:         0.0
 (Enter /opt/cluster/programs/g09_d.01/g09/l202.exe)
                          Input orientation:                          
 ---------------------------------------------------------------------
 Center     Atomic      Atomic             Coordinates (Angstroms)
 Number     Number       Type             X           Y           Z
 ---------------------------------------------------------------------
      1          6           0        1.666530    0.312956    0.086517
      2          6           0        0.614223   -0.503066   -0.015478
      3          6           0       -0.742090   -0.037196   -0.421779
      4          8           0       -1.649712    0.182811    0.383857
      5          1           0       -0.910573    0.148221   -1.494824
      6          1           0        2.628416   -0.049361    0.432972
      7          1           0        1.603079    1.368729   -0.162719
      8          1           0        0.692081   -1.552528    0.263760
 ---------------------------------------------------------------------
                    Distance matrix (angstroms):
                    1          2          3          4          5
     1  C    0.000000
     2  C    1.335532   0.000000
     3  C    2.486447   1.490536   0.000000
     4  O    3.332088   2.399020   1.233382   0.000000
     5  H    3.028075   2.222080   1.101904   2.019150   0.000000
     6  H    1.084680   2.112802   3.477219   4.284705   4.034833
     7  H    1.086646   2.122058   2.746552   3.505110   3.095575
     8  H    2.112108   1.088764   2.196142   2.917160   2.924665
                    6          7          8
     6  H    0.000000
     7  H    1.848552   0.000000
     8  H    2.457140   3.089586   0.000000
 Stoichiometry    C3H4O
 Framework group  C1[X(C3H4O)]
 Deg. of freedom    18
 Full point group                 C1      NOp   1
 RotChk:  IX=0 Diff= 2.27D-02
 Largest Abelian subgroup         C1      NOp   1
 Largest concise Abelian subgroup C1      NOp   1
                         Standard orientation:                         
 ---------------------------------------------------------------------
 Center     Atomic      Atomic             Coordinates (Angstroms)
 Number     Number       Type             X           Y           Z
 ---------------------------------------------------------------------
      1          6           0        1.664261   -0.316067   -0.086712
      2          6           0        0.613854    0.501938    0.018935
      3          6           0       -0.743917    0.037135    0.421568
      4          8           0       -1.651412   -0.176220   -0.385999
      5          1           0       -0.913728   -0.153786    1.493439
      6          1           0        2.627306    0.045816   -0.430390
      7          1           0        1.598043   -1.373039    0.156646
      8          1           0        0.694488    1.552731   -0.254448
 ---------------------------------------------------------------------
 Rotational constants (GHZ):     31.3087245      4.7935913      4.6774943
 Leave Link  202 at Wed May 12 11:58:28 2021, MaxMem=  2147483648 cpu:         0.0
 (Enter /opt/cluster/programs/g09_d.01/g09/l301.exe)
 Standard basis: 6-31+G (6D, 7F)
 Ernie: Thresh=  0.10000D-02 Tol=  0.10000D-05 Strict=F.
 There are    60 symmetry adapted cartesian basis functions of A   symmetry.
 There are    60 symmetry adapted basis functions of A   symmetry.
    60 basis functions,   120 primitive gaussians,    60 cartesian basis functions
    15 alpha electrons       15 beta electrons
       nuclear repulsion energy       102.5527588659 Hartrees.
 IExCor= 4639 DFT=T Ex+Corr=wB97XD ExCW=0 ScaHFX=  1.000000
 ScaDFX=  1.000000  1.000000  1.000000  1.000000 ScalE2=  1.000000  1.000000
 IRadAn=      0 IRanWt=     -1 IRanGd=            0 ICorTp=0 IEmpDi=121
  HFx wShort=  0.000000 wLong=  0.200000 cFull=  0.222036 cShort=  0.000000 cLong=  0.777964
  DFx wShort=  0.000000 wLong=  0.200000 cFull=  0.000000 cShort=  0.000000 cLong=  1.000000
 NAtoms=    8 NActive=    8 NUniq=    8 SFac= 1.00D+00 NAtFMM=   60 NAOKFM=F Big=F
 Integral buffers will be    131072 words long.
 Raffenetti 2 integral format.
 Two-electron integral symmetry is turned on.
 R6Disp:  Grimme-D2 Dispersion energy=       -0.0017883019 Hartrees.
 Nuclear repulsion after empirical dispersion term =      102.5509705640 Hartrees.
 Leave Link  301 at Wed May 12 11:58:28 2021, MaxMem=  2147483648 cpu:         0.3
 (Enter /opt/cluster/programs/g09_d.01/g09/l302.exe)
 NPDir=0 NMtPBC=     1 NCelOv=     1 NCel=       1 NClECP=     1 NCelD=      1
         NCelK=      1 NCelE2=     1 NClLst=     1 CellRange=     0.0.
 One-electron integrals computed using PRISM.
 NBasis=    60 RedAO= T EigKep=  1.33D-04  NBF=    60
 NBsUse=    60 1.00D-06 EigRej= -1.00D+00 NBFU=    60
 Precomputing XC quadrature grid using
 IXCGrd= 4 IRadAn=           0 IRanWt=          -1 IRanGd=           0 AccXCQ= 0.00D+00.
 Generated NRdTot=       0 NPtTot=           0 NUsed=           0 NTot=          32
 NSgBfM=    60    60    60    60    60 MxSgAt=     8 MxSgA2=     8.
 Leave Link  302 at Wed May 12 11:58:28 2021, MaxMem=  2147483648 cpu:         0.8
 (Enter /opt/cluster/programs/g09_d.01/g09/l303.exe)
 DipDrv:  MaxL=1.
 Leave Link  303 at Wed May 12 11:58:28 2021, MaxMem=  2147483648 cpu:         0.2
 (Enter /opt/cluster/programs/g09_d.01/g09/l401.exe)
 Initial guess from the checkpoint file:  "/home/unibas/boittier/RDKit_G2/L.pdb/SCAN_1_2_3_4_S_17_20.0/4_SCAN_1_2_3_4_F/L.pdb.chk"
 B after Tr=     0.000000    0.000000    0.000000
         Rot=    0.999975   -0.007090   -0.000206    0.000113 Ang=  -0.81 deg.
 Guess basis will be translated and rotated to current coordinates.
 JPrj=2 DoOrth=T DoCkMO=T.
 Leave Link  401 at Wed May 12 11:58:28 2021, MaxMem=  2147483648 cpu:         0.6
 (Enter /opt/cluster/programs/g09_d.01/g09/l502.exe)
 Closed shell SCF:
 Using DIIS extrapolation, IDIIS=  1040.
 Integral symmetry usage will be decided dynamically.
 Keep R1 ints in memory in canonical form, NReq=4262490.
 IVT=       30290 IEndB=       30290 NGot=  2147483648 MDV=  2144102629
 LenX=  2144102629 LenY=  2144098588
 Requested convergence on RMS density matrix=1.00D-08 within 128 cycles.
 Requested convergence on MAX density matrix=1.00D-06.
 Requested convergence on             energy=1.00D-06.
 No special actions if energy rises.
 FoFCou: FMM=F IPFlag=           0 FMFlag=           0 FMFlg1=           0
         NFxFlg=           0 DoJE=F BraDBF=F KetDBF=F FulRan=T
         wScrn=  0.000000 ICntrl=     600 IOpCl=  0 I1Cent=           0 NGrid=           0
         NMat0=    1 NMatS0=   1830 NMatT0=    0 NMatD0=    1 NMtDS0=    0 NMtDT0=    0
 Symmetry not used in FoFCou.

 Cycle   1  Pass 1  IDiag  1:
 E= -191.782528150516    
 DIIS: error= 3.22D-04 at cycle   1 NSaved=   1.
 NSaved= 1 IEnMin= 1 EnMin= -191.782528150516     IErMin= 1 ErrMin= 3.22D-04
 ErrMax= 3.22D-04  0.00D+00 EMaxC= 1.00D-01 BMatC= 1.20D-05 BMatP= 1.20D-05
 IDIUse=3 WtCom= 9.97D-01 WtEn= 3.22D-03
 Coeff-Com:  0.100D+01
 Coeff-En:   0.100D+01
 Coeff:      0.100D+01
 Gap=     0.613 Goal=   None    Shift=    0.000
 RMSDP=1.84D-04 MaxDP=1.94D-03              OVMax= 2.17D-03

 Cycle   2  Pass 1  IDiag  1:
 E= -191.782555975729     Delta-E=       -0.000027825213 Rises=F Damp=F
 DIIS: error= 1.54D-04 at cycle   2 NSaved=   2.
 NSaved= 2 IEnMin= 2 EnMin= -191.782555975729     IErMin= 2 ErrMin= 1.54D-04
 ErrMax= 1.54D-04  0.00D+00 EMaxC= 1.00D-01 BMatC= 9.10D-07 BMatP= 1.20D-05
 IDIUse=3 WtCom= 9.98D-01 WtEn= 1.54D-03
 Coeff-Com: -0.161D+00 0.116D+01
 Coeff-En:   0.000D+00 0.100D+01
 Coeff:     -0.160D+00 0.116D+01
 Gap=     0.366 Goal=   None    Shift=    0.000
 RMSDP=4.99D-05 MaxDP=4.65D-04 DE=-2.78D-05 OVMax= 1.40D-03

 Cycle   3  Pass 1  IDiag  1:
 E= -191.782558980076     Delta-E=       -0.000003004347 Rises=F Damp=F
 DIIS: error= 8.05D-05 at cycle   3 NSaved=   3.
 NSaved= 3 IEnMin= 3 EnMin= -191.782558980076     IErMin= 3 ErrMin= 8.05D-05
 ErrMax= 8.05D-05  0.00D+00 EMaxC= 1.00D-01 BMatC= 7.46D-07 BMatP= 9.10D-07
 IDIUse=1 WtCom= 1.00D+00 WtEn= 0.00D+00
 Coeff-Com: -0.132D+00 0.622D+00 0.510D+00
 Coeff:     -0.132D+00 0.622D+00 0.510D+00
 Gap=     0.366 Goal=   None    Shift=    0.000
 RMSDP=1.84D-05 MaxDP=2.54D-04 DE=-3.00D-06 OVMax= 3.87D-04

 Cycle   4  Pass 1  IDiag  1:
 E= -191.782559825713     Delta-E=       -0.000000845638 Rises=F Damp=F
 DIIS: error= 5.86D-05 at cycle   4 NSaved=   4.
 NSaved= 4 IEnMin= 4 EnMin= -191.782559825713     IErMin= 4 ErrMin= 5.86D-05
 ErrMax= 5.86D-05  0.00D+00 EMaxC= 1.00D-01 BMatC= 8.01D-08 BMatP= 7.46D-07
 IDIUse=1 WtCom= 1.00D+00 WtEn= 0.00D+00
 Coeff-Com:  0.130D-01-0.176D+00 0.147D+00 0.102D+01
 Coeff:      0.130D-01-0.176D+00 0.147D+00 0.102D+01
 Gap=     0.366 Goal=   None    Shift=    0.000
 RMSDP=1.62D-05 MaxDP=1.45D-04 DE=-8.46D-07 OVMax= 5.70D-04

 Cycle   5  Pass 1  IDiag  1:
 E= -191.782560167710     Delta-E=       -0.000000341997 Rises=F Damp=F
 DIIS: error= 2.31D-05 at cycle   5 NSaved=   5.
 NSaved= 5 IEnMin= 5 EnMin= -191.782560167710     IErMin= 5 ErrMin= 2.31D-05
 ErrMax= 2.31D-05  0.00D+00 EMaxC= 1.00D-01 BMatC= 1.53D-08 BMatP= 8.01D-08
 IDIUse=1 WtCom= 1.00D+00 WtEn= 0.00D+00
 Coeff-Com:  0.262D-01-0.159D+00-0.453D-01 0.310D+00 0.869D+00
 Coeff:      0.262D-01-0.159D+00-0.453D-01 0.310D+00 0.869D+00
 Gap=     0.366 Goal=   None    Shift=    0.000
 RMSDP=7.42D-06 MaxDP=6.41D-05 DE=-3.42D-07 OVMax= 2.88D-04

 Cycle   6  Pass 1  IDiag  1:
 E= -191.782560245472     Delta-E=       -0.000000077762 Rises=F Damp=F
 DIIS: error= 1.22D-05 at cycle   6 NSaved=   6.
 NSaved= 6 IEnMin= 6 EnMin= -191.782560245472     IErMin= 6 ErrMin= 1.22D-05
 ErrMax= 1.22D-05  0.00D+00 EMaxC= 1.00D-01 BMatC= 3.18D-09 BMatP= 1.53D-08
 IDIUse=1 WtCom= 1.00D+00 WtEn= 0.00D+00
 Coeff-Com:  0.383D-02 0.322D-02-0.584D-01-0.191D+00 0.227D+00 0.102D+01
 Coeff:      0.383D-02 0.322D-02-0.584D-01-0.191D+00 0.227D+00 0.102D+01
 Gap=     0.366 Goal=   None    Shift=    0.000
 RMSDP=4.61D-06 MaxDP=4.31D-05 DE=-7.78D-08 OVMax= 1.87D-04

 Cycle   7  Pass 1  IDiag  1:
 E= -191.782560265376     Delta-E=       -0.000000019904 Rises=F Damp=F
 DIIS: error= 3.09D-06 at cycle   7 NSaved=   7.
 NSaved= 7 IEnMin= 7 EnMin= -191.782560265376     IErMin= 7 ErrMin= 3.09D-06
 ErrMax= 3.09D-06  0.00D+00 EMaxC= 1.00D-01 BMatC= 5.33D-10 BMatP= 3.18D-09
 IDIUse=1 WtCom= 1.00D+00 WtEn= 0.00D+00
 Coeff-Com: -0.259D-02 0.252D-01-0.140D-01-0.115D+00-0.423D-01 0.361D+00
 Coeff-Com:  0.788D+00
 Coeff:     -0.259D-02 0.252D-01-0.140D-01-0.115D+00-0.423D-01 0.361D+00
 Coeff:      0.788D+00
 Gap=     0.366 Goal=   None    Shift=    0.000
 RMSDP=1.24D-06 MaxDP=1.13D-05 DE=-1.99D-08 OVMax= 4.71D-05

 Cycle   8  Pass 1  IDiag  1:
 E= -191.782560267148     Delta-E=       -0.000000001772 Rises=F Damp=F
 DIIS: error= 1.01D-06 at cycle   8 NSaved=   8.
 NSaved= 8 IEnMin= 8 EnMin= -191.782560267148     IErMin= 8 ErrMin= 1.01D-06
 ErrMax= 1.01D-06  0.00D+00 EMaxC= 1.00D-01 BMatC= 4.53D-11 BMatP= 5.33D-10
 IDIUse=1 WtCom= 1.00D+00 WtEn= 0.00D+00
 Coeff-Com: -0.817D-03 0.188D-02 0.889D-02 0.203D-01-0.440D-01-0.147D+00
 Coeff-Com:  0.114D+00 0.105D+01
 Coeff:     -0.817D-03 0.188D-02 0.889D-02 0.203D-01-0.440D-01-0.147D+00
 Coeff:      0.114D+00 0.105D+01
 Gap=     0.366 Goal=   None    Shift=    0.000
 RMSDP=5.49D-07 MaxDP=6.39D-06 DE=-1.77D-09 OVMax= 1.69D-05

 Cycle   9  Pass 1  IDiag  1:
 E= -191.782560267342     Delta-E=       -0.000000000194 Rises=F Damp=F
 DIIS: error= 2.08D-07 at cycle   9 NSaved=   9.
 NSaved= 9 IEnMin= 9 EnMin= -191.782560267342     IErMin= 9 ErrMin= 2.08D-07
 ErrMax= 2.08D-07  0.00D+00 EMaxC= 1.00D-01 BMatC= 1.01D-12 BMatP= 4.53D-11
 IDIUse=1 WtCom= 1.00D+00 WtEn= 0.00D+00
 Coeff-Com:  0.195D-03-0.133D-02-0.244D-03 0.332D-02 0.641D-02 0.780D-03
 Coeff-Com: -0.554D-01-0.102D+00 0.115D+01
 Coeff:      0.195D-03-0.133D-02-0.244D-03 0.332D-02 0.641D-02 0.780D-03
 Coeff:     -0.554D-01-0.102D+00 0.115D+01
 Gap=     0.366 Goal=   None    Shift=    0.000
 RMSDP=9.23D-08 MaxDP=1.42D-06 DE=-1.94D-10 OVMax= 1.67D-06

 Cycle  10  Pass 1  IDiag  1:
 E= -191.782560267349     Delta-E=       -0.000000000006 Rises=F Damp=F
 DIIS: error= 3.93D-08 at cycle  10 NSaved=  10.
 NSaved=10 IEnMin=10 EnMin= -191.782560267349     IErMin=10 ErrMin= 3.93D-08
 ErrMax= 3.93D-08  0.00D+00 EMaxC= 1.00D-01 BMatC= 4.90D-14 BMatP= 1.01D-12
 IDIUse=1 WtCom= 1.00D+00 WtEn= 0.00D+00
 Coeff-Com:  0.110D-04 0.838D-04-0.392D-03-0.140D-02 0.143D-02 0.627D-02
 Coeff-Com:  0.131D-02-0.313D-01-0.167D+00 0.119D+01
 Coeff:      0.110D-04 0.838D-04-0.392D-03-0.140D-02 0.143D-02 0.627D-02
 Coeff:      0.131D-02-0.313D-01-0.167D+00 0.119D+01
 Gap=     0.366 Goal=   None    Shift=    0.000
 RMSDP=2.63D-08 MaxDP=3.18D-07 DE=-6.25D-12 OVMax= 5.49D-07

 Cycle  11  Pass 1  IDiag  1:
 E= -191.782560267348     Delta-E=        0.000000000001 Rises=F Damp=F
 DIIS: error= 8.58D-09 at cycle  11 NSaved=  11.
 NSaved=11 IEnMin=10 EnMin= -191.782560267349     IErMin=11 ErrMin= 8.58D-09
 ErrMax= 8.58D-09  0.00D+00 EMaxC= 1.00D-01 BMatC= 4.60D-15 BMatP= 4.90D-14
 IDIUse=1 WtCom= 1.00D+00 WtEn= 0.00D+00
 Coeff-Com: -0.745D-05 0.719D-04-0.364D-04-0.308D-03-0.155D-03 0.707D-03
 Coeff-Com:  0.264D-02 0.199D-02-0.762D-01 0.138D+00 0.934D+00
 Coeff:     -0.745D-05 0.719D-04-0.364D-04-0.308D-03-0.155D-03 0.707D-03
 Coeff:      0.264D-02 0.199D-02-0.762D-01 0.138D+00 0.934D+00
 Gap=     0.366 Goal=   None    Shift=    0.000
 RMSDP=8.00D-09 MaxDP=1.06D-07 DE= 6.82D-13 OVMax= 1.22D-07

 SCF Done:  E(RwB97XD) =  -191.782560267     A.U. after   11 cycles
            NFock= 11  Conv=0.80D-08     -V/T= 2.0058
 KE= 1.906756489027D+02 PE=-6.524935187057D+02 EE= 1.674843389716D+02
 Leave Link  502 at Wed May 12 11:58:29 2021, MaxMem=  2147483648 cpu:         7.5
 (Enter /opt/cluster/programs/g09_d.01/g09/l701.exe)
 Compute integral first derivatives.
 ... and contract with generalized density number  0.
 R6Disp: Adding Grimme-D2 dispersion energy 1st derivatives to the gradient.
 Leave Link  701 at Wed May 12 11:58:29 2021, MaxMem=  2147483648 cpu:         0.6
 (Enter /opt/cluster/programs/g09_d.01/g09/l702.exe)
 L702 exits ... SP integral derivatives will be done elsewhere.
 Leave Link  702 at Wed May 12 11:58:29 2021, MaxMem=  2147483648 cpu:         0.2
 (Enter /opt/cluster/programs/g09_d.01/g09/l703.exe)
 Compute integral first derivatives, UseDBF=F ICtDFT=           0.
 Integral derivatives from FoFJK, PRISM(SPDF).
 Calling FoFJK, ICntrl=      2127 FMM=F ISym2X=0 I1Cent= 0 IOpClX= 0 NMat=1 NMatS=1 NMatT=0.
 FoFJK:  IHMeth= 1 ICntrl=    2127 DoSepK=T KAlg= 0 I1Cent=   0 FoldK=F
 IRaf=         1 NMat=   1 IRICut=       1 DoRegI=T DoRafI=F ISym2E= 0.
 FoFCou: FMM=F IPFlag=           0 FMFlag=      100000 FMFlg1=         800
         NFxFlg=           0 DoJE=F BraDBF=F KetDBF=F FulRan=T
         wScrn=  0.000000 ICntrl=    2527 IOpCl=  0 I1Cent=           0 NGrid=           0
         NMat0=    1 NMatS0=      1 NMatT0=    0 NMatD0=    1 NMtDS0=    0 NMtDT0=    0
 Symmetry not used in FoFCou.
 Leave Link  703 at Wed May 12 11:58:29 2021, MaxMem=  2147483648 cpu:         2.4
 (Enter /opt/cluster/programs/g09_d.01/g09/l716.exe)
 Dipole        = 1.04212946D+00 2.05139669D-01 6.34796904D-01
 ***** Axes restored to original set *****
 -------------------------------------------------------------------
 Center     Atomic                   Forces (Hartrees/Bohr)
 Number     Number              X              Y              Z
 -------------------------------------------------------------------
      1        6           0.000618133   -0.000210633   -0.002413668
      2        6          -0.001308814   -0.001668459    0.003089228
      3        6           0.002057821    0.005738656   -0.000427384
      4        8          -0.001322860   -0.003251260   -0.000139252
      5        1          -0.000138010   -0.000679038   -0.000306513
      6        1           0.000016031    0.000019063    0.000044530
      7        1          -0.000012445    0.000064431    0.000013348
      8        1           0.000090145   -0.000012761    0.000139711
 -------------------------------------------------------------------
 Cartesian Forces:  Max     0.005738656 RMS     0.001715017
 Leave Link  716 at Wed May 12 11:58:29 2021, MaxMem=  2147483648 cpu:         0.2
 (Enter /opt/cluster/programs/g09_d.01/g09/l103.exe)

 GradGradGradGradGradGradGradGradGradGradGradGradGradGradGradGradGradGrad
 Berny optimization.
 Using GEDIIS/GDIIS optimizer.
 FormGI is forming the generalized inverse of G from B-inverse, IUseBI=4.
 Internal  Forces:  Max     0.003963195 RMS     0.001065015
 Search for a local minimum.
 Step number   3 out of a maximum of   34
 All quantities printed in internal units (Hartrees-Bohrs-Radians)
 RMS Force = .28383D-03 SwitMx=.10000D-02 MixMth= 2
 Mixed Optimization -- En-DIIS/RFO-DIIS
 Swapping is turned off.
 Update second derivatives using D2CorX and points    1    2    3
 DE=  5.67D-06 DEPred=-7.13D-06 R=-7.94D-01
 Trust test=-7.94D-01 RLast= 3.05D-02 DXMaxT set to 1.50D-01
 ITU= -1  1  0
     Eigenvalues ---    0.01355   0.02853   0.02889   0.04831   0.14809
     Eigenvalues ---    0.15998   0.16119   0.16134   0.20236   0.22392
     Eigenvalues ---    0.32401   0.34013   0.34897   0.35165   0.35457
     Eigenvalues ---    0.61162   0.648181000.000001000.000001000.00000
     Eigenvalues --- 1000.000001000.000001000.000001000.00000
 En-DIIS/RFO-DIIS IScMMF=        0 using points:     3    2
 RFO step:  Lambda=-7.27796400D-06.
 NNeg= 0 NP= 2 Switch=  2.50D-03 Rises=F DC= -5.67D-06 SmlDif=  1.00D-05
 RMS Error=  0.1052497392D-02 NUsed= 2 EDIIS=F
 DidBck=T Rises=F RFO-DIIS coefs:    0.30849    0.69151
 Iteration  1 RMS(Cart)=  0.00463675 RMS(Int)=  0.00003306
 Iteration  2 RMS(Cart)=  0.00002840 RMS(Int)=  0.00000257
 Iteration  3 RMS(Cart)=  0.00000000 RMS(Int)=  0.00000257
 Iteration  1 RMS(Cart)=  0.00000040 RMS(Int)=  0.00000030
 ITry= 1 IFail=0 DXMaxC= 1.55D-02 DCOld= 1.00D+10 DXMaxT= 1.50D-01 DXLimC= 3.00D+00 Rises=F
 Variable       Old X    -DE/DX   Delta X   Delta X   Delta X     New X
                                 (Linear)    (Quad)   (Total)
    R1        2.52379   0.00022  -0.00082   0.00118   0.00036   2.52415
    R2        2.04975   0.00003  -0.00004   0.00006   0.00003   2.04977
    R3        2.05346   0.00005   0.00004  -0.00002   0.00002   2.05348
    R4        2.81670   0.00027  -0.00102   0.00157   0.00055   2.81726
    R5        2.05747   0.00006   0.00015  -0.00017  -0.00002   2.05745
    R6        2.33075   0.00030   0.00087  -0.00112  -0.00025   2.33050
    R7        2.08230   0.00021  -0.00013   0.00032   0.00019   2.08249
    A1        2.11651   0.00001  -0.00039   0.00052   0.00014   2.11665
    A2        2.12954   0.00000   0.00034  -0.00046  -0.00013   2.12942
    A3        2.03710  -0.00001   0.00005  -0.00007  -0.00001   2.03708
    A4        2.14936  -0.00035   0.00031  -0.00098  -0.00066   2.14870
    A5        2.10950   0.00015  -0.00063   0.00075   0.00012   2.10962
    A6        2.02223   0.00026  -0.00001   0.00031   0.00030   2.02253
    A7        2.14995   0.00025  -0.00080   0.00147   0.00068   2.15063
    A8        2.04561  -0.00017   0.00139  -0.00197  -0.00058   2.04503
    A9        2.08697   0.00006  -0.00020   0.00057   0.00037   2.08734
    D1        3.08728   0.00057  -0.00159  -0.00102  -0.00260   3.08467
    D2        0.01824  -0.00064   0.00372  -0.00247   0.00126   0.01950
    D3       -0.04471   0.00061  -0.00185  -0.00025  -0.00210  -0.04681
    D4       -3.11375  -0.00060   0.00345  -0.00170   0.00176  -3.11199
    D5       -1.74531  -0.00396   0.00000   0.00000   0.00000  -1.74531
    D6        1.35704   0.00010   0.01614   0.00214   0.01828   1.37532
    D7        1.32708  -0.00281  -0.00509   0.00140  -0.00369   1.32339
    D8       -1.85376   0.00125   0.01105   0.00354   0.01459  -1.83917
         Item               Value     Threshold  Converged?
 Maximum Force            0.000861     0.000450     NO 
 RMS     Force            0.000284     0.000300     YES
 Maximum Displacement     0.015495     0.001800     NO 
 RMS     Displacement     0.004640     0.001200     NO 
 Predicted change in Energy=-1.328882D-05
 GradGradGradGradGradGradGradGradGradGradGradGradGradGradGradGradGradGrad

 Leave Link  103 at Wed May 12 11:58:29 2021, MaxMem=  2147483648 cpu:         0.2
 (Enter /opt/cluster/programs/g09_d.01/g09/l202.exe)
                          Input orientation:                          
 ---------------------------------------------------------------------
 Center     Atomic      Atomic             Coordinates (Angstroms)
 Number     Number       Type             X           Y           Z
 ---------------------------------------------------------------------
      1          6           0        1.667552    0.313321    0.087368
      2          6           0        0.614786   -0.502044   -0.017598
      3          6           0       -0.741471   -0.033038   -0.421535
[...]
 RMSDP=6.55D-08 MaxDP=9.29D-07 DE=-5.30D-11 OVMax= 1.51D-06

 Cycle  10  Pass 1  IDiag  1:
 E= -191.782571028304     Delta-E=       -0.000000000003 Rises=F Damp=F
 DIIS: error= 3.85D-08 at cycle  10 NSaved=  10.
 NSaved=10 IEnMin=10 EnMin= -191.782571028304     IErMin=10 ErrMin= 3.85D-08
 ErrMax= 3.85D-08  0.00D+00 EMaxC= 1.00D-01 BMatC= 4.56D-14 BMatP= 6.29D-13
 IDIUse=1 WtCom= 1.00D+00 WtEn= 0.00D+00
 Coeff-Com:  0.459D-04-0.102D-03-0.578D-03-0.130D-02 0.548D-02 0.513D-02
 Coeff-Com: -0.185D-01-0.530D-01 0.115D-01 0.105D+01
 Coeff:      0.459D-04-0.102D-03-0.578D-03-0.130D-02 0.548D-02 0.513D-02
 Coeff:     -0.185D-01-0.530D-01 0.115D-01 0.105D+01
 Gap=     0.366 Goal=   None    Shift=    0.000
 RMSDP=1.91D-08 MaxDP=2.09D-07 DE=-2.50D-12 OVMax= 4.69D-07

 Cycle  11  Pass 1  IDiag  1:
 E= -191.782571028305     Delta-E=       -0.000000000001 Rises=F Damp=F
 DIIS: error= 1.01D-08 at cycle  11 NSaved=  11.
 NSaved=11 IEnMin=11 EnMin= -191.782571028305     IErMin=11 ErrMin= 1.01D-08
 ErrMax= 1.01D-08  0.00D+00 EMaxC= 1.00D-01 BMatC= 6.69D-15 BMatP= 4.56D-14
 IDIUse=1 WtCom= 1.00D+00 WtEn= 0.00D+00
 Coeff-Com: -0.981D-05 0.116D-03-0.122D-03-0.627D-03 0.424D-03 0.129D-02
 Coeff-Com:  0.535D-02-0.849D-02-0.111D+00 0.222D+00 0.891D+00
 Coeff:     -0.981D-05 0.116D-03-0.122D-03-0.627D-03 0.424D-03 0.129D-02
 Coeff:      0.535D-02-0.849D-02-0.111D+00 0.222D+00 0.891D+00
 Gap=     0.366 Goal=   None    Shift=    0.000
 RMSDP=8.06D-09 MaxDP=1.05D-07 DE=-6.82D-13 OVMax= 1.49D-07

 SCF Done:  E(RwB97XD) =  -191.782571028     A.U. after   11 cycles
            NFock= 11  Conv=0.81D-08     -V/T= 2.0058
 KE= 1.906749037956D+02 PE=-6.524751290052D+02 EE= 1.674757067861D+02
 Leave Link  502 at Wed May 12 11:58:33 2021, MaxMem=  2147483648 cpu:         7.5
 (Enter /opt/cluster/programs/g09_d.01/g09/l701.exe)
 Compute integral first derivatives.
 ... and contract with generalized density number  0.
 R6Disp: Adding Grimme-D2 dispersion energy 1st derivatives to the gradient.
 Leave Link  701 at Wed May 12 11:58:33 2021, MaxMem=  2147483648 cpu:         0.6
 (Enter /opt/cluster/programs/g09_d.01/g09/l702.exe)
 L702 exits ... SP integral derivatives will be done elsewhere.
 Leave Link  702 at Wed May 12 11:58:33 2021, MaxMem=  2147483648 cpu:         0.2
 (Enter /opt/cluster/programs/g09_d.01/g09/l703.exe)
 Compute integral first derivatives, UseDBF=F ICtDFT=           0.
 Integral derivatives from FoFJK, PRISM(SPDF).
 Calling FoFJK, ICntrl=      2127 FMM=F ISym2X=0 I1Cent= 0 IOpClX= 0 NMat=1 NMatS=1 NMatT=0.
 FoFJK:  IHMeth= 1 ICntrl=    2127 DoSepK=T KAlg= 0 I1Cent=   0 FoldK=F
 IRaf=         1 NMat=   1 IRICut=       1 DoRegI=T DoRafI=F ISym2E= 0.
 FoFCou: FMM=F IPFlag=           0 FMFlag=      100000 FMFlg1=         800
         NFxFlg=           0 DoJE=F BraDBF=F KetDBF=F FulRan=T
         wScrn=  0.000000 ICntrl=    2527 IOpCl=  0 I1Cent=           0 NGrid=           0
         NMat0=    1 NMatS0=      1 NMatT0=    0 NMatD0=    1 NMtDS0=    0 NMtDT0=    0
 Symmetry not used in FoFCou.
 Leave Link  703 at Wed May 12 11:58:33 2021, MaxMem=  2147483648 cpu:         2.4
 (Enter /opt/cluster/programs/g09_d.01/g09/l716.exe)
 Dipole        = 1.04059028D+00 2.14582132D-01 6.31679621D-01
 ***** Axes restored to original set *****
 -------------------------------------------------------------------
 Center     Atomic                   Forces (Hartrees/Bohr)
 Number     Number              X              Y              Z
 -------------------------------------------------------------------
      1        6           0.000562531   -0.000403842   -0.002383089
      2        6          -0.001152219   -0.000619556    0.003455600
      3        6           0.001626026    0.003546342   -0.000948086
      4        8          -0.001119961   -0.002556008    0.000028187
      5        1           0.000038418    0.000021884   -0.000161013
      6        1           0.000039743    0.000006657   -0.000026438
      7        1          -0.000013374    0.000045296    0.000031056
      8        1           0.000018835   -0.000040773    0.000003783
 -------------------------------------------------------------------
 Cartesian Forces:  Max     0.003546342 RMS     0.001350221
 Leave Link  716 at Wed May 12 11:58:33 2021, MaxMem=  2147483648 cpu:         0.2
 (Enter /opt/cluster/programs/g09_d.01/g09/l103.exe)

 GradGradGradGradGradGradGradGradGradGradGradGradGradGradGradGradGradGrad
 Berny optimization.
 Using GEDIIS/GDIIS optimizer.
 FormGI is forming the generalized inverse of G from B-inverse, IUseBI=4.
 Internal  Forces:  Max     0.003302622 RMS     0.000862043
 Search for a local minimum.
 Step number   4 out of a maximum of   34
 All quantities printed in internal units (Hartrees-Bohrs-Radians)
 RMS Force = .97845D-04 SwitMx=.10000D-02 MixMth= 2
 Mixed Optimization -- En-DIIS/RFO-DIIS
 Swapping is turned off.
 Update second derivatives using D2CorX and points    1    2    3    4
 DE= -1.08D-05 DEPred=-1.33D-05 R= 8.10D-01
 TightC=F SS=  1.41D+00  RLast= 2.41D-02 DXNew= 2.5227D-01 7.2153D-02
 Trust test= 8.10D-01 RLast= 2.41D-02 DXMaxT set to 1.50D-01
 ITU=  1 -1  1  0
     Eigenvalues ---    0.01385   0.02879   0.02987   0.04939   0.14107
     Eigenvalues ---    0.16000   0.16038   0.16140   0.20340   0.22460
     Eigenvalues ---    0.32353   0.33299   0.34810   0.35133   0.35349
     Eigenvalues ---    0.62598   0.811531000.000001000.000001000.00000
     Eigenvalues --- 1000.000001000.000001000.000001000.00000
 En-DIIS/RFO-DIIS IScMMF=        0 using points:     4    3    2
 RFO step:  Lambda=-8.48894850D-07.
 NNeg= 0 NP= 3 Switch=  2.50D-03 Rises=F DC= -5.67D-06 SmlDif=  1.00D-05
 RMS Error=  0.1418520120D-03 NUsed= 3 EDIIS=F
 DidBck=F Rises=F RFO-DIIS coefs:    1.00497   -0.00276   -0.00221
 Iteration  1 RMS(Cart)=  0.00052285 RMS(Int)=  0.00000047
 Iteration  2 RMS(Cart)=  0.00000022 RMS(Int)=  0.00000042
 Iteration  1 RMS(Cart)=  0.00000037 RMS(Int)=  0.00000027
 ITry= 1 IFail=0 DXMaxC= 1.46D-03 DCOld= 1.00D+10 DXMaxT= 1.50D-01 DXLimC= 3.00D+00 Rises=F
 Variable       Old X    -DE/DX   Delta X   Delta X   Delta X     New X
                                 (Linear)    (Quad)   (Total)
    R1        2.52415   0.00006   0.00000   0.00009   0.00009   2.52424
    R2        2.04977   0.00003   0.00000   0.00007   0.00007   2.04985
    R3        2.05348   0.00003   0.00000   0.00009   0.00009   2.05357
    R4        2.81726   0.00012   0.00001   0.00037   0.00037   2.81763
    R5        2.05745   0.00004   0.00000   0.00011   0.00011   2.05756
    R6        2.33050   0.00039   0.00000   0.00041   0.00040   2.33091
    R7        2.08249   0.00015   0.00000   0.00045   0.00045   2.08294
    A1        2.11665   0.00002   0.00000   0.00013   0.00013   2.11677
    A2        2.12942  -0.00001   0.00000  -0.00005  -0.00005   2.12937
    A3        2.03708  -0.00001   0.00000  -0.00007  -0.00007   2.03701
    A4        2.14870  -0.00003   0.00000  -0.00027  -0.00028   2.14843
    A5        2.10962   0.00010   0.00000   0.00008   0.00009   2.10971
    A6        2.02253   0.00001   0.00000   0.00019   0.00019   2.02272
    A7        2.15063   0.00006   0.00001   0.00022   0.00022   2.15085
    A8        2.04503  -0.00008  -0.00001  -0.00056  -0.00056   2.04447
    A9        2.08734   0.00006   0.00000   0.00034   0.00034   2.08768
    D1        3.08467   0.00070  -0.00001   0.00110   0.00109   3.08576
    D2        0.01950  -0.00063  -0.00001   0.00101   0.00101   0.02050
    D3       -0.04681   0.00067   0.00000   0.00037   0.00037  -0.04645
    D4       -3.11199  -0.00066   0.00000   0.00028   0.00028  -3.11171
    D5       -1.74531  -0.00330   0.00000   0.00000   0.00000  -1.74531
    D6        1.37532  -0.00064   0.00004  -0.00009  -0.00005   1.37526
    D7        1.32339  -0.00203   0.00000   0.00008   0.00008   1.32347
    D8       -1.83917   0.00063   0.00004  -0.00001   0.00002  -1.83915
         Item               Value     Threshold  Converged?
 Maximum Force            0.000393     0.000450     YES
 RMS     Force            0.000098     0.000300     YES
 Maximum Displacement     0.001462     0.001800     YES
 RMS     Displacement     0.000523     0.001200     YES
 Predicted change in Energy=-2.322557D-07
 Optimization completed.
    -- Stationary point found.
                           ----------------------------
                           !   Optimized Parameters   !
                           ! (Angstroms and Degrees)  !
 --------------------------                            --------------------------
 ! Name  Definition              Value          Derivative Info.                !
 --------------------------------------------------------------------------------
 ! R1    R(1,2)                  1.3357         -DE/DX =    0.0001              !
 ! R2    R(1,6)                  1.0847         -DE/DX =    0.0                 !
 ! R3    R(1,7)                  1.0867         -DE/DX =    0.0                 !
 ! R4    R(2,3)                  1.4908         -DE/DX =    0.0001              !
 ! R5    R(2,8)                  1.0888         -DE/DX =    0.0                 !
 ! R6    R(3,4)                  1.2332         -DE/DX =    0.0004              !
 ! R7    R(3,5)                  1.102          -DE/DX =    0.0002              !
 ! A1    A(2,1,6)              121.2749         -DE/DX =    0.0                 !
 ! A2    A(2,1,7)              122.0065         -DE/DX =    0.0                 !
 ! A3    A(6,1,7)              116.7162         -DE/DX =    0.0                 !
 ! A4    A(1,2,3)              123.1117         -DE/DX =    0.0                 !
 ! A5    A(1,2,8)              120.8724         -DE/DX =    0.0001              !
 ! A6    A(3,2,8)              115.8823         -DE/DX =    0.0                 !
 ! A7    A(2,3,4)              123.2218         -DE/DX =    0.0001              !
 ! A8    A(2,3,5)              117.1719         -DE/DX =   -0.0001              !
 ! A9    A(4,3,5)              119.5956         -DE/DX =    0.0001              !
 ! D1    D(6,1,2,3)            176.7387         -DE/DX =    0.0007              !
 ! D2    D(6,1,2,8)              1.117          -DE/DX =   -0.0006              !
 ! D3    D(7,1,2,3)             -2.6822         -DE/DX =    0.0007              !
 ! D4    D(7,1,2,8)           -178.3039         -DE/DX =   -0.0007              !
 ! D5    D(1,2,3,4)            -99.9989         -DE/DX =   -0.0033              !
 ! D6    D(1,2,3,5)             78.7998         -DE/DX =   -0.0006              !
 ! D7    D(8,2,3,4)             75.8245         -DE/DX =   -0.002               !
 ! D8    D(8,2,3,5)           -105.3768         -DE/DX =    0.0006              !
 --------------------------------------------------------------------------------
 Lowest energy point so far.  Saving SCF results.
 GradGradGradGradGradGradGradGradGradGradGradGradGradGradGradGradGradGrad

 Largest change from initial coordinates is atom    5       0.009 Angstoms.
 Leave Link  103 at Wed May 12 11:58:33 2021, MaxMem=  2147483648 cpu:         0.0
 (Enter /opt/cluster/programs/g09_d.01/g09/l202.exe)
                          Input orientation:                          
 ---------------------------------------------------------------------
 Center     Atomic      Atomic             Coordinates (Angstroms)
 Number     Number       Type             X           Y           Z
 ---------------------------------------------------------------------
      1          6           0        1.667552    0.313321    0.087368
      2          6           0        0.614786   -0.502044   -0.017598
      3          6           0       -0.741471   -0.033038   -0.421535
      4          8           0       -1.649043    0.184545    0.384614
      5          1           0       -0.914798    0.140022   -1.495976
      6          1           0        2.628912   -0.050106    0.434165
      7          1           0        1.604694    1.369743   -0.159301
      8          1           0        0.691321   -1.551877    0.260567
 ---------------------------------------------------------------------
                    Distance matrix (angstroms):
                    1          2          3          4          5
     1  C    0.000000
     2  C    1.335722   0.000000
     3  C    2.486432   1.490828   0.000000
     4  O    3.332377   2.399604   1.233250   0.000000
     5  H    3.034064   2.222044   1.102005   2.019336   0.000000
     6  H    1.084693   2.113064   3.477355   4.284671   4.039737
     7  H    1.086657   2.122165   2.746098   3.505330   3.105923
     8  H    2.112343   1.088753   2.196595   2.916822   2.920203
                    6          7          8
     6  H    0.000000
     7  H    1.848566   0.000000
     8  H    2.457583   3.089726   0.000000
 Stoichiometry    C3H4O
 Framework group  C1[X(C3H4O)]
 Deg. of freedom    18
 Full point group                 C1      NOp   1
 RotChk:  IX=0 Diff= 5.64D-16
 Largest Abelian subgroup         C1      NOp   1
 Largest concise Abelian subgroup C1      NOp   1
                         Standard orientation:                         
 ---------------------------------------------------------------------
 Center     Atomic      Atomic             Coordinates (Angstroms)
 Number     Number       Type             X           Y           Z
 ---------------------------------------------------------------------
      1          6           0        1.664621   -0.317033   -0.083143
      2          6           0        0.614127    0.502184    0.014323
      3          6           0       -0.743846    0.040347    0.420750
      4          8           0       -1.651318   -0.181060   -0.384470
      5          1           0       -0.918639   -0.123603    1.496381
      6          1           0        2.627341    0.040827   -0.431951
      7          1           0        1.598482   -1.371260    0.171916
      8          1           0        0.693952    1.549531   -0.272166
 ---------------------------------------------------------------------
 Rotational constants (GHZ):     31.2995483      4.7928741      4.6759238
 Leave Link  202 at Wed May 12 11:58:33 2021, MaxMem=  2147483648 cpu:         0.0
 (Enter /opt/cluster/programs/g09_d.01/g09/l601.exe)
 Copying SCF densities to generalized density rwf, IOpCl= 0 IROHF=0.

 **********************************************************************

            Population analysis using the SCF density.

 **********************************************************************

 Orbital symmetries:
       Occupied  (A) (A) (A) (A) (A) (A) (A) (A) (A) (A) (A) (A)
                 (A) (A) (A)
       Virtual   (A) (A) (A) (A) (A) (A) (A) (A) (A) (A) (A) (A)
                 (A) (A) (A) (A) (A) (A) (A) (A) (A) (A) (A) (A)
                 (A) (A) (A) (A) (A) (A) (A) (A) (A) (A) (A) (A)
                 (A) (A) (A) (A) (A) (A) (A) (A) (A)
 The electronic state is 1-A.
 Alpha  occ. eigenvalues --  -19.29753 -10.41318 -10.33148 -10.32511  -1.18057
 Alpha  occ. eigenvalues --   -0.91076  -0.76154  -0.67118  -0.59765  -0.56612
 Alpha  occ. eigenvalues --   -0.53842  -0.49015  -0.46929  -0.37798  -0.35528
 Alpha virt. eigenvalues --    0.01059   0.05119   0.07578   0.08596   0.09102
 Alpha virt. eigenvalues --    0.11025   0.12472   0.13239   0.14715   0.16678
 Alpha virt. eigenvalues --    0.17109   0.17781   0.19433   0.22506   0.27696
 Alpha virt. eigenvalues --    0.28269   0.29896   0.31018   0.32599   0.33530
 Alpha virt. eigenvalues --    0.36977   0.39917   0.44172   0.45554   0.50573
 Alpha virt. eigenvalues --    0.69241   0.72137   0.75612   0.78754   0.80786
 Alpha virt. eigenvalues --    0.85853   0.89070   0.89840   1.01458   1.05306
 Alpha virt. eigenvalues --    1.09641   1.12206   1.13720   1.23335   1.26942
 Alpha virt. eigenvalues --    1.31555   1.33075   1.38689   1.46893   1.89040
          Condensed to atoms (all electrons):
               1          2          3          4          5          6
     1  C    5.006493   0.585199   0.021118  -0.024208  -0.002629   0.368308
     2  C    0.585199   5.229906   0.242190  -0.104984  -0.088359  -0.018997
     3  C    0.021118   0.242190   5.069957   0.291841   0.363380   0.006608
     4  O   -0.024208  -0.104984   0.291841   8.280704  -0.075315  -0.000361
     5  H   -0.002629  -0.088359   0.363380  -0.075315   0.614569  -0.000130
     6  H    0.368308  -0.018997   0.006608  -0.000361  -0.000130   0.467582
     7  H    0.388655  -0.055314   0.010516   0.000334   0.000298  -0.022733
     8  H    0.001970   0.342697  -0.019437  -0.001128   0.001235  -0.004476
               7          8
     1  C    0.388655   0.001970
     2  C   -0.055314   0.342697
     3  C    0.010516  -0.019437
     4  O    0.000334  -0.001128
     5  H    0.000298   0.001235
     6  H   -0.022733  -0.004476
     7  H    0.472494   0.002542
     8  H    0.002542   0.440650
 Mulliken charges:
               1
     1  C   -0.344906
     2  C   -0.132339
     3  C    0.013826
     4  O   -0.366884
     5  H    0.186950
     6  H    0.204198
     7  H    0.203208
     8  H    0.235946
 Sum of Mulliken charges =   0.00000
 Mulliken charges with hydrogens summed into heavy atoms:
               1
     1  C    0.062501
     2  C    0.103607
     3  C    0.200776
     4  O   -0.366884
 Electronic spatial extent (au):  <R**2>=            292.1000
 Charge=              0.0000 electrons
 Dipole moment (field-independent basis, Debye):
    X=              2.6449    Y=              0.5454    Z=              1.6056  Tot=              3.1418
 Quadrupole moment (field-independent basis, Debye-Ang):
   XX=            -27.2244   YY=            -21.9510   ZZ=            -25.2074
   XY=             -1.2201   XZ=             -3.4414   YZ=             -0.9717
 Traceless Quadrupole moment (field-independent basis, Debye-Ang):
   XX=             -2.4301   YY=              2.8433   ZZ=             -0.4131
   XY=             -1.2201   XZ=             -3.4414   YZ=             -0.9717
 Octapole moment (field-independent basis, Debye-Ang**2):
  XXX=             11.1701  YYY=              0.3134  ZZZ=              1.3797  XYY=             -0.1689
  XXY=              0.9561  XXZ=              0.6221  XZZ=             -3.6962  YZZ=             -0.3499
  YYZ=             -0.6926  XYZ=             -0.6957
 Hexadecapole moment (field-independent basis, Debye-Ang**3):
 XXXX=           -283.4258 YYYY=            -47.7179 ZZZZ=            -48.5482 XXXY=             -3.0246
 XXXZ=            -10.5165 YYYX=             -0.1707 YYYZ=             -2.0025 ZZZX=             -1.6824
 ZZZY=             -0.7672 XXYY=            -53.9378 XXZZ=            -57.4824 YYZZ=            -17.6279
 XXYZ=             -1.9859 YYXZ=              0.1644 ZZXY=              0.5031
 N-N= 1.025419473952D+02 E-N=-6.524751297245D+02  KE= 1.906749037956D+02
 No NMR shielding tensors so no spin-rotation constants.
 Leave Link  601 at Wed May 12 11:58:33 2021, MaxMem=  2147483648 cpu:         0.6
 (Enter /opt/cluster/programs/g09_d.01/g09/l9999.exe)
 1\1\GINC-NODE16\FOpt\RwB97XD\6-31+G\C3H4O1\BOITTIER\12-May-2021\0\\#p 
 wB97XD/6-31+G Opt=ModRedun\\L.pdb\\0,1\C,1.6675521393,0.3133213469,0.0
 873684903\C,0.6147863908,-0.5020440593,-0.0175979548\C,-0.7414713575,-
 0.0330375286,-0.4215352781\O,-1.6490425711,0.1845448368,0.384614293\H,
 -0.9147978246,0.1400217241,-1.4959764146\H,2.6289117109,-0.0501061206,
 0.4341653637\H,1.6046939095,1.3697432488,-0.1593008908\H,0.6913206027,
 -1.5518774481,0.2605673913\\Version=ES64L-G09RevD.01\State=1-A\HF=-191
 .782571\RMSD=8.059e-09\RMSF=1.350e-03\Dipole=1.0405483,-0.2125321,-0.6
 324413\Quadrupole=-1.806193,2.1201469,-0.313954,0.898641,2.5623594,-0.
 709606\PG=C01 [X(C3H4O1)]\\@


 IF THERE IS ONE WAY BETTER THAN ANOTHER IT IS THE WAY OF NATURE.

                          -- ARISTOTLE
 Job cpu time:       0 days  0 hours  1 minutes  2.0 seconds.
 File lengths (MBytes):  RWF=      5 Int=      0 D2E=      0 Chk=      2 Scr=      1
 Normal termination of Gaussian 09 at Wed May 12 11:58:33 2021.
