B.pdb                                                                   
FOpt      RwB97XD                                                     6-31+G              
Number of atoms                            I               10
Info1-9                                    I   N=           9
          21          21           0           0           0         110
           2          18        -802
Charge                                     I                0
Multiplicity                               I                1
Number of electrons                        I               38
Number of alpha electrons                  I               19
Number of beta electrons                   I               19
Number of basis functions                  I               75
Number of independent functions            I               75
Number of point charges in /Mol/           I                0
Number of translation vectors              I                0
Atomic numbers                             I   N=          10
           6           6           6           6           1           1
           9           1           1           1
Nuclear charges                            R   N=          10
  6.00000000E+00  6.00000000E+00  6.00000000E+00  6.00000000E+00  1.00000000E+00
  1.00000000E+00  9.00000000E+00  1.00000000E+00  1.00000000E+00  1.00000000E+00
Current cartesian coordinates              R   N=          30
  1.71746687E+00  2.47079329E+00  1.75521718E-01  8.81526102E-01  1.01745381E-01
  9.76673684E-02 -1.66129677E+00 -9.15825007E-01  4.96023018E-01 -3.76779674E+00
  1.93047711E-01 -3.59421573E-01  3.68590292E+00  2.91043693E+00 -1.63257919E-01
  4.26555414E-01  4.00008771E+00  5.99239945E-01  2.65998147E+00 -1.84694790E+00
 -3.28501312E-01 -1.74877548E+00 -2.69875305E+00  1.51151910E+00 -3.70748270E+00
  1.92198500E+00 -1.46417239E+00 -5.61543019E+00 -6.09793748E-01  1.44398872E-02
Force Field                                I                0
Int Atom Types                             I   N=          10
           0           0           0           0           0           0
           0           0           0           0
MM charges                                 R   N=          10
  0.00000000E+00  0.00000000E+00  0.00000000E+00  0.00000000E+00  0.00000000E+00
  0.00000000E+00  0.00000000E+00  0.00000000E+00  0.00000000E+00  0.00000000E+00
Integer atomic weights                     I   N=          10
          12          12          12          12           1           1
          19           1           1           1
Real atomic weights                        R   N=          10
  1.20000000E+01  1.20000000E+01  1.20000000E+01  1.20000000E+01  1.00782504E+00
  1.00782504E+00  1.89984032E+01  1.00782504E+00  1.00782504E+00  1.00782504E+00
Atom fragment info                         I   N=          10
           0           0           0           0           0           0
           0           0           0           0
Atom residue num                           I   N=          10
           0           0           0           0           0           0
           0           0           0           0
Nuclear spins                              I   N=          10
           0           0           0           0           1           1
           1           1           1           1
Nuclear ZEff                               R   N=          10
 -3.60000000E+00 -3.60000000E+00 -3.60000000E+00 -3.60000000E+00 -1.00000000E+00
 -1.00000000E+00 -6.75000000E+00 -1.00000000E+00 -1.00000000E+00 -1.00000000E+00
Nuclear ZNuc                               R   N=          10
  6.00000000E+00  6.00000000E+00  6.00000000E+00  6.00000000E+00  1.00000000E+00
  1.00000000E+00  9.00000000E+00  1.00000000E+00  1.00000000E+00  1.00000000E+00
Nuclear QMom                               R   N=          10
  0.00000000E+00  0.00000000E+00  0.00000000E+00  0.00000000E+00  0.00000000E+00
  0.00000000E+00  0.00000000E+00  0.00000000E+00  0.00000000E+00  0.00000000E+00
Nuclear GFac                               R   N=          10
  0.00000000E+00  0.00000000E+00  0.00000000E+00  0.00000000E+00  2.79284600E+00
  2.79284600E+00  2.62886700E+00  2.79284600E+00  2.79284600E+00  2.79284600E+00
MicOpt                                     I   N=          10
          -1          -1          -1          -1          -1          -1
          -1          -1          -1          -1
Number of contracted shells                I               30
Number of primitive shells                 I               75
Pure/Cartesian d shells                    I                1
Pure/Cartesian f shells                    I                0
Highest angular momentum                   I                1
Largest degree of contraction              I                6
Shell types                                I   N=          30
           0          -1          -1          -1           0          -1
          -1          -1           0          -1          -1          -1
           0          -1          -1          -1           0           0
           0           0           0          -1          -1          -1
           0           0           0           0           0           0
Number of primitives per shell             I   N=          30
           6           3           1           1           6           3
           1           1           6           3           1           1
           6           3           1           1           3           1
           3           1           6           3           1           1
           3           1           3           1           3           1
Shell to atom map                          I   N=          30
           1           1           1           1           2           2
           2           2           3           3           3           3
           4           4           4           4           5           5
           6           6           7           7           7           7
           8           8           9           9          10          10
Primitive exponents                        R   N=          75
  3.04752488E+03  4.57369518E+02  1.03948685E+02  2.92101553E+01  9.28666296E+00
  3.16392696E+00  7.86827235E+00  1.88128854E+00  5.44249258E-01  1.68714478E-01
  4.38000000E-02  3.04752488E+03  4.57369518E+02  1.03948685E+02  2.92101553E+01
  9.28666296E+00  3.16392696E+00  7.86827235E+00  1.88128854E+00  5.44249258E-01
  1.68714478E-01  4.38000000E-02  3.04752488E+03  4.57369518E+02  1.03948685E+02
  2.92101553E+01  9.28666296E+00  3.16392696E+00  7.86827235E+00  1.88128854E+00
  5.44249258E-01  1.68714478E-01  4.38000000E-02  3.04752488E+03  4.57369518E+02
  1.03948685E+02  2.92101553E+01  9.28666296E+00  3.16392696E+00  7.86827235E+00
  1.88128854E+00  5.44249258E-01  1.68714478E-01  4.38000000E-02  1.87311370E+01
  2.82539436E+00  6.40121692E-01  1.61277759E-01  1.87311370E+01  2.82539436E+00
  6.40121692E-01  1.61277759E-01  7.00171309E+03  1.05136609E+03  2.39285690E+02
  6.73974453E+01  2.15199573E+01  7.40310130E+00  2.08479528E+01  4.80830834E+00
  1.34406986E+00  3.58151393E-01  1.07600000E-01  1.87311370E+01  2.82539436E+00
  6.40121692E-01  1.61277759E-01  1.87311370E+01  2.82539436E+00  6.40121692E-01
  1.61277759E-01  1.87311370E+01  2.82539436E+00  6.40121692E-01  1.61277759E-01
Contraction coefficients                   R   N=          75
  1.83473713E-03  1.40373228E-02  6.88426223E-02  2.32184443E-01  4.67941348E-01
  3.62311985E-01 -1.19332420E-01 -1.60854152E-01  1.14345644E+00  1.00000000E+00
  1.00000000E+00  1.83473713E-03  1.40373228E-02  6.88426223E-02  2.32184443E-01
  4.67941348E-01  3.62311985E-01 -1.19332420E-01 -1.60854152E-01  1.14345644E+00
  1.00000000E+00  1.00000000E+00  1.83473713E-03  1.40373228E-02  6.88426223E-02
  2.32184443E-01  4.67941348E-01  3.62311985E-01 -1.19332420E-01 -1.60854152E-01
  1.14345644E+00  1.00000000E+00  1.00000000E+00  1.83473713E-03  1.40373228E-02
  6.88426223E-02  2.32184443E-01  4.67941348E-01  3.62311985E-01 -1.19332420E-01
 -1.60854152E-01  1.14345644E+00  1.00000000E+00  1.00000000E+00  3.34946043E-02
  2.34726953E-01  8.13757326E-01  1.00000000E+00  3.34946043E-02  2.34726953E-01
  8.13757326E-01  1.00000000E+00  1.81961690E-03  1.39160796E-02  6.84053245E-02
  2.33185760E-01  4.71267439E-01  3.56618546E-01 -1.08506975E-01 -1.46451658E-01
  1.12868858E+00  1.00000000E+00  1.00000000E+00  3.34946043E-02  2.34726953E-01
  8.13757326E-01  1.00000000E+00  3.34946043E-02  2.34726953E-01  8.13757326E-01
  1.00000000E+00  3.34946043E-02  2.34726953E-01  8.13757326E-01  1.00000000E+00
P(S=P) Contraction coefficients            R   N=          75
  0.00000000E+00  0.00000000E+00  0.00000000E+00  0.00000000E+00  0.00000000E+00
  0.00000000E+00  6.89990666E-02  3.16423961E-01  7.44308291E-01  1.00000000E+00
  1.00000000E+00  0.00000000E+00  0.00000000E+00  0.00000000E+00  0.00000000E+00
  0.00000000E+00  0.00000000E+00  6.89990666E-02  3.16423961E-01  7.44308291E-01
  1.00000000E+00  1.00000000E+00  0.00000000E+00  0.00000000E+00  0.00000000E+00
  0.00000000E+00  0.00000000E+00  0.00000000E+00  6.89990666E-02  3.16423961E-01
  7.44308291E-01  1.00000000E+00  1.00000000E+00  0.00000000E+00  0.00000000E+00
  0.00000000E+00  0.00000000E+00  0.00000000E+00  0.00000000E+00  6.89990666E-02
  3.16423961E-01  7.44308291E-01  1.00000000E+00  1.00000000E+00  0.00000000E+00
  0.00000000E+00  0.00000000E+00  0.00000000E+00  0.00000000E+00  0.00000000E+00
  0.00000000E+00  0.00000000E+00  0.00000000E+00  0.00000000E+00  0.00000000E+00
  0.00000000E+00  0.00000000E+00  0.00000000E+00  7.16287242E-02  3.45912103E-01
  7.22469956E-01  1.00000000E+00  1.00000000E+00  0.00000000E+00  0.00000000E+00
  0.00000000E+00  0.00000000E+00  0.00000000E+00  0.00000000E+00  0.00000000E+00
  0.00000000E+00  0.00000000E+00  0.00000000E+00  0.00000000E+00  0.00000000E+00
Coordinates of each shell                  R   N=          90
  1.71746687E+00  2.47079329E+00  1.75521718E-01  1.71746687E+00  2.47079329E+00
  1.75521718E-01  1.71746687E+00  2.47079329E+00  1.75521718E-01  1.71746687E+00
  2.47079329E+00  1.75521718E-01  8.81526102E-01  1.01745381E-01  9.76673684E-02
  8.81526102E-01  1.01745381E-01  9.76673684E-02  8.81526102E-01  1.01745381E-01
  9.76673684E-02  8.81526102E-01  1.01745381E-01  9.76673684E-02 -1.66129677E+00
 -9.15825007E-01  4.96023018E-01 -1.66129677E+00 -9.15825007E-01  4.96023018E-01
 -1.66129677E+00 -9.15825007E-01  4.96023018E-01 -1.66129677E+00 -9.15825007E-01
  4.96023018E-01 -3.76779674E+00  1.93047711E-01 -3.59421573E-01 -3.76779674E+00
  1.93047711E-01 -3.59421573E-01 -3.76779674E+00  1.93047711E-01 -3.59421573E-01
 -3.76779674E+00  1.93047711E-01 -3.59421573E-01  3.68590292E+00  2.91043693E+00
 -1.63257919E-01  3.68590292E+00  2.91043693E+00 -1.63257919E-01  4.26555414E-01
  4.00008771E+00  5.99239945E-01  4.26555414E-01  4.00008771E+00  5.99239945E-01
  2.65998147E+00 -1.84694790E+00 -3.28501312E-01  2.65998147E+00 -1.84694790E+00
 -3.28501312E-01  2.65998147E+00 -1.84694790E+00 -3.28501312E-01  2.65998147E+00
 -1.84694790E+00 -3.28501312E-01 -1.74877548E+00 -2.69875305E+00  1.51151910E+00
 -1.74877548E+00 -2.69875305E+00  1.51151910E+00 -3.70748270E+00  1.92198500E+00
 -1.46417239E+00 -3.70748270E+00  1.92198500E+00 -1.46417239E+00 -5.61543019E+00
 -6.09793748E-01  1.44398872E-02 -5.61543019E+00 -6.09793748E-01  1.44398872E-02
Constraint Structure                       R   N=          30
  1.74990066E+00  2.47479774E+00  1.70708410E-01  8.75546258E-01  1.10372692E-01
  9.16403791E-02 -1.66554425E+00 -9.02034003E-01  4.88809790E-01 -3.79543152E+00
  1.97004974E-01 -3.51065762E-01  3.72622174E+00  2.88748680E+00 -1.64402394E-01
  4.86114701E-01  4.03051520E+00  5.85446605E-01  2.66053177E+00 -1.86816361E+00
 -3.21956421E-01 -1.74319747E+00 -2.69752325E+00  1.48753383E+00 -3.76509139E+00
  1.93250677E+00 -1.44783068E+00 -5.63566034E+00 -6.20361433E-01  3.63035287E-02
Num ILSW                                   I              100
ILSW                                       I   N=         100
           0           1           0           0           2           0
           0           0           0           0        4639          -1
           0           0           0           0           2           0
           0           0           0           0           1           0
           1           0           0           0           0           0
           0           0      100000           0          -1           0
           0           0           0           0           0           0
           0           0           0           1           0           0
           0           0           1           0           0           0
           0           0         121          41           0           0
           0           0          58           0           0           0
           0           0           0          10           0           0
           0           0           0           0           0           0
           0           0           0           0           0           0
           0           0           0           0           0           0
           0           0           0           0           0           0
           0           0           0           0
Num RLSW                                   I               41
RLSW                                       R   N=          41
  1.00000000E+00  1.00000000E+00  1.00000000E+00  1.00000000E+00  1.00000000E+00
  0.00000000E+00  2.00000000E-01  2.22036000E-01  0.00000000E+00  7.77964000E-01
  0.00000000E+00  2.00000000E-01  0.00000000E+00  0.00000000E+00  1.00000000E+00
  0.00000000E+00  0.00000000E+00  1.00000000E+00  0.00000000E+00  0.00000000E+00
  0.00000000E+00  0.00000000E+00  1.00000000E+00  0.00000000E+00  0.00000000E+00
  0.00000000E+00  0.00000000E+00  1.00000000E+00  0.00000000E+00  0.00000000E+00
  0.00000000E+00  0.00000000E+00  1.00000000E+00  0.00000000E+00  0.00000000E+00
  0.00000000E+00  0.00000000E+00  0.00000000E+00  1.00000000E+00  1.00000000E+00
  0.00000000E+00
MxBond                                     I                3
NBond                                      I   N=          10
           3           3           3           3           1           1
           1           1           1           1
IBond                                      I   N=          30
           2           5           6           1           3           7
           2           4           8           3           9          10
           1           0           0           1           0           0
           2           0           0           3           0           0
           4           0           0           4           0           0
RBond                                      R   N=          30
  2.00000000E+00  1.00000000E+00  1.00000000E+00  2.00000000E+00  1.00000000E+00
  1.00000000E+00  1.00000000E+00  2.00000000E+00  1.00000000E+00  2.00000000E+00
  1.00000000E+00  1.00000000E+00  1.00000000E+00  0.00000000E+00  0.00000000E+00
  1.00000000E+00  0.00000000E+00  0.00000000E+00  1.00000000E+00  0.00000000E+00
  0.00000000E+00  1.00000000E+00  0.00000000E+00  0.00000000E+00  1.00000000E+00
  0.00000000E+00  0.00000000E+00  1.00000000E+00  0.00000000E+00  0.00000000E+00
Virial Ratio                               R      2.005634044713737E+00
SCF Energy                                 R     -2.550984494507352E+02
Total Energy                               R     -2.550984494507352E+02
RMS Force                                  R      8.622640328797062E-04
RMS Density                                R      5.267675814995017E-09
External E-field                           R   N=          35
  0.00000000E+00  0.00000000E+00  0.00000000E+00  0.00000000E+00  0.00000000E+00
  0.00000000E+00  0.00000000E+00  0.00000000E+00  0.00000000E+00  0.00000000E+00
  0.00000000E+00  0.00000000E+00  0.00000000E+00  0.00000000E+00  0.00000000E+00
  0.00000000E+00  0.00000000E+00  0.00000000E+00  0.00000000E+00  0.00000000E+00
  0.00000000E+00  0.00000000E+00  0.00000000E+00  0.00000000E+00  0.00000000E+00
  0.00000000E+00  0.00000000E+00  0.00000000E+00  0.00000000E+00  0.00000000E+00
  0.00000000E+00  0.00000000E+00  0.00000000E+00  0.00000000E+00  0.00000000E+00
IOpCl                                      I                0
IROHF                                      I                0
Alpha Orbital Energies                     R   N=          75
 -2.48303682E+01 -1.04026684E+01 -1.03313004E+01 -1.03203887E+01 -1.03104133E+01
 -1.31005225E+00 -9.31767584E-01 -8.59178738E-01 -7.44525324E-01 -6.52096896E-01
 -6.14134705E-01 -5.78580722E-01 -5.55119993E-01 -5.29470537E-01 -5.06398335E-01
 -4.84944490E-01 -4.55374584E-01 -4.02914292E-01 -3.36015738E-01  1.94966298E-02
  7.34030978E-02  8.21432214E-02  8.78095697E-02  1.01715319E-01  1.12707539E-01
  1.21866931E-01  1.32391430E-01  1.41946716E-01  1.52040836E-01  1.66668148E-01
  1.76101829E-01  1.82460946E-01  1.90272482E-01  2.03757141E-01  2.09610910E-01
  2.26435154E-01  2.33582927E-01  2.38664753E-01  2.79967449E-01  2.92490859E-01
  3.15121004E-01  3.22400781E-01  3.86794375E-01  4.10612977E-01  4.31060148E-01
  4.42863202E-01  4.64694920E-01  4.79612041E-01  5.03383822E-01  5.23818638E-01
  6.94809198E-01  7.20186113E-01  7.45765347E-01  7.74927909E-01  8.09032333E-01
  8.32290332E-01  8.54268320E-01  8.87308828E-01  9.31664702E-01  9.96939151E-01
  1.01865654E+00  1.05135990E+00  1.06947535E+00  1.13317964E+00  1.15551386E+00
  1.16047193E+00  1.22996027E+00  1.30177431E+00  1.33136347E+00  1.39016838E+00
  1.41222674E+00  1.66999960E+00  1.82031208E+00  1.85753430E+00  2.35934484E+00
Alpha MO coefficients                      R   N=        5625
  3.75429874E-06 -1.31719564E-04  8.53246721E-05  2.90702701E-05 -1.47894418E-05
  1.50733547E-03 -2.95915672E-03  7.32068784E-04  4.90706756E-04  9.25183841E-03
 -8.11961895E-04 -2.40862287E-03  2.46574146E-04 -1.99663717E-05  4.30485459E-04
  3.19387837E-04 -3.76546548E-04 -1.10632739E-04  3.27817139E-04  2.86110160E-03
 -3.19419932E-03 -4.05020553E-04 -2.38077817E-02  9.37395614E-04  1.31005406E-03
 -8.82178507E-04 -6.38220882E-06 -2.13860714E-04 -1.22508419E-05 -1.23587149E-05
  3.60509628E-05  1.58364796E-03 -1.40279599E-03  1.90536841E-03 -3.52130242E-04
  3.80004856E-03  5.25598488E-03 -4.48813008E-04  8.21628658E-04 -1.90710448E-06
 -6.56242522E-05 -1.58527746E-04 -2.71317706E-07 -2.46750482E-05 -1.79449324E-03
 -1.11096734E-04  4.32604515E-04 -5.55465852E-04  7.78390865E-03  1.54803092E-03
 -1.10937724E-03  3.92334025E-04  3.03018696E-04  9.11148298E-04 -2.62833579E-04
 -1.71672790E-03  9.95028001E-01  2.76089248E-02 -8.70444505E-04  9.44028076E-04
  2.20637874E-04 -1.54778311E-02  1.52089837E-03 -1.63807020E-03 -3.99360525E-04
  8.19861839E-03 -8.11783948E-04  7.78197788E-04  1.68958229E-04  1.75786083E-04
  4.13491495E-04 -4.15170459E-06 -2.16292505E-04  7.30078202E-05  3.40544716E-04
  4.70624603E-03 -1.18325630E-03  3.76865780E-04  7.99067279E-04  1.10708626E-05
  8.90207056E-03 -2.85299947E-03 -3.27239814E-03  2.41737552E-04 -1.22193543E-02
  1.99822086E-03  3.57690806E-03 -6.23993187E-04  9.95495426E-01  3.63137827E-02
  8.44044969E-04 -7.94216226E-04 -1.20996507E-04 -3.58321046E-02  4.37580935E-04
 -6.16836672E-04 -3.95056426E-04  4.66872500E-02 -8.81145555E-03 -1.97988896E-03
  3.13493435E-03  2.02541298E-03 -6.48176417E-04 -5.01971266E-04 -2.77483709E-04
  5.10285173E-05  5.90376440E-03  3.21233128E-03  2.23357842E-03 -2.78406326E-04
 -1.22443848E-02 -1.50293787E-02 -1.04210397E-04 -1.63481395E-03 -1.07886005E-04
 -4.42187575E-04 -1.91087506E-04  3.48744368E-05  4.69207397E-05  2.56857774E-04
  4.42857640E-04 -2.33070246E-04 -2.87160449E-04 -2.14360138E-02 -3.52913390E-03
  2.86999346E-03 -1.63719195E-03 -5.06851540E-05  4.48745620E-04 -2.96451385E-04
 -1.08523643E-03  4.20829102E-05  7.21823339E-04 -4.28535819E-05  7.68552485E-05
  1.09765748E-05 -8.97103155E-04  5.28477746E-04 -7.06829258E-04 -1.20156317E-04
  7.13951207E-03 -3.04839473E-03  3.80061058E-03  7.95750408E-04 -1.06483558E-04
  3.23778381E-04 -1.42070735E-04  1.41726504E-04 -1.80213674E-05  7.84775415E-04
 -4.74961756E-04 -3.95280143E-04  9.35658770E-05  1.36910437E-04 -5.42988010E-05
  4.28929770E-04  1.56839233E-03 -6.35809307E-04 -3.57108608E-05 -5.80422608E-03
  7.45708338E-04  2.03277918E-03 -1.80859758E-03 -1.99114814E-03 -7.78022885E-04
  7.15287805E-04  2.59903308E-04 -1.03598072E-04  6.98152968E-03 -7.24006741E-03
 -2.01931987E-04  6.48853733E-04 -1.61422673E-02  6.03786297E-03  9.05699512E-04
  3.05988708E-03  9.94673516E-01  3.64789217E-02  1.30721981E-04  4.19040636E-04
 -2.81198857E-04 -3.65387537E-02 -1.17690493E-03 -4.87384619E-03  2.73052302E-03
  7.23697737E-02 -6.10478157E-03  1.25314902E-02 -8.89534362E-03  3.84367981E-02
  8.16157451E-05 -7.43392867E-04  3.89337497E-04 -2.89819720E-04  8.97292297E-03
  5.10504344E-03 -7.01154343E-04  8.48169168E-04 -4.88273393E-02 -1.00697619E-02
  4.26270283E-03 -3.28413087E-03 -1.38064670E-04 -2.87209184E-04  4.06419039E-05
  6.37810454E-04 -4.43175205E-06 -1.98478302E-04  1.17474227E-04 -9.07524109E-05
 -4.00127644E-05  3.90642308E-04 -3.25645164E-04  5.96617523E-04  2.10357615E-04
  2.53062174E-03 -4.34298077E-04  7.95372259E-04 -7.26543971E-05 -7.05413841E-04
  2.62958336E-03 -3.95836578E-04 -7.13013695E-04 -1.31741906E-04  1.19874116E-03
 -8.33435695E-04 -2.24063821E-04 -2.18515530E-05 -2.21727787E-05  3.03936380E-05
  2.77224217E-04  1.32105992E-03  2.69912901E-04 -3.19823168E-04 -2.39831099E-02
  1.83761602E-03  4.94445200E-03  1.97251855E-04  1.16907942E-04 -3.74179384E-04
  1.46446546E-04 -6.54702861E-05  2.21575102E-06  1.07785663E-03 -1.18265135E-03
  6.35958927E-04  5.04126280E-04 -1.84998437E-02  1.28187486E-02  1.24952469E-02
 -9.81026145E-04 -3.86839715E-02 -2.61411574E-03  1.00023245E-03 -6.13531321E-04
  4.30224150E-04  9.59482873E-03 -5.37008401E-03  2.42863797E-03 -2.05162717E-03
  9.80994756E-03  1.92326292E-02  1.05590218E-03 -4.93172941E-04  9.94582361E-01
  3.53786809E-02  4.44720172E-04 -1.85224476E-04  2.09352332E-04 -3.11562265E-02
 -3.48165569E-03  1.80757304E-03 -1.39424651E-03  3.34427412E-02  7.50303970E-03
 -4.94855764E-03  4.17834931E-03 -1.31182820E-04 -6.87419547E-04  5.08153654E-06
  5.45431917E-04 -4.07820783E-06 -5.89763581E-05  2.03535623E-05 -3.65409541E-05
 -1.59285412E-05  2.07973141E-04 -2.02155948E-04  2.66718751E-04  5.83840982E-05
  1.65576844E-03 -3.64129559E-04 -1.43405213E-04  1.29438135E-04 -7.33992322E-05
  3.24426106E-05 -6.35645057E-04  3.78063425E-03 -7.08566357E-04  4.16042100E-03
  9.95292708E-01  3.56180244E-02 -3.16842739E-04 -6.25742805E-04 -3.11428354E-05
 -3.26756041E-02  2.02214454E-03  4.67001610E-03  1.06986363E-04  2.03758832E-02
 -9.49872371E-04 -7.04435750E-03 -7.60270530E-04 -4.98676426E-03 -1.53235685E-03
 -4.50198888E-04 -1.26219372E-03 -1.24448156E-05  9.27489589E-03  2.73610686E-03
  7.56839349E-03  1.69029999E-04  1.12291313E-02 -1.23457299E-02 -5.09504124E-03
  2.15260581E-03  3.78076465E-04 -3.53364771E-04 -9.17597424E-05 -1.75733112E-04
  4.39335345E-05  1.72464349E-03  1.34329414E-03  2.98152526E-04 -6.59133532E-04
 -1.98148152E-02 -8.97322664E-03 -2.51181963E-03 -7.15553178E-04  8.31637338E-04
 -1.79350803E-04  4.59101812E-05 -2.71382398E-06 -2.60941203E-05  8.12561030E-04
 -9.77824895E-04 -5.63507603E-04  4.70706577E-04 -1.08316822E-02 -2.77730606E-03
  8.57748801E-04 -4.34308297E-04 -7.13337243E-04  3.98211116E-03 -6.16037183E-04
  3.96956292E-03 -1.44637317E-06 -1.51196768E-04  8.79039238E-05 -1.14469815E-04
 -1.48013506E-05  1.71073711E-04 -5.39544230E-04  2.38441842E-04  5.97210156E-05
  1.02991991E-03  5.57100348E-05 -3.49124110E-04  1.15943011E-04 -5.62249047E-05
  8.10079395E-04 -1.08062686E-05  4.30649811E-04 -1.38101121E-04 -5.98283636E-04
 -9.73681724E-03  1.94919863E-02 -1.18354964E-03 -1.63918095E-02 -1.14990956E-03
 -1.04145249E-02  3.37966302E-02 -6.84693933E-03 -5.83538314E-03 -1.34509441E-01
  1.66183196E-02  2.92981812E-02 -1.03306083E-04 -5.91554799E-02  1.15796693E-01
  6.45766064E-02 -6.99016534E-02 -1.46845358E-02  2.94993443E-02 -3.91770613E-02
  4.01324587E-02  7.10370708E-03  2.25601822E-01 -1.03144613E-02  2.41344597E-02
  4.23370528E-03 -8.92737542E-03  1.78928176E-02  1.39757609E-02  5.34284732E-04
 -2.59881927E-03 -9.31296241E-03  1.41770618E-02 -2.16508586E-02  2.29197987E-03
 -8.34134946E-02 -1.61978379E-02 -1.28329021E-02  2.07064191E-03 -8.76064194E-04
  3.20467162E-03  3.13003438E-03 -4.83379041E-04  2.97387377E-04  1.78925681E-02
 -1.37135142E-03 -5.37664121E-03  6.72888936E-03  6.27576529E-03 -8.06654465E-04
  2.32144016E-03  2.08136439E-03  9.43589735E-04 -1.19212145E-02  3.35676543E-03
  1.75796798E-02 -2.25640565E-01  4.78248461E-01 -6.57127139E-02  7.10633978E-02
  1.62335933E-02  5.45748661E-01 -5.29784726E-02  5.69324822E-02  1.33836043E-02
 -9.54255727E-03  9.05619950E-03 -8.90592256E-03 -1.73967580E-03  1.79302652E-03
 -4.99805192E-03  9.87589380E-04  1.27004828E-03 -4.99722653E-04 -6.19320295E-03
 -8.68264745E-02  1.66869640E-01 -3.97746217E-02 -6.77287138E-02 -4.18773028E-05
  1.23856515E-01 -2.10991703E-03 -9.58442635E-03 -1.33414371E-03  6.51733153E-02
 -3.06779614E-03 -1.79348404E-02  2.65626345E-03 -1.21703488E-01  2.45066797E-01
 -6.75583151E-02  5.56480181E-02  1.51935937E-02  1.72083153E-01 -2.63087546E-02
 -7.46038568E-03  2.15678294E-03 -3.49119566E-02 -1.99832293E-02 -1.17496045E-02
 -5.88876683E-03 -1.38400690E-01  2.70204767E-01  2.09412494E-03  5.76854809E-02
 -2.99298658E-02  1.73489268E-01 -2.17915501E-03 -6.35911219E-04  2.87788840E-03
 -1.09179756E-01  8.16388374E-03 -2.31305313E-02  1.57456830E-02 -9.85765460E-02
  1.89285034E-01  7.53562335E-02 -2.84355935E-02  2.53891823E-02  1.34054815E-01
  9.81786756E-03  4.15300889E-03 -3.10148831E-04  7.80769641E-02  1.82910619E-02
 -4.53243369E-03  3.99325458E-03  3.57293164E-02  1.36417154E-03  4.54290225E-02
  1.04840305E-02  4.55305419E-02 -1.02712198E-01 -4.06252837E-02  3.83809611E-02
  9.36557421E-03 -1.27072462E-01 -1.72222027E-02  1.89607208E-02  3.97865117E-03
 -1.77706051E-02  8.16809987E-03 -3.63971484E-03 -5.30226166E-04  6.35180645E-02
  5.08661478E-03  4.87038213E-02  4.82981440E-03  4.37185915E-02  8.00242794E-03
 -1.40606643E-01  2.72135586E-01 -2.18930167E-02 -8.15460074E-02 -2.77612366E-03
  2.21970844E-01 -2.60701295E-03 -2.47596448E-03 -9.73133171E-04 -1.31590782E-01
  6.61390058E-03  2.77734806E-02  1.99138468E-03 -8.65861077E-02  1.80274492E-01
  9.12504713E-02  1.49991786E-01  3.20257725E-03  1.19107164E-01  2.15919195E-02
  6.47564639E-03  3.25702012E-03 -5.80155291E-02  6.32646501E-02  7.20660984E-02
 -5.68974111E-03  8.76877105E-02 -1.73570242E-01  1.06309881E-01 -9.09223911E-03
  2.44626675E-02 -1.20993928E-01  7.06340959E-03  2.22499355E-02 -7.51496192E-03
  9.69075830E-02  8.63519755E-02  3.45041953E-03 -5.74539629E-03  1.14924693E-01
 -2.23019762E-01 -4.92291258E-02  3.79628787E-02 -2.54058848E-02 -1.94802984E-01
 -6.48864495E-03 -1.02863735E-04 -9.88105146E-04  9.18319654E-02  1.34314924E-02
 -1.35632900E-02  1.33477583E-02  8.08713195E-02  1.50594780E-02  7.70980940E-02
  1.13338211E-02  2.94614663E-02 -6.68974373E-02 -1.27702277E-02  6.73536032E-02
  8.03992236E-03 -8.77986815E-02 -6.03501757E-03  3.37017701E-02  3.81984964E-03
 -1.78439406E-02  4.54211743E-03 -3.91683101E-03 -2.74011997E-03 -5.33832634E-02
 -1.79314459E-03 -6.01291917E-02 -6.29330656E-03 -6.86618880E-02 -1.47957142E-02
 -8.57771030E-02  1.66714606E-01  2.83113702E-02  3.27358013E-02 -7.16999164E-03
  1.47793785E-01  6.70435630E-03  1.50444011E-02 -2.36154887E-03  2.16269164E-02
 -5.16358467E-03  1.63971160E-03 -4.11464313E-03  7.18050428E-02 -1.54500952E-01
  1.36198657E-01  1.71348663E-01 -2.71094391E-02 -1.46149108E-01  3.68432519E-02
  4.84707181E-02 -7.52745209E-03  2.64807344E-02  2.10711819E-03 -2.58688162E-02
  9.50051749E-03  7.10809239E-02 -1.45874972E-01 -2.07622787E-01  4.78739383E-02
 -3.52755437E-02 -1.27925218E-01 -4.36567408E-02  2.65337224E-02 -1.52711194E-02
  1.20926839E-01 -7.04549226E-02  2.79481877E-02 -1.86341517E-02 -1.18486085E-01
  2.35344509E-01 -5.66026545E-02  1.85662434E-02 -1.16799037E-02  2.12714479E-01
 -2.39875774E-02  7.29202618E-03 -4.00394622E-03 -1.63637782E-01 -2.92547952E-02
  1.93516179E-02 -1.54562136E-02  8.37891220E-02  3.10753316E-02  7.33944358E-02
  2.71761480E-02 -3.34054443E-02  7.70232746E-02  1.42752560E-01 -3.77768337E-02
 -3.29281964E-02  1.01145630E-01  7.77989670E-02 -1.75210604E-02 -1.78228275E-02
  3.23404914E-02 -4.72358639E-03  6.81669357E-03  6.64714155E-04 -7.77971591E-02
 -2.10934961E-02  1.05730222E-01  4.12212002E-02  1.12736308E-01  3.98990525E-02
  6.31327943E-02 -1.23927715E-01  5.28738747E-03 -1.74733594E-01 -2.57405412E-02
 -1.61195337E-01  2.21897387E-02 -5.28686649E-02 -1.25233011E-02 -2.22030484E-01
  2.07533181E-02  3.22244724E-02  4.85930845E-04 -7.61736042E-02  1.69771785E-01
  1.42852132E-01 -5.90885134E-02 -4.91243217E-02  1.70232176E-01  2.45550282E-02
 -5.61699244E-03 -1.11966025E-02  1.96447514E-01  1.33778469E-02  9.76638114E-02
  2.04761387E-03  7.48544953E-02 -1.50809505E-01  4.09393029E-02  7.57510375E-02
 -5.95161076E-02 -1.62994732E-01  3.08651956E-03  3.09837985E-02 -2.92756021E-02
  3.11331537E-02  2.31746111E-02 -1.60991511E-02 -1.00022025E-02 -5.58204701E-02
  1.13645410E-01 -1.04035381E-01  9.36222903E-02 -7.40976883E-02  1.25518801E-01
 -4.08276775E-02  2.56700979E-02 -2.20098549E-02 -6.75028168E-03 -1.64708462E-02
  4.66047255E-03  2.65567760E-03 -7.74411813E-02 -4.10945113E-02 -1.28160630E-01
 -5.31162436E-02  4.43990140E-02 -1.04874750E-01 -1.83221950E-01  2.69139767E-01
  3.31752842E-02 -1.27852907E-01 -1.06442619E-01  1.60098945E-01  1.89785876E-02
 -5.49936703E-02  2.53232111E-03 -4.73107727E-03 -1.05500905E-03 -1.19216451E-01
 -4.85506190E-02  1.08896643E-01  5.24202784E-02  7.62279724E-02  3.06032758E-02