L.pdb                                                                   
FOpt      RwB97XD                                                     6-31+G              
Number of atoms                            I                8
Info1-9                                    I   N=           9
          19          19           0           0           0         110
           2          18        -802
Charge                                     I                0
Multiplicity                               I                1
Number of electrons                        I               30
Number of alpha electrons                  I               15
Number of beta electrons                   I               15
Number of basis functions                  I               60
Number of independent functions            I               60
Number of point charges in /Mol/           I                0
Number of translation vectors              I                0
Atomic numbers                             I   N=           8
           6           6           6           8           1           1
           1           1
Nuclear charges                            R   N=           8
  6.00000000E+00  6.00000000E+00  6.00000000E+00  8.00000000E+00  1.00000000E+00
  1.00000000E+00  1.00000000E+00  1.00000000E+00
Current cartesian coordinates              R   N=          24
  2.85120989E+00 -8.51010540E-01  1.26590908E-01  1.24246467E+00  1.06859436E+00
 -2.37578853E-01 -1.49187870E+00  8.34878443E-01  2.70333525E-01 -2.77024504E+00
 -1.05510336E+00 -2.36287774E-01 -2.41292322E+00  2.50831529E+00  1.09632395E+00
  4.87066755E+00 -6.30090108E-01 -1.45689362E-01  2.17127357E+00 -2.70027812E+00
  7.03273950E-01  1.92216724E+00  2.94810622E+00 -7.19679825E-01
Force Field                                I                0
Int Atom Types                             I   N=           8
           0           0           0           0           0           0
           0           0
MM charges                                 R   N=           8
  0.00000000E+00  0.00000000E+00  0.00000000E+00  0.00000000E+00  0.00000000E+00
  0.00000000E+00  0.00000000E+00  0.00000000E+00
Integer atomic weights                     I   N=           8
          12          12          12          16           1           1
           1           1
Real atomic weights                        R   N=           8
  1.20000000E+01  1.20000000E+01  1.20000000E+01  1.59949146E+01  1.00782504E+00
  1.00782504E+00  1.00782504E+00  1.00782504E+00
Atom fragment info                         I   N=           8
           0           0           0           0           0           0
           0           0
Atom residue num                           I   N=           8
           0           0           0           0           0           0
           0           0
Nuclear spins                              I   N=           8
           0           0           0           0           1           1
           1           1
Nuclear ZEff                               R   N=           8
 -3.60000000E+00 -3.60000000E+00 -3.60000000E+00 -5.60000000E+00 -1.00000000E+00
 -1.00000000E+00 -1.00000000E+00 -1.00000000E+00
Nuclear ZNuc                               R   N=           8
  6.00000000E+00  6.00000000E+00  6.00000000E+00  8.00000000E+00  1.00000000E+00
  1.00000000E+00  1.00000000E+00  1.00000000E+00
Nuclear QMom                               R   N=           8
  0.00000000E+00  0.00000000E+00  0.00000000E+00  0.00000000E+00  0.00000000E+00
  0.00000000E+00  0.00000000E+00  0.00000000E+00
Nuclear GFac                               R   N=           8
  0.00000000E+00  0.00000000E+00  0.00000000E+00  0.00000000E+00  2.79284600E+00
  2.79284600E+00  2.79284600E+00  2.79284600E+00
MicOpt                                     I   N=           8
          -1          -1          -1          -1          -1          -1
          -1          -1
Number of contracted shells                I               24
Number of primitive shells                 I               60
Pure/Cartesian d shells                    I                1
Pure/Cartesian f shells                    I                0
Highest angular momentum                   I                1
Largest degree of contraction              I                6
Shell types                                I   N=          24
           0          -1          -1          -1           0          -1
          -1          -1           0          -1          -1          -1
           0          -1          -1          -1           0           0
           0           0           0           0           0           0
Number of primitives per shell             I   N=          24
           6           3           1           1           6           3
           1           1           6           3           1           1
           6           3           1           1           3           1
           3           1           3           1           3           1
Shell to atom map                          I   N=          24
           1           1           1           1           2           2
           2           2           3           3           3           3
           4           4           4           4           5           5
           6           6           7           7           8           8
Primitive exponents                        R   N=          60
  3.04752488E+03  4.57369518E+02  1.03948685E+02  2.92101553E+01  9.28666296E+00
  3.16392696E+00  7.86827235E+00  1.88128854E+00  5.44249258E-01  1.68714478E-01
  4.38000000E-02  3.04752488E+03  4.57369518E+02  1.03948685E+02  2.92101553E+01
  9.28666296E+00  3.16392696E+00  7.86827235E+00  1.88128854E+00  5.44249258E-01
  1.68714478E-01  4.38000000E-02  3.04752488E+03  4.57369518E+02  1.03948685E+02
  2.92101553E+01  9.28666296E+00  3.16392696E+00  7.86827235E+00  1.88128854E+00
  5.44249258E-01  1.68714478E-01  4.38000000E-02  5.48467166E+03  8.25234946E+02
  1.88046958E+02  5.29645000E+01  1.68975704E+01  5.79963534E+00  1.55396162E+01
  3.59993359E+00  1.01376175E+00  2.70005823E-01  8.45000000E-02  1.87311370E+01
  2.82539436E+00  6.40121692E-01  1.61277759E-01  1.87311370E+01  2.82539436E+00
  6.40121692E-01  1.61277759E-01  1.87311370E+01  2.82539436E+00  6.40121692E-01
  1.61277759E-01  1.87311370E+01  2.82539436E+00  6.40121692E-01  1.61277759E-01
Contraction coefficients                   R   N=          60
  1.83473713E-03  1.40373228E-02  6.88426223E-02  2.32184443E-01  4.67941348E-01
  3.62311985E-01 -1.19332420E-01 -1.60854152E-01  1.14345644E+00  1.00000000E+00
  1.00000000E+00  1.83473713E-03  1.40373228E-02  6.88426223E-02  2.32184443E-01
  4.67941348E-01  3.62311985E-01 -1.19332420E-01 -1.60854152E-01  1.14345644E+00
  1.00000000E+00  1.00000000E+00  1.83473713E-03  1.40373228E-02  6.88426223E-02
  2.32184443E-01  4.67941348E-01  3.62311985E-01 -1.19332420E-01 -1.60854152E-01
  1.14345644E+00  1.00000000E+00  1.00000000E+00  1.83107443E-03  1.39501722E-02
  6.84450781E-02  2.32714336E-01  4.70192898E-01  3.58520853E-01 -1.10777550E-01
 -1.48026263E-01  1.13076702E+00  1.00000000E+00  1.00000000E+00  3.34946043E-02
  2.34726953E-01  8.13757326E-01  1.00000000E+00  3.34946043E-02  2.34726953E-01
  8.13757326E-01  1.00000000E+00  3.34946043E-02  2.34726953E-01  8.13757326E-01
  1.00000000E+00  3.34946043E-02  2.34726953E-01  8.13757326E-01  1.00000000E+00
P(S=P) Contraction coefficients            R   N=          60
  0.00000000E+00  0.00000000E+00  0.00000000E+00  0.00000000E+00  0.00000000E+00
  0.00000000E+00  6.89990666E-02  3.16423961E-01  7.44308291E-01  1.00000000E+00
  1.00000000E+00  0.00000000E+00  0.00000000E+00  0.00000000E+00  0.00000000E+00
  0.00000000E+00  0.00000000E+00  6.89990666E-02  3.16423961E-01  7.44308291E-01
  1.00000000E+00  1.00000000E+00  0.00000000E+00  0.00000000E+00  0.00000000E+00
  0.00000000E+00  0.00000000E+00  0.00000000E+00  6.89990666E-02  3.16423961E-01
  7.44308291E-01  1.00000000E+00  1.00000000E+00  0.00000000E+00  0.00000000E+00
  0.00000000E+00  0.00000000E+00  0.00000000E+00  0.00000000E+00  7.08742682E-02
  3.39752839E-01  7.27158577E-01  1.00000000E+00  1.00000000E+00  0.00000000E+00
  0.00000000E+00  0.00000000E+00  0.00000000E+00  0.00000000E+00  0.00000000E+00
  0.00000000E+00  0.00000000E+00  0.00000000E+00  0.00000000E+00  0.00000000E+00
  0.00000000E+00  0.00000000E+00  0.00000000E+00  0.00000000E+00  0.00000000E+00
Coordinates of each shell                  R   N=          72
  2.85120989E+00 -8.51010540E-01  1.26590908E-01  2.85120989E+00 -8.51010540E-01
  1.26590908E-01  2.85120989E+00 -8.51010540E-01  1.26590908E-01  2.85120989E+00
 -8.51010540E-01  1.26590908E-01  1.24246467E+00  1.06859436E+00 -2.37578853E-01
  1.24246467E+00  1.06859436E+00 -2.37578853E-01  1.24246467E+00  1.06859436E+00
 -2.37578853E-01  1.24246467E+00  1.06859436E+00 -2.37578853E-01 -1.49187870E+00
  8.34878443E-01  2.70333525E-01 -1.49187870E+00  8.34878443E-01  2.70333525E-01
 -1.49187870E+00  8.34878443E-01  2.70333525E-01 -1.49187870E+00  8.34878443E-01
  2.70333525E-01 -2.77024504E+00 -1.05510336E+00 -2.36287774E-01 -2.77024504E+00
 -1.05510336E+00 -2.36287774E-01 -2.77024504E+00 -1.05510336E+00 -2.36287774E-01
 -2.77024504E+00 -1.05510336E+00 -2.36287774E-01 -2.41292322E+00  2.50831529E+00
  1.09632395E+00 -2.41292322E+00  2.50831529E+00  1.09632395E+00  4.87066755E+00
 -6.30090108E-01 -1.45689362E-01  4.87066755E+00 -6.30090108E-01 -1.45689362E-01
  2.17127357E+00 -2.70027812E+00  7.03273950E-01  2.17127357E+00 -2.70027812E+00
  7.03273950E-01  1.92216724E+00  2.94810622E+00 -7.19679825E-01  1.92216724E+00
  2.94810622E+00 -7.19679825E-01
Constraint Structure                       R   N=          24
  2.87212648E+00 -8.50636986E-01  1.24048993E-01  1.24288583E+00  1.06481585E+00
 -2.39727067E-01 -1.49265526E+00  8.35958626E-01  2.68374937E-01 -2.79349923E+00
 -1.05693093E+00 -2.30834016E-01 -2.40675361E+00  2.52654351E+00  1.07987436E+00
  4.89282008E+00 -6.16458308E-01 -1.41569022E-01  2.20923516E+00 -2.70915808E+00
  6.93240174E-01  1.91854982E+00  2.95369540E+00 -7.01054569E-01
Num ILSW                                   I              100
ILSW                                       I   N=         100
           0           1           0           0           2           0
           0           0           0           0        4639          -1
           0           0           0           0           2           0
           0           0           0           0           1           0
           1           0           0           0           0           0
           0           0      100000           0          -1           0
           0           0           0           0           0           0
           0           0           0           1           0           0
           0           0           1           0           0           0
           0           0         121          41           0           0
           0           0          58           0           0           0
           0           0           0           8           0           0
           0           0           0           0           0           0
           0           0           0           0           0           0
           0           0           0           0           0           0
           0           0           0           0           0           0
           0           0           0           0
Num RLSW                                   I               41
RLSW                                       R   N=          41
  1.00000000E+00  1.00000000E+00  1.00000000E+00  1.00000000E+00  1.00000000E+00
  0.00000000E+00  2.00000000E-01  2.22036000E-01  0.00000000E+00  7.77964000E-01
  0.00000000E+00  2.00000000E-01  0.00000000E+00  0.00000000E+00  1.00000000E+00
  0.00000000E+00  0.00000000E+00  1.00000000E+00  0.00000000E+00  0.00000000E+00
  0.00000000E+00  0.00000000E+00  1.00000000E+00  0.00000000E+00  0.00000000E+00
  0.00000000E+00  0.00000000E+00  1.00000000E+00  0.00000000E+00  0.00000000E+00
  0.00000000E+00  0.00000000E+00  1.00000000E+00  0.00000000E+00  0.00000000E+00
  0.00000000E+00  0.00000000E+00  0.00000000E+00  1.00000000E+00  1.00000000E+00
  0.00000000E+00
MxBond                                     I                3
NBond                                      I   N=           8
           3           3           3           1           1           1
           1           1
IBond                                      I   N=          24
           2           6           7           1           3           8
           2           4           5           3           0           0
           3           0           0           1           0           0
           1           0           0           2           0           0
RBond                                      R   N=          24
  2.00000000E+00  1.00000000E+00  1.00000000E+00  2.00000000E+00  1.00000000E+00
  1.00000000E+00  1.00000000E+00  2.00000000E+00  1.00000000E+00  2.00000000E+00
  0.00000000E+00  0.00000000E+00  1.00000000E+00  0.00000000E+00  0.00000000E+00
  1.00000000E+00  0.00000000E+00  0.00000000E+00  1.00000000E+00  0.00000000E+00
  0.00000000E+00  1.00000000E+00  0.00000000E+00  0.00000000E+00
Virial Ratio                               R      2.005798019252560E+00
SCF Energy                                 R     -1.917900766818412E+02
Total Energy                               R     -1.917900766818412E+02
RMS Force                                  R      2.745174952589880E-03
RMS Density                                R      2.758029512822952E-09
External E-field                           R   N=          35
  0.00000000E+00  0.00000000E+00  0.00000000E+00  0.00000000E+00  0.00000000E+00
  0.00000000E+00  0.00000000E+00  0.00000000E+00  0.00000000E+00  0.00000000E+00
  0.00000000E+00  0.00000000E+00  0.00000000E+00  0.00000000E+00  0.00000000E+00
  0.00000000E+00  0.00000000E+00  0.00000000E+00  0.00000000E+00  0.00000000E+00
  0.00000000E+00  0.00000000E+00  0.00000000E+00  0.00000000E+00  0.00000000E+00
  0.00000000E+00  0.00000000E+00  0.00000000E+00  0.00000000E+00  0.00000000E+00
  0.00000000E+00  0.00000000E+00  0.00000000E+00  0.00000000E+00  0.00000000E+00
IOpCl                                      I                0
IROHF                                      I                0
Alpha Orbital Energies                     R   N=          60
 -1.92889856E+01 -1.04062580E+01 -1.03309903E+01 -1.03296076E+01 -1.17159950E+00
 -9.10998031E-01 -7.69461203E-01 -6.53925593E-01 -6.14267511E-01 -5.46369178E-01
 -5.33744419E-01 -4.87172546E-01 -4.77020751E-01 -3.78019269E-01 -3.52238077E-01
 -6.67101031E-03  6.70317131E-02  8.01718903E-02  8.80390960E-02  1.00361397E-01
  1.14232016E-01  1.25637788E-01  1.34056404E-01  1.48562938E-01  1.62348120E-01
  1.75745070E-01  1.76871677E-01  2.01044583E-01  2.23562021E-01  2.65270527E-01
  2.81946404E-01  3.04307454E-01  3.18378353E-01  3.26966644E-01  3.53983967E-01
  3.72525772E-01  3.78500268E-01  4.24071466E-01  4.61817943E-01  5.25125858E-01
  7.09067822E-01  7.26773893E-01  7.66770316E-01  7.84262646E-01  8.07264076E-01
  8.36422066E-01  8.91329558E-01  9.61468427E-01  1.02113989E+00  1.04770911E+00
  1.11113858E+00  1.13311808E+00  1.17916028E+00  1.23513530E+00  1.27620690E+00
  1.31651920E+00  1.36963063E+00  1.38682479E+00  1.43313511E+00  1.89398979E+00
Alpha MO coefficients                      R   N=        3600
  1.86194778E-05  2.04896965E-04 -1.31402186E-04  6.16727834E-05  3.49618018E-05
  1.87572022E-03 -4.96124775E-05  4.53900554E-04 -5.06388069E-04  6.68304932E-03
 -1.05669972E-03  9.78037237E-04  2.55151224E-04  2.98848137E-05  1.94760192E-05
  2.60624181E-04 -9.41212635E-05 -6.17978709E-05 -1.17680535E-03 -4.31369148E-04
  3.07861956E-03  4.27912080E-04  3.47647812E-03 -3.78483196E-03  8.05345690E-04
 -7.68759988E-04  2.11877477E-04  1.69034272E-04 -1.66170563E-04  9.53397451E-05
  2.23391232E-05  6.24496784E-03 -2.03161747E-03 -6.19544842E-03 -1.68227805E-03
 -1.45429129E-02 -1.68875732E-03  2.25018079E-03  1.74824565E-03  9.95221401E-01
  2.94079199E-02  1.24141678E-03  1.69257705E-03  4.66818686E-04 -2.13033573E-02
 -2.96170116E-03 -3.57805374E-03 -9.24782430E-04  9.12867832E-03  7.13375782E-04
  4.18216694E-04 -1.64667430E-04 -7.57704131E-05  1.39410224E-03 -5.93403955E-05
 -4.83976924E-04  6.65122551E-05 -3.78988907E-04 -1.77713481E-04 -1.05079047E-03
 -9.94153069E-05 -4.56827867E-04  1.06416595E-04 -6.59840396E-05 -4.07957602E-05
  9.73671779E-04 -4.13542349E-04  2.66796743E-04  1.57040820E-04 -8.40575078E-03
  1.88197694E-03 -1.74350603E-03 -7.59246712E-05  1.71901304E-03 -5.81718696E-04
  5.48473458E-04 -6.26270536E-06 -1.18817939E-04  4.73408990E-03 -3.26189857E-03
 -2.57364369E-05  4.39234850E-04 -8.61925849E-04  3.07314830E-03 -4.68768569E-04
  7.67678557E-04  9.95432865E-01  3.61063737E-02 -6.68903812E-04 -1.18717489E-03
 -3.44154107E-04 -3.16273432E-02 -4.46818726E-04  2.11338233E-03  1.02337359E-03
  7.10180220E-03  4.13392939E-03 -8.79416141E-04 -1.32011952E-03 -1.24306761E-04
 -6.13054119E-05 -3.62252075E-04 -4.55039015E-04 -9.09226441E-05  1.24670737E-03
  4.23943576E-04 -9.24862917E-05 -2.22803981E-04  1.05213602E-02  2.83518927E-03
  4.96894695E-03  1.64239256E-03 -5.49665204E-04  3.25054196E-03 -2.55927491E-05
  6.38095421E-04 -1.32306379E-04 -3.16695107E-04 -1.41637872E-04 -4.26936572E-06
  9.42917775E-01  3.29862257E-02 -7.43982647E-05  1.36120400E-04  1.69369546E-05
 -2.57576712E-02  8.36503343E-04 -1.99142968E-03  4.38457949E-04  1.23670832E-02
 -2.39190164E-03  4.44568701E-03 -9.08565401E-04  3.18510026E-01  1.04592335E-02
 -6.99492802E-04  7.67086029E-04 -9.16192202E-05 -3.41136200E-03  4.52487499E-03
 -2.69045480E-03  2.35744863E-04  2.72311683E-02 -1.37132072E-02 -2.61793139E-03
  2.55418641E-03 -5.29924833E-04 -6.70031640E-04 -3.75834552E-04 -1.94983853E-05
  7.79562903E-05  3.51901315E-03  2.58378312E-03 -1.85906856E-04 -8.06038468E-04
 -3.90121524E-02 -9.39477287E-03  1.36897080E-03  1.42153754E-03  1.18598213E-05
  1.12640444E-04 -4.85950193E-05 -2.41441895E-05  2.99911905E-06 -8.10483767E-04
 -2.97724702E-04  4.60429802E-05  2.80235238E-05  2.47904384E-03 -2.84733834E-04
  4.32050256E-04  5.54569783E-04 -7.96895095E-05  9.38183928E-04 -7.23568984E-04
  4.34047102E-03 -7.06716836E-04  3.25099473E-03 -3.61252050E-04  1.26316516E-03
 -3.18719911E-01 -1.25530434E-02  6.92844765E-04 -8.34137126E-04  1.45572896E-04
  1.90976113E-02 -4.97220541E-03  3.69681716E-03 -4.25281952E-04 -4.85109478E-02
  8.27444297E-03 -8.89328291E-03  1.52108677E-03  9.43055044E-01  3.47884008E-02
  1.88757315E-04 -6.67649775E-04  3.40146109E-04 -3.57436981E-02  7.62241516E-05
  5.32834860E-03 -1.89243680E-03  6.31515489E-02  3.89185399E-03 -1.33227750E-02
  3.73562855E-03 -1.60618016E-03 -6.51677733E-04 -5.06032745E-04 -9.08883654E-05
  1.74334362E-04  6.21890487E-03  4.34441440E-03 -3.05890564E-04 -7.58426453E-04
 -1.34892554E-02 -3.31783012E-03  1.52616440E-03 -3.11327117E-04 -2.93241741E-06
 -1.61058948E-04 -8.84567661E-05 -1.06179934E-04  5.32617697E-05 -1.42558812E-04
 -2.09310657E-06  3.67807619E-04 -1.79972098E-04  7.56899088E-04 -2.18323027E-04
  1.46336097E-05  6.98781138E-04 -1.11867163E-04  3.72558036E-04  1.07415029E-04
 -3.75968792E-04 -9.43887650E-05 -1.89486540E-03 -6.32226312E-04  2.79425329E-03
 -6.67548548E-03  1.03543577E-02 -7.02244191E-03  3.41902961E-03 -7.24160614E-04
 -5.80940735E-03 -2.88547050E-03 -4.72714833E-03  3.85776287E-03  9.58406260E-03
 -5.99717942E-03  6.00695870E-04 -2.66683479E-04 -1.99118906E-02  3.81793049E-02
 -2.64801403E-02 -1.03446129E-02  3.62274135E-03  1.16182957E-02  1.00097549E-02
 -2.09716916E-02 -5.20940962E-03 -5.46877919E-02  1.98091970E-02  7.14282212E-03
 -1.93005142E-03 -1.16136043E-01  2.37090056E-01 -9.58455055E-02 -1.52761885E-01
 -4.20027730E-02  5.17331450E-02  3.06340295E-02  5.86961937E-02  1.53403870E-02
  5.42707477E-02 -1.52574224E-03 -7.92541570E-03 -4.57529302E-03 -1.92330182E-01
  4.24617184E-01  1.00649904E-01  1.44907785E-01  3.91218471E-02  4.19973360E-01
  4.24434443E-02  5.77313919E-02  1.63785257E-02 -7.50992260E-04  5.22821891E-03
  6.11103032E-03  1.30441183E-03  2.84672648E-02 -2.00788619E-02  1.78250414E-03
  3.68133539E-03  2.73240110E-03  4.17519642E-04  5.64698889E-03  5.31152749E-03
 -1.39428528E-01  2.70868795E-01 -7.09329610E-02  7.99453089E-02 -1.20049138E-02
  2.14427540E-01 -9.72676697E-03  4.61895977E-03 -2.36709637E-04  3.04282968E-02
 -9.99565778E-03  9.44100552E-04  1.88341298E-03 -1.64406174E-01  3.20395432E-01
  2.84036441E-02 -6.85786435E-02  2.67313508E-02  2.23037765E-01 -9.02225922E-04
  2.18167583E-02  2.47236213E-03 -9.73806637E-02  2.72067527E-02  1.59361042E-02
 -9.86464282E-03 -5.05879301E-02  9.88308163E-02  1.27551116E-01  5.04665703E-02
 -5.47010232E-04  1.05640696E-01  1.68844264E-02 -2.06673339E-02 -5.66186441E-03
  7.15243618E-02  1.49938857E-02  1.26719495E-03 -1.38879241E-03  4.37416942E-02
 -9.86396084E-02  1.04388046E-02 -1.80324154E-02 -7.24542683E-03 -1.24458455E-01
 -4.12301511E-03 -1.13202198E-02 -3.74343407E-03 -1.72525593E-02 -1.53655970E-03
 -7.45585770E-03 -3.11091036E-03  2.78004657E-02  1.47246020E-02  6.88992636E-02
  9.55724079E-03  6.93353630E-02  5.73642708E-03  8.37331364E-02  3.61392830E-03
 -1.27824009E-01  2.53788156E-01  3.43876347E-02 -1.21900997E-02 -4.35112741E-03
  2.31148544E-01  1.68077226E-02 -1.13075288E-02  1.21180624E-03 -1.15713969E-01
  1.77493582E-02 -2.47143253E-02  3.49353479E-03  4.85376244E-02 -9.75034946E-02
  1.98000890E-01 -1.17397281E-01 -8.35067406E-03 -9.50750472E-02  4.24108820E-02
 -2.74679726E-02 -1.58195304E-03  5.38014610E-02  4.78105814E-02 -2.22547489E-02
  5.28703166E-03  1.20512036E-01 -2.53129528E-01 -1.07137581E-01 -1.42583966E-01
 -1.74608299E-02 -2.49085042E-01 -1.28964153E-02 -4.23531440E-02 -8.28093288E-03
  6.31330445E-02  1.38930254E-02 -5.99728614E-03 -9.37084811E-03 -6.01914851E-02
  1.40261731E-01 -1.89934093E-02 -3.70675764E-02 -2.69057704E-03  1.69138291E-01
 -6.46297790E-03 -1.20400753E-02 -1.71832161E-04  2.21549516E-02  6.58746344E-03
  1.00768159E-02  4.55002693E-03 -1.23847792E-01 -3.68126101E-02  1.13413561E-01
  3.64688626E-02  9.90550821E-02  2.82393744E-02 -5.45403141E-02 -1.91896821E-02
 -6.91072945E-02  1.39913972E-01  9.66753694E-02 -1.79801253E-01  4.88059641E-02
  1.57317974E-01  3.68967144E-02 -5.36302507E-02  1.75439087E-02 -7.79791497E-02
  2.08538305E-02 -1.93619031E-02  5.51921472E-03  9.47412305E-02 -1.93802653E-01
 -7.87073982E-02 -7.03691165E-02  4.74039537E-02 -1.95672309E-01 -2.35849902E-02
 -5.06326147E-02  1.95251907E-02  9.22320345E-02  4.56819336E-03 -2.58469182E-02
  2.48082809E-03 -8.73416616E-02  1.89465093E-01 -1.37264070E-01  1.31022606E-01
  1.00726229E-01  2.20708927E-01 -5.07496588E-02  6.04496137E-02  4.05048761E-02
 -4.52020362E-03 -6.36041217E-03  1.04038233E-02  5.80794638E-03  5.35982383E-02
 -1.24702001E-01 -1.24194185E-02  1.20445563E-01  6.43993862E-02 -1.74440708E-01
 -8.68559960E-03  4.36127345E-02  2.67565495E-02 -3.15945429E-02 -1.68641333E-03
 -6.05695781E-03 -1.52625519E-03  1.80979976E-01  7.58322449E-02  1.02558661E-01
  4.53376353E-02  1.34326976E-01  6.48199368E-02 -1.41023359E-01 -5.53190393E-02
  3.79470469E-03 -8.38172117E-03 -2.00799868E-01 -1.30584719E-01  4.97697159E-02
 -1.48474183E-02 -8.57890361E-02 -5.96222417E-02  2.25675854E-02 -1.86631960E-02
 -3.73054915E-03 -7.15426022E-03  1.92666169E-03  1.04460158E-02 -1.50320831E-02
 -2.09198925E-01 -2.20263054E-01  6.34156127E-02 -5.56236379E-02 -5.02301974E-02
 -7.66415564E-02  1.92149031E-02 -9.66940726E-03  1.66937530E-03 -9.69871609E-03
  4.59452681E-04 -1.44235183E-02  3.50039948E-02  2.30799941E-01 -1.68357726E-01
 -6.77460212E-02  4.96684881E-02  8.92770134E-02 -8.69084279E-02 -3.17226874E-02
  2.23209133E-02  1.88343056E-02 -3.91274504E-03 -5.21498115E-03  2.04167775E-02
 -4.58158265E-02  1.72787117E-01 -5.02383694E-02 -2.11181529E-02 -8.47514543E-02
  7.81948475E-02 -3.62816744E-02 -1.22850625E-02 -2.67904359E-02 -6.74337747E-03
 -1.75491533E-04  1.67543063E-03 -1.15235402E-01 -5.04988012E-02 -1.17965283E-01
 -5.55123111E-02  9.85446913E-02  4.40179048E-02 -1.62797567E-01 -9.33806117E-02
 -1.05503955E-03  7.56609392E-03 -2.21893104E-01  2.77295907E-01 -4.38151404E-02
 -4.29293209E-02 -6.68866805E-02  9.51953588E-02 -1.46145636E-02 -1.61479976E-02
 -1.44313453E-02  1.33831331E-02 -5.10736328E-05 -1.36871361E-02  3.04526250E-02
  2.33880641E-01 -2.53401427E-01  6.06990654E-02  2.07161635E-02  6.17975498E-02
 -8.19605407E-02  2.77200460E-02  2.68261829E-02  1.32086987E-02 -1.97136242E-02
  1.06156118E-03 -1.29509333E-02  4.04023879E-02 -2.14619254E-01 -1.01370508E-01
  1.11101799E-01  5.04956757E-02 -9.04627964E-02 -4.61653385E-02  5.26823661E-02
 -1.32200995E-02 -1.82014164E-02  4.35364529E-03  6.23839560E-03  4.41613747E-02
 -9.57754043E-02  3.64591257E-02  2.02370917E-01  1.64128660E-01 -1.92792152E-01
 -2.12181523E-03  7.44263235E-02  7.98391326E-02 -6.33011760E-02 -2.01841163E-04
  2.91258592E-03  2.12331371E-03  4.78630243E-02  2.89151680E-02 -1.13668666E-01
 -7.85107614E-02 -1.15695472E-01 -7.16283677E-02 -8.86922746E-02 -6.31291602E-02
  3.34520955E-03 -8.12852128E-03  2.14480696E-01  2.99293049E-02 -6.89146377E-02
 -8.31695392E-03  8.95864704E-02  1.77279489E-02 -3.27228088E-02 -6.79701283E-02
  1.76049386E-02 -1.13000187E-02  1.19714236E-03  1.21554584E-02 -2.27302169E-02
 -3.47084957E-02  6.08769055E-02 -9.44634444E-02 -4.01028124E-02  8.30428688E-03
  7.98662099E-03 -4.41491532E-02  1.79601741E-03  3.14661273E-02 -1.88971129E-02
 -4.82645073E-03 -3.66867413E-02  1.07538017E-01 -3.92600394E-02 -2.52283806E-01
 -2.02275477E-01  9.84417659E-02  1.98579443E-02 -7.40780439E-02 -9.03614482E-02
  6.80836000E-02  2.09967847E-02  1.67550480E-03 -1.15459904E-02  7.00017894E-02
 -1.53439758E-01  2.94548530E-01  3.06175660E-01 -4.41518781E-02 -2.80410011E-01
  1.27231977E-01  1.25586385E-01 -3.78222356E-02 -8.04660190E-02  5.79795358E-03
  1.17713892E-02  2.51090209E-03 -1.08880517E-01 -7.14466020E-02  1.37983365E-01
  9.05521730E-02 -7.54629137E-02 -4.44950242E-02  2.57723707E-02  2.20055651E-02
  8.97966839E-03 -2.36616437E-02  2.32000409E-01  1.37277531E-01  6.48373310E-03
 -1.77947926E-02  9.04869458E-02  7.74841683E-02  6.48247549E-03  1.47586021E-01
 -8.39834301E-03  3.42425056E-02 -7.05273984E-03  1.03234985E-02 -1.73413499E-02
 -8.12967621E-02 -8.96589102E-03  1.32401647E-01 -6.49494337E-02 -1.71209133E-02
 -3.18941718E-03  6.00616017E-02 -1.38909627E-01 -4.43134541E-02  4.33255986E-02
 -3.30105021E-03 -1.60546738E-02  3.28345964E-02  1.99123257E-01 -9.01338031E-02
  2.37692990E-01  5.08098311E-02  1.09676878E-01 -5.10037739E-02  1.27398940E-01
 -1.90814345E-02  8.93925098E-03 -2.12035929E-02  2.31250070E-02 -9.83217863E-03
  2.08802401E-02  1.16768691E-01 -2.34444413E-01  2.66359343E-01  4.85660245E-02
  7.34852382E-02 -1.26408182E-01  1.68208781E-01  2.62972833E-02  5.22793443E-03
 -2.07178161E-03  4.06718490E-03 -1.87590703E-02 -8.34006146E-03  1.59002839E-01
  1.23639014E-01 -1.42032572E-01 -9.02811239E-02 -6.36950431E-02 -4.55435233E-02
  1.23397141E-02 -3.35826097E-02 -7.62608666E-02 -2.18495607E-01  1.14467302E-01
  1.60060793E-02 -7.83960864E-02 -9.46931016E-02  6.09682937E-02  1.78502448E-01
 -3.82543856E-02  1.10602365E-02  5.36244057E-03 -7.11339144E-03  1.02131825E-02
  6.93722649E-02  2.50927071E-01 -3.73949733E-03  3.43115468E-02  3.98861586E-02
  1.49085845E-01 -7.47569253E-03 -1.97125036E-01 -1.12757352E-02  7.81870269E-02
 -2.25133552E-02  1.42970172E-02 -2.07965826E-02 -9.94762778E-02 -1.91007033E-01
  1.46993884E-01 -4.76587921E-02 -1.79590039E-02 -8.39338345E-02  9.10153226E-02
  2.59631798E-02  8.87452604E-03 -2.16633323E-02  1.90663463E-02  2.20342405E-02
 -4.59491916E-02  1.12592991E-01  9.54750751E-02  3.08851683E-01 -9.53278871E-02
  5.19360060E-02  3.02029849E-02  1.83961251E-01 -2.93019040E-02  5.61142666E-03
  1.37213469E-02  7.30165256E-03 -5.72506312E-02 -4.08932509E-02 -1.01152657E-01
 -5.99543705E-02  1.66520519E-01  1.12979795E-01  1.97904417E-01  1.34515096E-01
 -2.13521344E-04  2.42122284E-03  3.97873587E-02  9.42411905E-02  3.63320952E-01
 -4.02756826E-02  4.93975683E-02  4.31070694E-02  2.32756500E-01 -2.36750028E-01
  4.06699821E-02 -2.75615946E-02  3.66463097E-02 -2.78747851E-04 -5.21714511E-03
  1.98178440E-02  8.82076156E-02  3.66582138E-01  4.44998925E-02  2.54156888E-02
  2.06559817E-02  2.60063327E-01  2.12715530E-01  5.46786158E-02 -6.18232949E-02
  6.79401904E-02  3.13603574E-03 -3.57248455E-04  1.57714192E-02 -3.21123363E-02
 -5.79467476E-02 -3.90092297E-02  8.65777169E-04  1.52078933E-02 -3.55623892E-02
  3.65746278E-02  9.43590742E-03  3.56201302E-03 -3.89597367E-02 -2.70277241E-03
  8.55534506E-03 -4.56592098E-02  1.51692681E-01 -1.89127021E-01  2.30290136E-02
 -3.79041807E-02  1.01668793E-01 -1.29279388E-01 -2.19215503E-02 -9.15839823E-03
  1.26803612E-02 -8.63520014E-03 -6.26366677E-02 -7.61695836E-02  1.95168713E-03
 -5.13667031E-03 -1.26520342E-03 -7.24261909E-03 -2.69407128E-03  1.60175393E-03
 -4.21945992E-03  8.89763301E-03 -4.69722883E-02  4.05531686E-02  3.85253421E-02
  1.42828293E-03 -6.55638511E-02  4.66265804E-03  3.02869326E-02  9.01931212E-02
 -3.88839462E-02  7.05166703E-03 -4.64920932E-03  3.63306100E-02 -7.17104868E-02
  2.23828063E-01  4.62628171E-02  1.51335586E-02 -2.78466997E-01  2.05466157E-01
  4.20692624E-02 -3.89563932E-03 -1.35114110E-01  1.40724300E-02  2.98685571E-02
  1.12360166E-02 -3.44513207E-04 -1.57502666E-02 -1.25635457E-01  6.48411265E-02
  4.93237609E-02  7.25496668E-02  9.13767443E-02  1.64216693E-02 -1.75072984E-02
  4.65265822E-02  2.52504634E-02  1.44994735E-02 -9.45121891E-03  1.18007101E-03
 -4.07597529E-03  4.75766275E-01 -2.53369699E-01 -2.35742643E-01  5.46922704E-03
  3.22902786E-01 -1.66261686E-01 -1.56331360E-01  3.22325832E-02  5.40675584E-02