O.pdb                                                                   
FOpt      RwB97XD                                                     6-31+G              
Number of atoms                            I               11
Info1-9                                    I   N=           9
          22          22           0           0           0         100
           2          18        -802
Charge                                     I                0
Multiplicity                               I                1
Number of electrons                        I               40
Number of alpha electrons                  I               20
Number of beta electrons                   I               20
Number of basis functions                  I               77
Number of independent functions            I               77
Number of point charges in /Mol/           I                0
Number of translation vectors              I                0
Atomic numbers                             I   N=          11
           6           6           1           1           1           8
           8           6           1           1           1
Nuclear charges                            R   N=          11
  6.00000000E+00  6.00000000E+00  1.00000000E+00  1.00000000E+00  1.00000000E+00
  8.00000000E+00  8.00000000E+00  6.00000000E+00  1.00000000E+00  1.00000000E+00
  1.00000000E+00
Current cartesian coordinates              R   N=          33
  3.24003750E+00 -1.21474619E+00  2.79961037E-01  9.40335283E-01  3.51600555E-01
 -2.31924199E-01  3.05522228E+00 -2.02782165E+00  2.17456077E+00  4.93090019E+00
 -4.11733530E-02  2.03013278E-01  3.38541413E+00 -2.77790308E+00 -1.05990014E+00
 -1.15158966E+00 -1.11764262E+00 -7.03150087E-01  8.13990083E-01  2.66311167E+00
 -3.49278081E-02 -3.55905918E+00 -3.12749675E-01  3.92995005E-01 -3.37321217E+00
 -2.15778378E-01  2.44720290E+00 -4.90148472E+00 -1.76944506E+00 -1.51157304E-01
 -4.12393233E+00  1.52375232E+00 -3.55274182E-01
Force Field                                I                0
Int Atom Types                             I   N=          11
           0           0           0           0           0           0
           0           0           0           0           0
MM charges                                 R   N=          11
  0.00000000E+00  0.00000000E+00  0.00000000E+00  0.00000000E+00  0.00000000E+00
  0.00000000E+00  0.00000000E+00  0.00000000E+00  0.00000000E+00  0.00000000E+00
  0.00000000E+00
Integer atomic weights                     I   N=          11
          12          12           1           1           1          16
          16          12           1           1           1
Real atomic weights                        R   N=          11
  1.20000000E+01  1.20000000E+01  1.00782504E+00  1.00782504E+00  1.00782504E+00
  1.59949146E+01  1.59949146E+01  1.20000000E+01  1.00782504E+00  1.00782504E+00
  1.00782504E+00
Atom fragment info                         I   N=          11
           0           0           0           0           0           0
           0           0           0           0           0
Atom residue num                           I   N=          11
           0           0           0           0           0           0
           0           0           0           0           0
Nuclear spins                              I   N=          11
           0           0           1           1           1           0
           0           0           1           1           1
Nuclear ZEff                               R   N=          11
 -3.60000000E+00 -3.60000000E+00 -1.00000000E+00 -1.00000000E+00 -1.00000000E+00
 -5.60000000E+00 -5.60000000E+00 -3.60000000E+00 -1.00000000E+00 -1.00000000E+00
 -1.00000000E+00
Nuclear ZNuc                               R   N=          11
  6.00000000E+00  6.00000000E+00  1.00000000E+00  1.00000000E+00  1.00000000E+00
  8.00000000E+00  8.00000000E+00  6.00000000E+00  1.00000000E+00  1.00000000E+00
  1.00000000E+00
Nuclear QMom                               R   N=          11
  0.00000000E+00  0.00000000E+00  0.00000000E+00  0.00000000E+00  0.00000000E+00
  0.00000000E+00  0.00000000E+00  0.00000000E+00  0.00000000E+00  0.00000000E+00
  0.00000000E+00
Nuclear GFac                               R   N=          11
  0.00000000E+00  0.00000000E+00  2.79284600E+00  2.79284600E+00  2.79284600E+00
  0.00000000E+00  0.00000000E+00  0.00000000E+00  2.79284600E+00  2.79284600E+00
  2.79284600E+00
MicOpt                                     I   N=          11
          -1          -1          -1          -1          -1          -1
          -1          -1          -1          -1          -1
Number of contracted shells                I               32
Number of primitive shells                 I               79
Pure/Cartesian d shells                    I                1
Pure/Cartesian f shells                    I                0
Highest angular momentum                   I                1
Largest degree of contraction              I                6
Shell types                                I   N=          32
           0          -1          -1          -1           0          -1
          -1          -1           0           0           0           0
           0           0           0          -1          -1          -1
           0          -1          -1          -1           0          -1
          -1          -1           0           0           0           0
           0           0
Number of primitives per shell             I   N=          32
           6           3           1           1           6           3
           1           1           3           1           3           1
           3           1           6           3           1           1
           6           3           1           1           6           3
           1           1           3           1           3           1
           3           1
Shell to atom map                          I   N=          32
           1           1           1           1           2           2
           2           2           3           3           4           4
           5           5           6           6           6           6
           7           7           7           7           8           8
           8           8           9           9          10          10
          11          11
Primitive exponents                        R   N=          79
  3.04752488E+03  4.57369518E+02  1.03948685E+02  2.92101553E+01  9.28666296E+00
  3.16392696E+00  7.86827235E+00  1.88128854E+00  5.44249258E-01  1.68714478E-01
  4.38000000E-02  3.04752488E+03  4.57369518E+02  1.03948685E+02  2.92101553E+01
  9.28666296E+00  3.16392696E+00  7.86827235E+00  1.88128854E+00  5.44249258E-01
  1.68714478E-01  4.38000000E-02  1.87311370E+01  2.82539436E+00  6.40121692E-01
  1.61277759E-01  1.87311370E+01  2.82539436E+00  6.40121692E-01  1.61277759E-01
  1.87311370E+01  2.82539436E+00  6.40121692E-01  1.61277759E-01  5.48467166E+03
  8.25234946E+02  1.88046958E+02  5.29645000E+01  1.68975704E+01  5.79963534E+00
  1.55396162E+01  3.59993359E+00  1.01376175E+00  2.70005823E-01  8.45000000E-02
  5.48467166E+03  8.25234946E+02  1.88046958E+02  5.29645000E+01  1.68975704E+01
  5.79963534E+00  1.55396162E+01  3.59993359E+00  1.01376175E+00  2.70005823E-01
  8.45000000E-02  3.04752488E+03  4.57369518E+02  1.03948685E+02  2.92101553E+01
  9.28666296E+00  3.16392696E+00  7.86827235E+00  1.88128854E+00  5.44249258E-01
  1.68714478E-01  4.38000000E-02  1.87311370E+01  2.82539436E+00  6.40121692E-01
  1.61277759E-01  1.87311370E+01  2.82539436E+00  6.40121692E-01  1.61277759E-01
  1.87311370E+01  2.82539436E+00  6.40121692E-01  1.61277759E-01
Contraction coefficients                   R   N=          79
  1.83473713E-03  1.40373228E-02  6.88426223E-02  2.32184443E-01  4.67941348E-01
  3.62311985E-01 -1.19332420E-01 -1.60854152E-01  1.14345644E+00  1.00000000E+00
  1.00000000E+00  1.83473713E-03  1.40373228E-02  6.88426223E-02  2.32184443E-01
  4.67941348E-01  3.62311985E-01 -1.19332420E-01 -1.60854152E-01  1.14345644E+00
  1.00000000E+00  1.00000000E+00  3.34946043E-02  2.34726953E-01  8.13757326E-01
  1.00000000E+00  3.34946043E-02  2.34726953E-01  8.13757326E-01  1.00000000E+00
  3.34946043E-02  2.34726953E-01  8.13757326E-01  1.00000000E+00  1.83107443E-03
  1.39501722E-02  6.84450781E-02  2.32714336E-01  4.70192898E-01  3.58520853E-01
 -1.10777550E-01 -1.48026263E-01  1.13076702E+00  1.00000000E+00  1.00000000E+00
  1.83107443E-03  1.39501722E-02  6.84450781E-02  2.32714336E-01  4.70192898E-01
  3.58520853E-01 -1.10777550E-01 -1.48026263E-01  1.13076702E+00  1.00000000E+00
  1.00000000E+00  1.83473713E-03  1.40373228E-02  6.88426223E-02  2.32184443E-01
  4.67941348E-01  3.62311985E-01 -1.19332420E-01 -1.60854152E-01  1.14345644E+00
  1.00000000E+00  1.00000000E+00  3.34946043E-02  2.34726953E-01  8.13757326E-01
  1.00000000E+00  3.34946043E-02  2.34726953E-01  8.13757326E-01  1.00000000E+00
  3.34946043E-02  2.34726953E-01  8.13757326E-01  1.00000000E+00
P(S=P) Contraction coefficients            R   N=          79
  0.00000000E+00  0.00000000E+00  0.00000000E+00  0.00000000E+00  0.00000000E+00
  0.00000000E+00  6.89990666E-02  3.16423961E-01  7.44308291E-01  1.00000000E+00
  1.00000000E+00  0.00000000E+00  0.00000000E+00  0.00000000E+00  0.00000000E+00
  0.00000000E+00  0.00000000E+00  6.89990666E-02  3.16423961E-01  7.44308291E-01
  1.00000000E+00  1.00000000E+00  0.00000000E+00  0.00000000E+00  0.00000000E+00
  0.00000000E+00  0.00000000E+00  0.00000000E+00  0.00000000E+00  0.00000000E+00
  0.00000000E+00  0.00000000E+00  0.00000000E+00  0.00000000E+00  0.00000000E+00
  0.00000000E+00  0.00000000E+00  0.00000000E+00  0.00000000E+00  0.00000000E+00
  7.08742682E-02  3.39752839E-01  7.27158577E-01  1.00000000E+00  1.00000000E+00
  0.00000000E+00  0.00000000E+00  0.00000000E+00  0.00000000E+00  0.00000000E+00
  0.00000000E+00  7.08742682E-02  3.39752839E-01  7.27158577E-01  1.00000000E+00
  1.00000000E+00  0.00000000E+00  0.00000000E+00  0.00000000E+00  0.00000000E+00
  0.00000000E+00  0.00000000E+00  6.89990666E-02  3.16423961E-01  7.44308291E-01
  1.00000000E+00  1.00000000E+00  0.00000000E+00  0.00000000E+00  0.00000000E+00
  0.00000000E+00  0.00000000E+00  0.00000000E+00  0.00000000E+00  0.00000000E+00
  0.00000000E+00  0.00000000E+00  0.00000000E+00  0.00000000E+00
Coordinates of each shell                  R   N=          96
  3.24003797E+00 -1.21474574E+00  2.79960706E-01  3.24003797E+00 -1.21474574E+00
  2.79960706E-01  3.24003797E+00 -1.21474574E+00  2.79960706E-01  3.24003797E+00
 -1.21474574E+00  2.79960706E-01  9.40335392E-01  3.51600485E-01 -2.31924529E-01
  9.40335392E-01  3.51600485E-01 -2.31924529E-01  9.40335392E-01  3.51600485E-01
 -2.31924529E-01  9.40335392E-01  3.51600485E-01 -2.31924529E-01  3.05522293E+00
 -2.02782124E+00  2.17456044E+00  3.05522293E+00 -2.02782124E+00  2.17456044E+00
  4.93090039E+00 -4.11725156E-02  2.03012948E-01  4.93090039E+00 -4.11725156E-02
  2.03012948E-01  3.38541495E+00 -2.77790260E+00 -1.05990048E+00  3.38541495E+00
 -2.77790260E+00 -1.05990048E+00 -1.15158921E+00 -1.11764316E+00 -7.03150417E-01
 -1.15158921E+00 -1.11764316E+00 -7.03150417E-01 -1.15158921E+00 -1.11764316E+00
 -7.03150417E-01 -1.15158921E+00 -1.11764316E+00 -7.03150417E-01  8.13989667E-01
  2.66311157E+00 -3.49281388E-02  8.13989667E-01  2.66311157E+00 -3.49281388E-02
  8.13989667E-01  2.66311157E+00 -3.49281388E-02  8.13989667E-01  2.66311157E+00
 -3.49281388E-02 -3.55905892E+00 -3.12750767E-01  3.92994675E-01 -3.55905892E+00
 -3.12750767E-01  3.92994675E-01 -3.55905892E+00 -3.12750767E-01  3.92994675E-01
 -3.55905892E+00 -3.12750767E-01  3.92994675E-01 -3.37321193E+00 -2.15779429E-01
  2.44720257E+00 -3.37321193E+00 -2.15779429E-01  2.44720257E+00 -4.90148412E+00
 -1.76944646E+00 -1.51157634E-01 -4.90148412E+00 -1.76944646E+00 -1.51157634E-01
 -4.12393249E+00  1.52375110E+00 -3.55274513E-01 -4.12393249E+00  1.52375110E+00
 -3.55274513E-01
Constraint Structure                       R   N=          33
  3.24003797E+00 -1.21474574E+00  2.79960706E-01  9.40335392E-01  3.51600485E-01
 -2.31924529E-01  3.05522293E+00 -2.02782124E+00  2.17456044E+00  4.93090039E+00
 -4.11725156E-02  2.03012948E-01  3.38541495E+00 -2.77790260E+00 -1.05990048E+00
 -1.15158921E+00 -1.11764316E+00 -7.03150417E-01  8.13989667E-01  2.66311157E+00
 -3.49281388E-02 -3.55905892E+00 -3.12750767E-01  3.92994675E-01 -3.37321193E+00
 -2.15779429E-01  2.44720257E+00 -4.90148412E+00 -1.76944646E+00 -1.51157634E-01
 -4.12393249E+00  1.52375110E+00 -3.55274513E-01
Num ILSW                                   I              100
ILSW                                       I   N=         100
           0           1           0           0           2           0
           0           0           0           0        4639          -1
           0           0           0           0           2           0
           0           0           0           0           1           0
           1           0           0           0           0           0
           0           0      100000           0          -1           0
           0           0           0           0           0           0
           0           0           0           1           0           0
           0           0           1           0           0           0
           0           0         121          41           0           0
           0           0          58           0           0           0
           0           0           0          11           0           0
           0           0           0           0           0           0
           0           0           0           0           0           0
           0           0           0           0           0           0
           0           0           0           0           0           0
           0           0           0           0
Num RLSW                                   I               41
RLSW                                       R   N=          41
  1.00000000E+00  1.00000000E+00  1.00000000E+00  1.00000000E+00  1.00000000E+00
  0.00000000E+00  2.00000000E-01  2.22036000E-01  0.00000000E+00  7.77964000E-01
  0.00000000E+00  2.00000000E-01  0.00000000E+00  0.00000000E+00  1.00000000E+00
  0.00000000E+00  0.00000000E+00  1.00000000E+00  0.00000000E+00  0.00000000E+00
  0.00000000E+00  0.00000000E+00  1.00000000E+00  0.00000000E+00  0.00000000E+00
  0.00000000E+00  0.00000000E+00  1.00000000E+00  0.00000000E+00  0.00000000E+00
  0.00000000E+00  0.00000000E+00  1.00000000E+00  0.00000000E+00  0.00000000E+00
  0.00000000E+00  0.00000000E+00  0.00000000E+00  1.00000000E+00  1.00000000E+00
  0.00000000E+00
MxBond                                     I                4
NBond                                      I   N=          11
           4           3           1           1           1           2
           1           4           1           1           1
IBond                                      I   N=          44
           2           3           4           5           1           6
           7           0           1           0           0           0
           1           0           0           0           1           0
           0           0           2           8           0           0
           2           0           0           0           6           9
          10          11           8           0           0           0
           8           0           0           0           8           0
           0           0
RBond                                      R   N=          44
  1.00000000E+00  1.00000000E+00  1.00000000E+00  1.00000000E+00  1.00000000E+00
  1.50000000E+00  2.00000000E+00  0.00000000E+00  1.00000000E+00  0.00000000E+00
  0.00000000E+00  0.00000000E+00  1.00000000E+00  0.00000000E+00  0.00000000E+00
  0.00000000E+00  1.00000000E+00  0.00000000E+00  0.00000000E+00  0.00000000E+00
  1.50000000E+00  1.00000000E+00  0.00000000E+00  0.00000000E+00  2.00000000E+00
  0.00000000E+00  0.00000000E+00  0.00000000E+00  1.00000000E+00  1.00000000E+00
  1.00000000E+00  1.00000000E+00  1.00000000E+00  0.00000000E+00  0.00000000E+00
  0.00000000E+00  1.00000000E+00  0.00000000E+00  0.00000000E+00  0.00000000E+00
  1.00000000E+00  0.00000000E+00  0.00000000E+00  0.00000000E+00
Virial Ratio                               R      2.005749716617930E+00
SCF Energy                                 R     -2.682132855715987E+02
Total Energy                               R     -2.682132855715987E+02
RMS Force                                  R      3.109090895202869E-03
RMS Density                                R      3.289398756602147E-09
External E-field                           R   N=          35
  0.00000000E+00  0.00000000E+00  0.00000000E+00  0.00000000E+00  0.00000000E+00
  0.00000000E+00  0.00000000E+00  0.00000000E+00  0.00000000E+00  0.00000000E+00
  0.00000000E+00  0.00000000E+00  0.00000000E+00  0.00000000E+00  0.00000000E+00
  0.00000000E+00  0.00000000E+00  0.00000000E+00  0.00000000E+00  0.00000000E+00
  0.00000000E+00  0.00000000E+00  0.00000000E+00  0.00000000E+00  0.00000000E+00
  0.00000000E+00  0.00000000E+00  0.00000000E+00  0.00000000E+00  0.00000000E+00
  0.00000000E+00  0.00000000E+00  0.00000000E+00  0.00000000E+00  0.00000000E+00
IOpCl                                      I                0
IROHF                                      I                0
Alpha Orbital Energies                     R   N=          77
 -1.93182992E+01 -1.92793053E+01 -1.04519215E+01 -1.03584713E+01 -1.03119857E+01
 -1.22034658E+00 -1.13520358E+00 -8.79360599E-01 -8.15926647E-01 -6.64842831E-01
 -5.95837849E-01 -5.84853483E-01 -5.68425909E-01 -5.30643723E-01 -5.18779850E-01
 -4.98626130E-01 -4.65649470E-01 -4.37271431E-01 -3.86425291E-01 -3.67443803E-01
  5.12471685E-02  7.11371576E-02  8.19105539E-02  1.01013464E-01  1.02907941E-01
  1.10699543E-01  1.27351855E-01  1.30796635E-01  1.52847070E-01  1.57888250E-01
  1.63819812E-01  1.91632042E-01  2.05132651E-01  2.25882937E-01  2.45502189E-01
  2.59139509E-01  2.71589675E-01  2.82275025E-01  3.00019582E-01  3.16919412E-01
  3.35558073E-01  3.50151954E-01  3.56000322E-01  3.68392589E-01  3.70618125E-01
  3.96768642E-01  4.12605981E-01  4.21922719E-01  4.32248839E-01  4.56962113E-01
  5.58894548E-01  7.19745410E-01  7.42478871E-01  7.45783431E-01  7.58896109E-01
  7.79385298E-01  8.29649429E-01  8.46914175E-01  9.21784082E-01  9.40341294E-01
  1.07638957E+00  1.09541972E+00  1.12584540E+00  1.15962628E+00  1.17822000E+00
  1.20679725E+00  1.25123898E+00  1.28060460E+00  1.32439886E+00  1.36639162E+00
  1.41257196E+00  1.43629074E+00  1.46095499E+00  1.48539862E+00  1.61118485E+00
  1.96106952E+00  2.00286433E+00
Alpha MO coefficients                      R   N=        5929
 -3.75647738E-05 -4.82903906E-04  1.04648093E-04 -2.95692384E-05  6.83904886E-06
  2.23980332E-03  1.69582953E-04  1.37735931E-03 -2.44848018E-05  1.45617840E-02
 -3.62911127E-03  1.09660037E-03 -6.04534704E-04  8.33790755E-05  3.33567670E-04
 -3.81234186E-04 -1.62864666E-04 -2.58686051E-05  3.13911830E-03 -4.74562768E-03
 -1.38150994E-03 -7.39227211E-04 -1.86209656E-02 -1.46210671E-03  4.89912676E-03
 -9.60608096E-04  1.33015660E-05 -4.27269069E-04 -1.87649830E-04 -6.03192360E-04
  6.62379257E-05 -4.15102566E-04  9.95232562E-01  2.98134789E-02  3.37670789E-05
  1.63572166E-03  9.20912240E-04 -2.13274073E-02 -6.15339729E-04 -3.31879599E-03
 -1.73567841E-03  1.02136447E-02  6.74182642E-04  1.09687293E-03  4.97130056E-04
 -4.32813429E-04 -1.25220438E-04 -4.75371837E-05  9.01246134E-05  3.58636856E-05
 -1.18789637E-04  1.08978037E-03  3.44187581E-04  4.60447685E-05 -9.14425261E-04
  6.27991161E-04  1.83496770E-04  2.64204701E-04 -1.59152936E-05 -1.59581163E-05
  6.66907347E-04 -1.16725887E-04 -2.21705300E-04  3.69481723E-03  1.09198277E-03
 -3.06976927E-04 -5.54470204E-04  8.24716720E-04 -3.08282635E-04  1.61446868E-04
  5.52293706E-04 -2.67635542E-04 -9.93889695E-04 -2.30888020E-04 -9.91199940E-04
 -3.00444639E-04 -1.05189519E-03 -1.34404559E-05 -2.65705687E-04  1.36999836E-06
 -9.46816502E-05  8.31292170E-06  2.95227392E-03 -1.93576583E-03 -1.04683928E-03
 -9.32281732E-04  4.88334339E-03 -6.52832383E-04  1.54890090E-03  4.92247773E-04
  2.39855467E-04  3.68593702E-04  1.81930960E-04 -6.26952043E-05 -3.51630477E-05
  6.78092600E-03 -1.96715773E-03  1.01573665E-02  9.06503196E-04 -1.22004757E-02
  1.56658748E-04 -1.68513614E-03 -1.55631885E-03 -2.32594495E-05 -9.03351075E-05
  1.61874950E-04  1.34930451E-04 -2.47383519E-04 -5.28220357E-04  4.45570317E-04
 -1.38904444E-04 -2.34192504E-04 -1.32631310E-06 -2.66985111E-05  5.64647392E-04
  1.41643261E-03 -1.15299355E-03  3.27344495E-05 -7.95626224E-04  1.32040943E-03
 -4.54195660E-04 -3.28246739E-04  9.95239578E-01  2.98683665E-02  2.62994216E-05
 -2.27415754E-03 -1.66829660E-04 -2.38814148E-02  6.19135516E-05  5.91735746E-03
  4.04506092E-04  7.62288083E-03 -2.36852964E-04 -5.01187461E-04  3.00322756E-04
  7.93287144E-06  5.82561741E-05  1.14296643E-04 -4.03767386E-05 -5.89618360E-06
  1.20552517E-03 -2.27468096E-04 -7.09235021E-04 -9.06149349E-04  3.65280088E-03
  1.29687749E-03  3.57889176E-04  4.92224345E-07  1.27371817E-04  2.67406558E-04
 -1.68265981E-04 -5.19886152E-04 -8.83355891E-06 -2.68159828E-04  7.72201140E-04
 -6.55838044E-04  1.31351704E-04 -2.88418193E-04  1.08679708E-04  5.65944021E-03
 -1.23353333E-03  2.02385237E-03 -8.83002658E-04 -2.93738354E-03  1.00502000E-03
 -1.64444860E-03 -2.13479607E-04  9.95557780E-01  3.68981868E-02 -1.09564828E-03
  6.72267691E-04 -7.10656335E-05 -3.48374607E-02  5.66437637E-04  4.78280005E-04
 -7.10606510E-06 -8.22901817E-03  4.29229662E-03  2.00556514E-03  7.01451634E-04
 -1.80528504E-04  4.96507922E-04 -1.50221975E-04 -1.33907908E-03 -9.46557777E-05
 -7.16198540E-04  4.23316102E-05  4.47672566E-04 -1.80861283E-04 -1.56592813E-04
 -7.29930249E-05 -1.28684196E-04 -4.97842314E-05 -8.13797796E-05  6.71287527E-05
  1.03901528E-02  7.25182966E-03  3.17670867E-03  8.74683043E-04 -1.37401062E-04
 -8.31406050E-06 -7.16232282E-05  5.18599066E-04  5.97608380E-05  8.13520772E-04
  3.23290118E-04  8.93239406E-05 -2.16915311E-06  8.57035797E-03  3.83547588E-04
 -4.88997796E-03 -2.51571459E-04 -1.11491773E-04 -5.13298667E-04  1.21759964E-05
  4.17444833E-05  6.50611216E-06  1.51706501E-03  1.43801331E-04  2.63705980E-04
  7.61339132E-05  7.26251762E-03  2.17554127E-03 -4.38258162E-04 -1.00778170E-03
 -1.21496107E-04 -1.10840491E-03 -5.67238776E-05  7.52172036E-04 -2.90784275E-06
 -1.57738365E-03  3.18881216E-06 -1.36348056E-04 -7.86873900E-05 -2.66464966E-05
  4.33641193E-05  2.18340366E-03 -8.86322463E-04  8.13657471E-04 -4.49918656E-04
  3.82667895E-04 -9.32549479E-04  4.34182652E-05  9.55710217E-04 -1.46747481E-05
 -4.42996029E-04  1.16034354E-04 -9.47639911E-05  8.28067114E-05  8.65850976E-04
 -2.01225338E-03  2.01200423E-03 -5.35995563E-04  2.96279117E-03  7.73122966E-04
 -1.55375569E-03 -2.27783517E-03  1.29215328E-04 -3.57897453E-04 -8.29753978E-05
 -9.85901244E-05 -1.36696658E-04  6.27022746E-04  5.47354917E-05  4.84852691E-04
  2.86078814E-05  1.77326009E-05 -7.28907511E-05  5.41262807E-04 -3.55825515E-04
 -2.74137978E-04  4.11213705E-04  1.38181087E-02 -7.44679836E-03  2.65009173E-03
  3.25871414E-03  1.48727613E-05  9.78755738E-05  6.35872360E-05  7.36108221E-05
  2.76376912E-06 -1.42509835E-03  3.28323551E-04  2.90972061E-04 -1.94575931E-05
 -1.17554631E-03 -9.19003712E-05  1.44323869E-03  1.24498446E-03  9.95536199E-01
  3.71195545E-02  1.09130444E-03 -3.43245529E-04 -4.22154620E-04 -3.54634662E-02
 -3.00697585E-03  9.38884250E-04  1.11941775E-03 -9.12277710E-03 -2.91988858E-03
  9.06985495E-04  1.38606727E-03 -5.37532259E-04  5.82859926E-03 -5.00750779E-04
  5.30564436E-03 -5.43013190E-04  5.60143633E-03  9.95465246E-01  3.74942655E-02
 -4.36132222E-04  3.50748309E-05  5.94612386E-05 -3.83968795E-02  3.47801563E-03
 -1.52414817E-03  2.35261680E-04 -9.54699042E-03  1.32782455E-03 -1.33134861E-03
  5.74735967E-04 -7.31371136E-04 -7.04518931E-04 -5.81257017E-04  3.86049647E-04
 -8.71324523E-05  5.69628674E-03  7.19009564E-03 -3.61470050E-03  1.38574973E-03
  2.48856344E-03  3.72127228E-03  5.35874144E-04 -3.78799933E-04 -5.28039263E-04
  7.97165314E-03 -5.42833209E-04  6.80252549E-03 -5.37970889E-04  7.47819048E-03
 -1.28019464E-05 -3.48616346E-04 -1.78995125E-04 -6.12634518E-05 -6.28916658E-05
  6.19235900E-04  8.10973928E-04  8.24050672E-04  2.65490845E-04  4.14297987E-03
  2.12114318E-03  7.17577507E-05  6.90275307E-04 -3.46811170E-06 -1.86990526E-04
 -1.91399633E-05  1.23256798E-04  2.82985675E-05  3.84281149E-04 -6.82676626E-04
 -4.77681434E-04 -3.28113165E-04  2.58186457E-03 -4.63335098E-04 -1.48528826E-03
  3.80318735E-04 -4.18887236E-05 -8.12180608E-05  6.18211502E-05 -4.25757149E-05
  9.33350295E-05  4.68343306E-04 -1.90870714E-04  1.67750633E-04 -7.19937453E-04
  2.79832938E-03  7.67982395E-04 -1.67278105E-04 -2.49793442E-04  1.16986264E-04
 -3.32243273E-05 -2.92301344E-05 -1.37092761E-04 -9.56273908E-05 -3.10464820E-04
 -1.74727428E-02  3.39576561E-02 -2.15408738E-02  1.37365406E-02 -3.74993000E-03
 -1.56089167E-03  5.35182747E-03 -4.57668625E-03  3.27734769E-03 -8.47617862E-02
  1.89216793E-02 -1.08152009E-02  1.04320758E-03 -1.20943247E-01  2.47392787E-01
 -8.13510793E-02  6.89607983E-02 -1.20724098E-03  4.12445351E-02  3.45973703E-02
 -4.16757390E-02  2.79353824E-03  1.32880760E-01  6.90758079E-03 -1.89293329E-02
  1.22578728E-02  5.36254866E-03 -1.40965167E-03  5.13846984E-03  4.73856651E-04
  5.20400928E-03  5.37336425E-04 -1.43285775E-01  3.07370559E-01  2.71570629E-02
  8.43650067E-02  4.38199336E-02  3.35561651E-01  8.88442047E-03  5.62986687E-02
  2.90669004E-02 -4.69652178E-02 -1.91616728E-02 -1.18154804E-02 -7.44553271E-03
 -1.20321114E-01  2.62509436E-01 -3.44348460E-03 -1.24327538E-01 -1.07818429E-02
  2.60073343E-01 -6.27204716E-03 -5.20875984E-02 -3.93126504E-03 -9.84715368E-04
 -7.15159466E-03 -3.95919070E-03 -4.71025505E-03 -3.92090679E-02  7.13298105E-02
  5.03699622E-02 -1.12360730E-02 -1.94992860E-02  2.69703583E-02 -1.36919614E-03
  8.08845064E-03  7.29561896E-03 -2.12854995E-02 -4.03235688E-03 -9.39578388E-04
 -7.97083961E-04  1.14204827E-02 -3.22316893E-04  1.10877117E-02  4.28013127E-03
  1.16621882E-02  3.19144715E-04  3.77842533E-03 -5.95133492E-03 -1.82499899E-03
 -1.37371949E-02 -7.37284360E-04 -3.55941373E-03 -1.08908844E-02 -1.57429935E-02
 -5.67472600E-03 -1.26771077E-01  3.04092061E-02 -1.16028347E-02  8.18110653E-03
  3.98197241E-02 -8.43276991E-02 -6.89638021E-02 -2.16719055E-01 -2.93614585E-02
 -1.90021410E-02  2.65090625E-02  7.03835233E-02  1.14629151E-02  8.31355525E-02
  4.94475905E-02 -3.01807394E-02  7.08555399E-03 -4.97071519E-04  4.74649687E-03
 -2.84114622E-03  5.30465507E-03  1.24287767E-04  2.80295317E-05 -1.43740062E-01
  3.10279965E-01 -5.77257925E-03  5.24346717E-02  4.19847492E-02  3.66968391E-01
  1.64770211E-03  4.06528322E-02  3.20713322E-02  5.13001423E-03  3.00442219E-02
 -2.18267359E-03 -4.38102088E-03  1.52807725E-01 -3.36193530E-01 -1.62486610E-02
  1.33562215E-01  9.59240973E-03 -3.45347056E-01 -6.92852736E-03  5.62852289E-02
  3.22038058E-03 -1.51068724E-02 -1.31038851E-02  1.18415663E-02  3.06609030E-04
 -4.68073450E-02  9.18418217E-02  5.62642455E-02 -1.85717789E-02 -2.36101100E-02
  3.65371175E-02 -1.11938079E-02 -2.71419370E-03 -1.11812527E-04  4.20985893E-02
  1.80137355E-02  3.35906739E-04 -8.36294395E-03  1.63107763E-02  3.99336105E-03
  1.53602760E-02  1.38525219E-03  1.49042545E-02  2.91654482E-04 -1.51902797E-01
  2.85161999E-01 -5.33336490E-02  1.99867411E-02 -8.39931089E-03  2.92218031E-01
 -1.58196454E-02  6.54663147E-04 -1.68244764E-03  4.95236865E-02 -9.47923857E-03
  1.17590967E-02 -1.17644048E-03 -8.25693034E-02  1.75130027E-01  8.15271487E-02
 -1.64947080E-01  4.88503610E-03  1.36782395E-01  6.98831941E-03 -5.48744867E-03
  2.85759163E-03  9.95516183E-03 -2.01017737E-02 -1.38391664E-02 -3.51378991E-03
  9.10011991E-02  3.92081156E-03  8.23580134E-02  3.22692293E-03  8.94094443E-02
  4.43632128E-03  8.67474878E-03 -1.88758912E-02  1.72883627E-01 -5.43538121E-03
 -1.70512346E-02 -2.59350912E-02  7.48892558E-02 -7.18880000E-03 -9.62532548E-03
  4.25813890E-03 -2.85659404E-02  2.14745742E-03  3.53463632E-03  4.61457640E-02
 -1.04524250E-01  2.31303442E-02  3.04863491E-03  4.51789069E-03 -1.22468930E-01
  1.04836016E-02  4.84627539E-03  9.06972279E-04 -2.46727423E-02 -2.00487011E-03
  1.55879555E-02  7.52402476E-04  9.08179140E-02 -1.75722076E-01 -2.61240344E-02
  1.39195495E-02  1.73861763E-02 -1.71140576E-01 -2.99283272E-03 -4.41425006E-03
 -3.13354930E-04 -5.10406789E-02 -1.74433288E-02  3.71617441E-03  6.28020116E-03
 -5.10684324E-02 -1.45047519E-03 -5.59524841E-02 -1.04952108E-02 -5.15193482E-02
 -8.76916591E-04 -1.09976885E-01  2.07180727E-01  1.45708150E-02  7.97913687E-03
  1.10946712E-02  2.30645324E-01  8.11029880E-03  6.81518528E-03  3.25331930E-03
  1.00694124E-01 -1.77053476E-02  1.15078889E-02 -7.74313058E-03  1.47413383E-02
 -3.76403788E-02  1.64634805E-01  2.64628024E-02  5.37792806E-02 -2.09187350E-02
  5.62199677E-03 -8.12836673E-03  9.30678729E-03 -1.30441206E-01 -1.39441485E-02
  2.22145315E-02  2.03955164E-03  7.76252825E-02  1.16252190E-02  8.02707969E-02
  6.83707452E-03  6.96977441E-02  3.88418754E-03  4.24029760E-02 -9.67649765E-02
 -1.88593929E-01 -4.52028085E-02  3.60811561E-02 -1.40976207E-01 -8.54522970E-02
 -2.64474527E-02  1.16611100E-02 -3.92673561E-02  2.91848661E-02 -1.10666347E-03
 -8.29473943E-03 -1.35659526E-04 -9.79113268E-04  3.42670133E-02  6.80434291E-03
  1.55895164E-02  3.64063577E-03  1.23790702E-02  1.77601884E-03  5.79619408E-03
  1.22476220E-02  6.90193711E-03 -5.59085937E-03 -2.60875250E-03 -1.52724795E-01
  2.97977390E-01 -2.76831064E-02 -1.01411606E-02  8.59887842E-03  3.25926128E-01
 -5.83834340E-03 -2.23447802E-03  4.30774710E-03  6.16063782E-02  1.81429560E-02