B.pdb                                                                   
FOpt      RwB97XD                                                     6-31+G              
Number of atoms                            I               10
Info1-9                                    I   N=           9
          21          21           0           0           0         110
           2          18        -802
Charge                                     I                0
Multiplicity                               I                1
Number of electrons                        I               38
Number of alpha electrons                  I               19
Number of beta electrons                   I               19
Number of basis functions                  I               75
Number of independent functions            I               75
Number of point charges in /Mol/           I                0
Number of translation vectors              I                0
Atomic numbers                             I   N=          10
           6           6           6           6           1           1
           9           1           1           1
Nuclear charges                            R   N=          10
  6.00000000E+00  6.00000000E+00  6.00000000E+00  6.00000000E+00  1.00000000E+00
  1.00000000E+00  9.00000000E+00  1.00000000E+00  1.00000000E+00  1.00000000E+00
Current cartesian coordinates              R   N=          30
 -1.71741952E+00  2.47083058E+00  1.75489779E-01 -8.81559561E-01  1.01751240E-01
  9.77259532E-02  1.66127830E+00 -9.15925801E-01  4.95835201E-01  3.76785215E+00
  1.93097589E-01 -3.59225179E-01 -3.68585110E+00  2.91052902E+00 -1.63249386E-01
 -4.26427438E-01  4.00014653E+00  5.98884352E-01 -2.66003478E+00 -1.84690576E+00
 -3.28434653E-01  1.74860695E+00 -2.69918797E+00  1.51075979E+00  3.70766204E+00
  1.92225024E+00 -1.46364575E+00  5.61541440E+00 -6.10107599E-01  1.42083329E-02
Force Field                                I                0
Int Atom Types                             I   N=          10
           0           0           0           0           0           0
           0           0           0           0
MM charges                                 R   N=          10
  0.00000000E+00  0.00000000E+00  0.00000000E+00  0.00000000E+00  0.00000000E+00
  0.00000000E+00  0.00000000E+00  0.00000000E+00  0.00000000E+00  0.00000000E+00
Integer atomic weights                     I   N=          10
          12          12          12          12           1           1
          19           1           1           1
Real atomic weights                        R   N=          10
  1.20000000E+01  1.20000000E+01  1.20000000E+01  1.20000000E+01  1.00782504E+00
  1.00782504E+00  1.89984032E+01  1.00782504E+00  1.00782504E+00  1.00782504E+00
Atom fragment info                         I   N=          10
           0           0           0           0           0           0
           0           0           0           0
Atom residue num                           I   N=          10
           0           0           0           0           0           0
           0           0           0           0
Nuclear spins                              I   N=          10
           0           0           0           0           1           1
           1           1           1           1
Nuclear ZEff                               R   N=          10
 -3.60000000E+00 -3.60000000E+00 -3.60000000E+00 -3.60000000E+00 -1.00000000E+00
 -1.00000000E+00 -6.75000000E+00 -1.00000000E+00 -1.00000000E+00 -1.00000000E+00
Nuclear ZNuc                               R   N=          10
  6.00000000E+00  6.00000000E+00  6.00000000E+00  6.00000000E+00  1.00000000E+00
  1.00000000E+00  9.00000000E+00  1.00000000E+00  1.00000000E+00  1.00000000E+00
Nuclear QMom                               R   N=          10
  0.00000000E+00  0.00000000E+00  0.00000000E+00  0.00000000E+00  0.00000000E+00
  0.00000000E+00  0.00000000E+00  0.00000000E+00  0.00000000E+00  0.00000000E+00
Nuclear GFac                               R   N=          10
  0.00000000E+00  0.00000000E+00  0.00000000E+00  0.00000000E+00  2.79284600E+00
  2.79284600E+00  2.62886700E+00  2.79284600E+00  2.79284600E+00  2.79284600E+00
MicOpt                                     I   N=          10
          -1          -1          -1          -1          -1          -1
          -1          -1          -1          -1
Number of contracted shells                I               30
Number of primitive shells                 I               75
Pure/Cartesian d shells                    I                1
Pure/Cartesian f shells                    I                0
Highest angular momentum                   I                1
Largest degree of contraction              I                6
Shell types                                I   N=          30
           0          -1          -1          -1           0          -1
          -1          -1           0          -1          -1          -1
           0          -1          -1          -1           0           0
           0           0           0          -1          -1          -1
           0           0           0           0           0           0
Number of primitives per shell             I   N=          30
           6           3           1           1           6           3
           1           1           6           3           1           1
           6           3           1           1           3           1
           3           1           6           3           1           1
           3           1           3           1           3           1
Shell to atom map                          I   N=          30
           1           1           1           1           2           2
           2           2           3           3           3           3
           4           4           4           4           5           5
           6           6           7           7           7           7
           8           8           9           9          10          10
Primitive exponents                        R   N=          75
  3.04752488E+03  4.57369518E+02  1.03948685E+02  2.92101553E+01  9.28666296E+00
  3.16392696E+00  7.86827235E+00  1.88128854E+00  5.44249258E-01  1.68714478E-01
  4.38000000E-02  3.04752488E+03  4.57369518E+02  1.03948685E+02  2.92101553E+01
  9.28666296E+00  3.16392696E+00  7.86827235E+00  1.88128854E+00  5.44249258E-01
  1.68714478E-01  4.38000000E-02  3.04752488E+03  4.57369518E+02  1.03948685E+02
  2.92101553E+01  9.28666296E+00  3.16392696E+00  7.86827235E+00  1.88128854E+00
  5.44249258E-01  1.68714478E-01  4.38000000E-02  3.04752488E+03  4.57369518E+02
  1.03948685E+02  2.92101553E+01  9.28666296E+00  3.16392696E+00  7.86827235E+00
  1.88128854E+00  5.44249258E-01  1.68714478E-01  4.38000000E-02  1.87311370E+01
  2.82539436E+00  6.40121692E-01  1.61277759E-01  1.87311370E+01  2.82539436E+00
  6.40121692E-01  1.61277759E-01  7.00171309E+03  1.05136609E+03  2.39285690E+02
  6.73974453E+01  2.15199573E+01  7.40310130E+00  2.08479528E+01  4.80830834E+00
  1.34406986E+00  3.58151393E-01  1.07600000E-01  1.87311370E+01  2.82539436E+00
  6.40121692E-01  1.61277759E-01  1.87311370E+01  2.82539436E+00  6.40121692E-01
  1.61277759E-01  1.87311370E+01  2.82539436E+00  6.40121692E-01  1.61277759E-01
Contraction coefficients                   R   N=          75
  1.83473713E-03  1.40373228E-02  6.88426223E-02  2.32184443E-01  4.67941348E-01
  3.62311985E-01 -1.19332420E-01 -1.60854152E-01  1.14345644E+00  1.00000000E+00
  1.00000000E+00  1.83473713E-03  1.40373228E-02  6.88426223E-02  2.32184443E-01
  4.67941348E-01  3.62311985E-01 -1.19332420E-01 -1.60854152E-01  1.14345644E+00
  1.00000000E+00  1.00000000E+00  1.83473713E-03  1.40373228E-02  6.88426223E-02
  2.32184443E-01  4.67941348E-01  3.62311985E-01 -1.19332420E-01 -1.60854152E-01
  1.14345644E+00  1.00000000E+00  1.00000000E+00  1.83473713E-03  1.40373228E-02
  6.88426223E-02  2.32184443E-01  4.67941348E-01  3.62311985E-01 -1.19332420E-01
 -1.60854152E-01  1.14345644E+00  1.00000000E+00  1.00000000E+00  3.34946043E-02
  2.34726953E-01  8.13757326E-01  1.00000000E+00  3.34946043E-02  2.34726953E-01
  8.13757326E-01  1.00000000E+00  1.81961690E-03  1.39160796E-02  6.84053245E-02
  2.33185760E-01  4.71267439E-01  3.56618546E-01 -1.08506975E-01 -1.46451658E-01
  1.12868858E+00  1.00000000E+00  1.00000000E+00  3.34946043E-02  2.34726953E-01
  8.13757326E-01  1.00000000E+00  3.34946043E-02  2.34726953E-01  8.13757326E-01
  1.00000000E+00  3.34946043E-02  2.34726953E-01  8.13757326E-01  1.00000000E+00
P(S=P) Contraction coefficients            R   N=          75
  0.00000000E+00  0.00000000E+00  0.00000000E+00  0.00000000E+00  0.00000000E+00
  0.00000000E+00  6.89990666E-02  3.16423961E-01  7.44308291E-01  1.00000000E+00
  1.00000000E+00  0.00000000E+00  0.00000000E+00  0.00000000E+00  0.00000000E+00
  0.00000000E+00  0.00000000E+00  6.89990666E-02  3.16423961E-01  7.44308291E-01
  1.00000000E+00  1.00000000E+00  0.00000000E+00  0.00000000E+00  0.00000000E+00
  0.00000000E+00  0.00000000E+00  0.00000000E+00  6.89990666E-02  3.16423961E-01
  7.44308291E-01  1.00000000E+00  1.00000000E+00  0.00000000E+00  0.00000000E+00
  0.00000000E+00  0.00000000E+00  0.00000000E+00  0.00000000E+00  6.89990666E-02
  3.16423961E-01  7.44308291E-01  1.00000000E+00  1.00000000E+00  0.00000000E+00
  0.00000000E+00  0.00000000E+00  0.00000000E+00  0.00000000E+00  0.00000000E+00
  0.00000000E+00  0.00000000E+00  0.00000000E+00  0.00000000E+00  0.00000000E+00
  0.00000000E+00  0.00000000E+00  0.00000000E+00  7.16287242E-02  3.45912103E-01
  7.22469956E-01  1.00000000E+00  1.00000000E+00  0.00000000E+00  0.00000000E+00
  0.00000000E+00  0.00000000E+00  0.00000000E+00  0.00000000E+00  0.00000000E+00
  0.00000000E+00  0.00000000E+00  0.00000000E+00  0.00000000E+00  0.00000000E+00
Coordinates of each shell                  R   N=          90
 -1.71741952E+00  2.47083058E+00  1.75489779E-01 -1.71741952E+00  2.47083058E+00
  1.75489779E-01 -1.71741952E+00  2.47083058E+00  1.75489779E-01 -1.71741952E+00
  2.47083058E+00  1.75489779E-01 -8.81559561E-01  1.01751240E-01  9.77259532E-02
 -8.81559561E-01  1.01751240E-01  9.77259532E-02 -8.81559561E-01  1.01751240E-01
  9.77259532E-02 -8.81559561E-01  1.01751240E-01  9.77259532E-02  1.66127830E+00
 -9.15925801E-01  4.95835201E-01  1.66127830E+00 -9.15925801E-01  4.95835201E-01
  1.66127830E+00 -9.15925801E-01  4.95835201E-01  1.66127830E+00 -9.15925801E-01
  4.95835201E-01  3.76785215E+00  1.93097589E-01 -3.59225179E-01  3.76785215E+00
  1.93097589E-01 -3.59225179E-01  3.76785215E+00  1.93097589E-01 -3.59225179E-01
  3.76785215E+00  1.93097589E-01 -3.59225179E-01 -3.68585110E+00  2.91052902E+00
 -1.63249386E-01 -3.68585110E+00  2.91052902E+00 -1.63249386E-01 -4.26427438E-01
  4.00014653E+00  5.98884352E-01 -4.26427438E-01  4.00014653E+00  5.98884352E-01
 -2.66003478E+00 -1.84690576E+00 -3.28434653E-01 -2.66003478E+00 -1.84690576E+00
 -3.28434653E-01 -2.66003478E+00 -1.84690576E+00 -3.28434653E-01 -2.66003478E+00
 -1.84690576E+00 -3.28434653E-01  1.74860695E+00 -2.69918797E+00  1.51075979E+00
  1.74860695E+00 -2.69918797E+00  1.51075979E+00  3.70766204E+00  1.92225024E+00
 -1.46364575E+00  3.70766204E+00  1.92225024E+00 -1.46364575E+00  5.61541440E+00
 -6.10107599E-01  1.42083329E-02  5.61541440E+00 -6.10107599E-01  1.42083329E-02
Constraint Structure                       R   N=          30
 -1.74827699E+00  2.47524996E+00  1.70831292E-01 -8.74926553E-01  1.10068836E-01
  9.18048350E-02  1.66542296E+00 -9.03434455E-01  4.88796611E-01  3.79518009E+00
  1.96492229E-01 -3.51460665E-01 -3.72452995E+00  2.88851016E+00 -1.64360770E-01
 -4.83880315E-01  4.02996937E+00  5.86914972E-01 -2.66226520E+00 -1.86693262E+00
 -3.21992276E-01  1.74464238E+00 -2.69879143E+00  1.48738837E+00  3.76367248E+00
  1.93177671E+00 -1.44830685E+00  5.63608524E+00 -6.19330672E-01  3.64623155E-02
Num ILSW                                   I              100
ILSW                                       I   N=         100
           0           1           0           0           2           0
           0           0           0           0        4639          -1
           0           0           0           0           2           0
           0           0           0           0           1           0
           1           0           0           0           0           0
           0           0      100000           0          -1           0
           0           0           0           0           0           0
           0           0           0           1           0           0
           0           0           1           0           0           0
           0           0         121          41           0           0
           0           0          58           0           0           0
           0           0           0          10           0           0
           0           0           0           0           0           0
           0           0           0           0           0           0
           0           0           0           0           0           0
           0           0           0           0           0           0
           0           0           0           0
Num RLSW                                   I               41
RLSW                                       R   N=          41
  1.00000000E+00  1.00000000E+00  1.00000000E+00  1.00000000E+00  1.00000000E+00
  0.00000000E+00  2.00000000E-01  2.22036000E-01  0.00000000E+00  7.77964000E-01
  0.00000000E+00  2.00000000E-01  0.00000000E+00  0.00000000E+00  1.00000000E+00
  0.00000000E+00  0.00000000E+00  1.00000000E+00  0.00000000E+00  0.00000000E+00
  0.00000000E+00  0.00000000E+00  1.00000000E+00  0.00000000E+00  0.00000000E+00
  0.00000000E+00  0.00000000E+00  1.00000000E+00  0.00000000E+00  0.00000000E+00
  0.00000000E+00  0.00000000E+00  1.00000000E+00  0.00000000E+00  0.00000000E+00
  0.00000000E+00  0.00000000E+00  0.00000000E+00  1.00000000E+00  1.00000000E+00
  0.00000000E+00
MxBond                                     I                3
NBond                                      I   N=          10
           3           3           3           3           1           1
           1           1           1           1
IBond                                      I   N=          30
           2           5           6           1           3           7
           2           4           8           3           9          10
           1           0           0           1           0           0
           2           0           0           3           0           0
           4           0           0           4           0           0
RBond                                      R   N=          30
  2.00000000E+00  1.00000000E+00  1.00000000E+00  2.00000000E+00  1.00000000E+00
  1.00000000E+00  1.00000000E+00  2.00000000E+00  1.00000000E+00  2.00000000E+00
  1.00000000E+00  1.00000000E+00  1.00000000E+00  0.00000000E+00  0.00000000E+00
  1.00000000E+00  0.00000000E+00  0.00000000E+00  1.00000000E+00  0.00000000E+00
  0.00000000E+00  1.00000000E+00  0.00000000E+00  0.00000000E+00  1.00000000E+00
  0.00000000E+00  0.00000000E+00  1.00000000E+00  0.00000000E+00  0.00000000E+00
Virial Ratio                               R      2.005634082618506E+00
SCF Energy                                 R     -2.550984506216144E+02
Total Energy                               R     -2.550984506216144E+02
RMS Force                                  R      8.592610300433146E-04
RMS Density                                R      5.452388730559747E-09
External E-field                           R   N=          35
  0.00000000E+00  0.00000000E+00  0.00000000E+00  0.00000000E+00  0.00000000E+00
  0.00000000E+00  0.00000000E+00  0.00000000E+00  0.00000000E+00  0.00000000E+00
  0.00000000E+00  0.00000000E+00  0.00000000E+00  0.00000000E+00  0.00000000E+00
  0.00000000E+00  0.00000000E+00  0.00000000E+00  0.00000000E+00  0.00000000E+00
  0.00000000E+00  0.00000000E+00  0.00000000E+00  0.00000000E+00  0.00000000E+00
  0.00000000E+00  0.00000000E+00  0.00000000E+00  0.00000000E+00  0.00000000E+00
  0.00000000E+00  0.00000000E+00  0.00000000E+00  0.00000000E+00  0.00000000E+00
IOpCl                                      I                0
IROHF                                      I                0
Alpha Orbital Energies                     R   N=          75
 -2.48303715E+01 -1.04026695E+01 -1.03313008E+01 -1.03203882E+01 -1.03104130E+01
 -1.31005818E+00 -9.31764520E-01 -8.59178880E-01 -7.44528967E-01 -6.52096993E-01
 -6.14133716E-01 -5.78585539E-01 -5.55114115E-01 -5.29477290E-01 -5.06398253E-01
 -4.84944134E-01 -4.55374478E-01 -4.02924278E-01 -3.36009076E-01  1.94903104E-02
  7.34036526E-02  8.21464558E-02  8.78137726E-02  1.01719450E-01  1.12711379E-01
  1.21867718E-01  1.32389566E-01  1.41949281E-01  1.52045954E-01  1.66669231E-01
  1.76102488E-01  1.82459851E-01  1.90271435E-01  2.03767495E-01  2.09622629E-01
  2.26435275E-01  2.33583292E-01  2.38650935E-01  2.79966404E-01  2.92488820E-01
  3.15126382E-01  3.22399899E-01  3.86788290E-01  4.10606951E-01  4.31058728E-01
  4.42853599E-01  4.64693414E-01  4.79625148E-01  5.03383466E-01  5.23828079E-01
  6.94791064E-01  7.20194153E-01  7.45763285E-01  7.74932106E-01  8.09031940E-01
  8.32299080E-01  8.54271153E-01  8.87304956E-01  9.31660928E-01  9.96942859E-01
  1.01870085E+00  1.05136743E+00  1.06948584E+00  1.13316609E+00  1.15552884E+00
  1.16047247E+00  1.22997207E+00  1.30181333E+00  1.33138912E+00  1.39016961E+00
  1.41223438E+00  1.66999312E+00  1.82031347E+00  1.85754155E+00  2.35934806E+00
Alpha MO coefficients                      R   N=        5625
  3.74966925E-06 -1.31743794E-04 -8.53074717E-05  2.90373458E-05 -1.47713859E-05
  1.50830666E-03  2.95938230E-03  7.31652709E-04  4.90524554E-04  9.25065269E-03
  8.11906066E-04 -2.40820658E-03  2.46119779E-04 -1.99564447E-05  4.30564703E-04
 -3.19401312E-04 -3.76490493E-04 -1.10623900E-04  3.27450899E-04 -2.86107082E-03
 -3.19527052E-03 -4.05005751E-04 -2.38055903E-02 -9.37733885E-04  1.30985226E-03
 -8.80750862E-04 -6.38499063E-06 -2.13883519E-04  1.22632265E-05 -1.24064955E-05
  3.60519569E-05  1.58367084E-03  1.40347310E-03  1.90602894E-03 -3.52083010E-04
  3.80653647E-03 -5.25387733E-03 -4.47594974E-04  8.20292419E-04 -1.90277412E-06
 -6.56172669E-05  1.58554890E-04 -2.61599759E-07 -2.46728545E-05 -1.79527580E-03
  1.11601598E-04  4.32838902E-04 -5.55391543E-04  7.77673940E-03 -1.54668187E-03
 -1.10876104E-03  3.91548789E-04  3.03002654E-04  9.11183376E-04 -2.62860812E-04
 -1.71677852E-03  9.95028002E-01  2.76089509E-02  8.70484043E-04  9.44028620E-04
  2.20649872E-04 -1.54779693E-02 -1.52104949E-03 -1.63809585E-03 -3.99380975E-04
  8.19804834E-03  8.11725121E-04  7.78131610E-04  1.68835078E-04  1.75837696E-04
  4.13683115E-04 -4.13400832E-06 -2.16297053E-04  7.29954289E-05  3.40412945E-04
  4.70616095E-03 -1.18330424E-03 -3.76834184E-04  7.99068627E-04  1.10485726E-05
  8.90261142E-03  2.85302185E-03 -3.27265850E-03  2.41532196E-04 -1.22053856E-02
 -1.99786739E-03  3.57403831E-03 -6.23938668E-04  9.95495430E-01  3.63137719E-02
 -8.44170796E-04 -7.94238624E-04 -1.21117202E-04 -3.58326340E-02 -4.37591518E-04
 -6.17201196E-04 -3.94172199E-04  4.66828300E-02  8.81630612E-03 -1.98665533E-03
  3.13355902E-03  2.02514503E-03 -6.48476562E-04  5.01945439E-04 -2.77559393E-04
  5.10019628E-05  5.90528242E-03 -3.21152884E-03  2.23474095E-03 -2.78786286E-04
 -1.22557807E-02  1.50325174E-02 -1.04361788E-04 -1.63362463E-03 -1.07858074E-04
 -4.42028547E-04  1.91114631E-04  3.48873698E-05  4.68945574E-05  2.55175780E-04
 -4.41740947E-04 -2.32947373E-04 -2.87196928E-04 -2.14343449E-02  3.52833353E-03
  2.87031086E-03 -1.63638406E-03 -5.06828415E-05  4.48683763E-04 -2.96478867E-04
 -1.08520144E-03  4.20851945E-05  7.21865315E-04  4.28421203E-05  7.68496338E-05
  1.09982208E-05 -8.97302926E-04 -5.28506309E-04 -7.06867790E-04 -1.20294295E-04
  7.14013220E-03  3.04857374E-03  3.80092604E-03  7.95816335E-04 -1.06392266E-04
  3.24160703E-04 -1.41939832E-04  1.41787578E-04 -1.80570019E-05  7.84412908E-04
 -4.74893925E-04 -3.95157762E-04 -9.35247982E-05  1.36980079E-04 -5.42857664E-05
  4.27453078E-04 -1.56942816E-03 -6.35299143E-04 -3.56867054E-05 -5.77764807E-03
 -7.44080690E-04  2.02743132E-03 -1.80862569E-03 -1.99093623E-03 -7.78336910E-04
 -7.15344145E-04  2.59843625E-04 -1.03513950E-04  6.98303734E-03  7.24063874E-03
 -2.00627601E-04  6.48467717E-04 -1.61606882E-02 -6.03276771E-03  8.94658781E-04
  3.05946380E-03  9.94673643E-01  3.64788927E-02 -1.30655491E-04  4.19087784E-04
 -2.81052306E-04 -3.65392280E-02  1.17645311E-03 -4.87493137E-03  2.72935567E-03
  7.23683975E-02  6.10968248E-03  1.25355027E-02 -8.89157150E-03  3.84337473E-02
  8.14318698E-05  7.43416641E-04  3.89359142E-04 -2.89692779E-04  8.97354963E-03
 -5.10546572E-03 -7.01141464E-04  8.47883955E-04 -4.88344980E-02  1.00712869E-02
  4.26366557E-03 -3.28333917E-03 -1.38079178E-04 -2.87702551E-04  4.07868370E-05
  6.38143259E-04 -4.43447906E-06 -1.98503249E-04 -1.17476701E-04 -9.07214899E-05
 -4.00042425E-05  3.90844321E-04  3.25767996E-04  5.96499964E-04  2.10352750E-04
  2.53133812E-03  4.34238679E-04  7.96031523E-04 -7.24455528E-05 -7.05461371E-04
  2.62963603E-03 -3.95913393E-04 -7.12820008E-04 -1.31739337E-04  1.19889283E-03
 -8.33722962E-04 -2.24162158E-04  2.18295157E-05 -2.21948727E-05  3.03743702E-05
  2.77870545E-04 -1.32070514E-03  2.69871796E-04 -3.19666444E-04 -2.39756499E-02
 -1.83713403E-03  4.94290026E-03  1.97013647E-04  1.16911590E-04 -3.74020382E-04
 -1.46452186E-04 -6.54705231E-05  2.22254543E-06  1.07697434E-03  1.18255796E-03
  6.35777978E-04  5.03945346E-04 -1.85035285E-02 -1.28164477E-02  1.24928154E-02
 -9.80637922E-04 -3.86809447E-02 -2.61409558E-03 -1.00032198E-03 -6.13605192E-04
  4.30027659E-04  9.59538411E-03  5.37027323E-03  2.42905779E-03 -2.05087483E-03
  9.80296246E-03 -1.92327264E-02  1.05576181E-03 -4.92014727E-04  9.94582473E-01
  3.53786525E-02 -4.44738895E-04 -1.85383356E-04  2.09099682E-04 -3.11562963E-02
  3.48176402E-03  1.80817350E-03 -1.39323627E-03  3.34457582E-02 -7.50396055E-03
 -4.94956908E-03  4.17692438E-03 -1.31150391E-04 -6.87439953E-04  5.06158904E-06
  5.45104578E-04 -4.07881752E-06 -5.89969453E-05 -2.03795391E-05 -3.65376603E-05
 -1.59215358E-05  2.07979783E-04  2.02287858E-04  2.66713283E-04  5.83605933E-05
  1.65614321E-03  3.64228631E-04 -1.43180019E-04  1.29572795E-04 -7.34268078E-05
  3.25349020E-05 -6.35659897E-04  3.78064745E-03 -7.08564569E-04  4.16056511E-03
  9.95292706E-01  3.56180053E-02  3.16811839E-04 -6.25710746E-04 -3.11946932E-05
 -3.26759308E-02 -2.02200308E-03  4.67011625E-03  1.07107152E-04  2.03747307E-02
  9.49849966E-04 -7.04432162E-03 -7.59401535E-04 -4.98669169E-03 -1.53241649E-03
  4.50164948E-04 -1.26224606E-03 -1.23833160E-05  9.27527223E-03 -2.73579584E-03
  7.56896063E-03  1.68629732E-04  1.12228672E-02  1.23436188E-02 -5.09360122E-03
  2.15055159E-03  3.78030527E-04 -3.53277736E-04  9.17569171E-05 -1.75723906E-04
  4.38832626E-05  1.72404641E-03 -1.34379036E-03  2.97783061E-04 -6.58379008E-04
 -1.98165433E-02  8.96886652E-03 -2.51269652E-03 -7.14610759E-04  8.31901167E-04
 -1.79444271E-04 -4.59285341E-05 -2.70377642E-06 -2.60770542E-05  8.13749331E-04
  9.77278782E-04 -5.63857515E-04  4.70615578E-04 -1.08228798E-02  2.77591678E-03
  8.56713618E-04 -4.33338636E-04 -7.13330216E-04  3.98219386E-03 -6.16057626E-04
  3.96963726E-03 -1.44628650E-06 -1.51190896E-04 -8.79078806E-05 -1.14471585E-04
 -1.47968452E-05  1.71090437E-04  5.39576186E-04  2.38445490E-04  5.97273596E-05
  1.03036225E-03 -5.56405894E-05 -3.49153971E-04  1.16088476E-04 -5.62817191E-05
  8.09953293E-04 -1.08289840E-05  4.30587691E-04 -1.38080755E-04 -5.98376068E-04
 -9.73649148E-03  1.94918229E-02  1.18301068E-03 -1.63914005E-02 -1.14964227E-03
 -1.04235669E-02 -3.37990871E-02 -6.84330712E-03 -5.83357490E-03 -1.34552160E-01
 -1.66200975E-02  2.93059115E-02 -1.00347938E-04 -5.91561657E-02  1.15797983E-01
 -6.45784961E-02 -6.99028969E-02 -1.46852756E-02  2.94990461E-02  3.91781245E-02
  4.01429393E-02  7.10264250E-03  2.25619460E-01  1.03068077E-02  2.41579910E-02
  4.22345554E-03 -8.92751638E-03  1.78936947E-02 -1.39762827E-02  5.34891273E-04
 -2.59785518E-03 -9.31518586E-03 -1.41861204E-02 -2.16585733E-02  2.29258410E-03
 -8.34465539E-02  1.61750839E-02 -1.28473819E-02  2.07655395E-03 -8.75983753E-04
  3.20424643E-03 -3.13028799E-03 -4.83441115E-04  2.97238432E-04  1.79033119E-02
  1.36514765E-03 -5.38051250E-03  6.72846343E-03  6.33138739E-03  7.96857863E-04
  2.31668752E-03  2.08501649E-03  9.43487067E-04 -1.19215080E-02  3.35684173E-03
  1.75806886E-02 -2.25640275E-01  4.78247422E-01  6.57154225E-02  7.10633714E-02
  1.62337835E-02  5.45749465E-01  5.29812899E-02  5.69324771E-02  1.33839026E-02
 -9.53790473E-03 -9.05541803E-03 -8.90585006E-03 -1.73839980E-03  1.79348146E-03
 -5.00143751E-03  9.87260112E-04  1.27103305E-03 -4.99724174E-04 -6.19185197E-03
 -8.68277286E-02  1.66871688E-01  3.97724092E-02 -6.77298887E-02 -4.27675695E-05
  1.23863802E-01  2.11215358E-03 -9.58693364E-03 -1.33424307E-03  6.51235658E-02
  3.06390555E-03 -1.79245577E-02  2.65618078E-03 -1.21702917E-01  2.45066585E-01
  6.75579844E-02  5.56474981E-02  1.51820128E-02  1.72079813E-01  2.63080890E-02
 -7.46636001E-03  2.15469533E-03 -3.48675059E-02  1.99750177E-02 -1.17316861E-02
 -5.88491469E-03 -1.38399984E-01  2.70204097E-01 -2.09043721E-03  5.76883266E-02
 -2.99160083E-02  1.73487225E-01  2.17898310E-03 -6.37556267E-04  2.87620538E-03
 -1.09164015E-01 -8.16292893E-03 -2.31357883E-02  1.57358379E-02 -9.85768656E-02
  1.89285791E-01 -7.53576778E-02 -2.84433724E-02  2.53734651E-02  1.34055416E-01
 -9.81991250E-03  4.15307405E-03 -3.11745173E-04  7.80668494E-02 -1.82899893E-02
 -4.53034006E-03  3.99052086E-03  3.57302513E-02  1.36570754E-03  4.54295606E-02
  1.04841671E-02  4.55311907E-02 -1.02713532E-01  4.06283114E-02  3.83820243E-02
  9.36412989E-03 -1.27075710E-01  1.72231519E-02  1.89611702E-02  3.97816268E-03
 -1.77736296E-02 -8.16864637E-03 -3.64087607E-03 -5.30582101E-04  6.35183428E-02
  5.08718657E-03  4.87039626E-02  4.82990900E-03  4.37192655E-02  8.00499320E-03
 -1.40606171E-01  2.72134500E-01  2.18906594E-02 -8.15462152E-02 -2.77731861E-03
  2.21974886E-01  2.60598091E-03 -2.47755587E-03 -9.75434758E-04 -1.31612254E-01
 -6.61562328E-03  2.77790736E-02  1.98861318E-03 -8.65863178E-02  1.80274999E-01
 -9.12455109E-02  1.49994297E-01  3.19711656E-03  1.19110371E-01 -2.15875770E-02
  6.47032402E-03  3.25601447E-03 -5.79855568E-02 -6.32618912E-02  7.20733590E-02
 -5.68385016E-03  8.76890789E-02 -1.73572704E-01 -1.06309704E-01 -9.09372004E-03
  2.44538465E-02 -1.20998824E-01 -7.05603195E-03  2.22529909E-02 -7.51085111E-03
  9.68739769E-02 -8.63581386E-02  3.44732740E-03 -5.73999668E-03  1.14924572E-01
 -2.23019561E-01  4.92321748E-02  3.79727116E-02 -2.53871689E-02 -1.94805704E-01
  6.48851176E-03 -9.95196282E-05 -9.85830084E-04  9.18569412E-02 -1.34372966E-02
 -1.35678856E-02  1.33449631E-02  8.08709164E-02  1.50585509E-02  7.70973769E-02
  1.13347547E-02  2.94611590E-02 -6.68967333E-02  1.27709181E-02  6.73549376E-02
  8.03897556E-03 -8.77981768E-02  6.03488543E-03  3.37025054E-02  3.81932604E-03
 -1.78460590E-02 -4.54289696E-03 -3.91631585E-03 -2.74054374E-03 -5.33845354E-02
 -1.79230590E-03 -6.01291246E-02 -6.29365068E-03 -6.86620453E-02 -1.47943451E-02
 -8.57753801E-02  1.66710968E-01 -2.83067361E-02  3.27358605E-02 -7.17122273E-03
  1.47786939E-01 -6.70182735E-03  1.50443210E-02 -2.36287369E-03  2.16996533E-02
  5.16761997E-03  1.62488007E-03 -4.11491036E-03  7.18053245E-02 -1.54501595E-01
 -1.36192517E-01  1.71355929E-01 -2.70943935E-02 -1.46145729E-01 -3.68439077E-02
  4.84717265E-02 -7.52327336E-03  2.64401855E-02 -2.09181288E-03 -2.59037981E-02
  9.49975542E-03  7.10798666E-02 -1.45872600E-01  2.07626453E-01  4.78839877E-02
 -3.52656531E-02 -1.27922261E-01  4.36614195E-02  2.65386225E-02 -1.52637460E-02
  1.20938405E-01  7.04793383E-02  2.79601519E-02 -1.86296011E-02 -1.18485043E-01
  2.35342155E-01  5.65957066E-02  1.85578985E-02 -1.16880812E-02  2.12706249E-01
  2.39847658E-02  7.29102228E-03 -4.00886335E-03 -1.63682506E-01  2.92625299E-02
  1.93591154E-02 -1.54536942E-02  8.37856230E-02  3.10750138E-02  7.33943256E-02
  2.71779627E-02 -3.34081773E-02  7.70296359E-02 -1.42762715E-01 -3.77780659E-02
 -3.29243127E-02  1.01153775E-01 -7.78047578E-02 -1.75218352E-02 -1.78207315E-02
  3.23406498E-02  4.72322135E-03  6.81761493E-03  6.64318883E-04 -7.78018626E-02
 -2.10956508E-02  1.05729637E-01  4.12208541E-02  1.12731764E-01  3.98993433E-02
  6.31331082E-02 -1.23928297E-01 -5.30018451E-03 -1.74741334E-01 -2.57192016E-02
 -1.61199374E-01 -2.21953030E-02 -5.28714548E-02 -1.25141636E-02 -2.22138141E-01
 -2.07562434E-02  3.22470705E-02  4.85626591E-04 -7.61712433E-02  1.69767549E-01
 -1.42875039E-01 -5.90838344E-02 -4.91082744E-02  1.70227090E-01 -2.45613289E-02
 -5.61384866E-03 -1.11936746E-02  1.96481949E-01 -1.34081082E-02  9.77147287E-02
  2.04278781E-03  7.48528594E-02 -1.50806809E-01 -4.09220506E-02  7.57518042E-02
 -5.94793788E-02 -1.62986244E-01 -3.08116821E-03  3.09866708E-02 -2.92565263E-02
  3.11486719E-02 -2.32119665E-02 -1.61083646E-02 -9.99614537E-03 -5.58215414E-02
  1.13647825E-01  1.04051523E-01  9.36198087E-02 -7.40729829E-02  1.25521891E-01
  4.08346798E-02  2.56653736E-02 -2.20034279E-02 -6.69322630E-03  1.64632641E-02
  4.65370309E-03  2.66141464E-03 -7.74404864E-02 -4.10933582E-02 -1.28164114E-01
 -5.31151348E-02  4.43996178E-02 -1.04875996E-01  1.83221522E-01  2.69157345E-01
  3.31867507E-02 -1.27854466E-01  1.06441533E-01  1.60109702E-01  1.89857384E-02
 -5.49950165E-02 -2.53219530E-03 -4.73190890E-03 -1.05422554E-03 -1.19202647E-01
 -4.85464596E-02  1.08891346E-01  5.24198900E-02  7.62362599E-02  3.06052160E-02