L.pdb                                                                   
FOpt      RwB97XD                                                     6-31+G              
Number of atoms                            I                8
Info1-9                                    I   N=           9
          19          19           0           0           0         110
           2          18        -802
Charge                                     I                0
Multiplicity                               I                1
Number of electrons                        I               30
Number of alpha electrons                  I               15
Number of beta electrons                   I               15
Number of basis functions                  I               60
Number of independent functions            I               60
Number of point charges in /Mol/           I                0
Number of translation vectors              I                0
Atomic numbers                             I   N=           8
           6           6           6           8           1           1
           1           1
Nuclear charges                            R   N=           8
  6.00000000E+00  6.00000000E+00  6.00000000E+00  8.00000000E+00  1.00000000E+00
  1.00000000E+00  1.00000000E+00  1.00000000E+00
Current cartesian coordinates              R   N=          24
  3.14567770E+00 -5.99106140E-01 -1.57117469E-01  1.16053191E+00  9.48990705E-01
  2.70659101E-02 -1.40566537E+00  7.62445878E-02  7.95101521E-01 -3.12053921E+00
 -3.42154373E-01 -7.26542139E-01 -1.73597665E+00 -2.33575298E-01  2.82775053E+00
  4.96495406E+00  7.71520384E-02 -8.16268304E-01  3.02069248E+00 -2.59130656E+00
  3.24874147E-01  1.31137834E+00  2.92818988E+00 -5.14319026E-01
Force Field                                I                0
Int Atom Types                             I   N=           8
           0           0           0           0           0           0
           0           0
MM charges                                 R   N=           8
  0.00000000E+00  0.00000000E+00  0.00000000E+00  0.00000000E+00  0.00000000E+00
  0.00000000E+00  0.00000000E+00  0.00000000E+00
Integer atomic weights                     I   N=           8
          12          12          12          16           1           1
           1           1
Real atomic weights                        R   N=           8
  1.20000000E+01  1.20000000E+01  1.20000000E+01  1.59949146E+01  1.00782504E+00
  1.00782504E+00  1.00782504E+00  1.00782504E+00
Atom fragment info                         I   N=           8
           0           0           0           0           0           0
           0           0
Atom residue num                           I   N=           8
           0           0           0           0           0           0
           0           0
Nuclear spins                              I   N=           8
           0           0           0           0           1           1
           1           1
Nuclear ZEff                               R   N=           8
 -3.60000000E+00 -3.60000000E+00 -3.60000000E+00 -5.60000000E+00 -1.00000000E+00
 -1.00000000E+00 -1.00000000E+00 -1.00000000E+00
Nuclear ZNuc                               R   N=           8
  6.00000000E+00  6.00000000E+00  6.00000000E+00  8.00000000E+00  1.00000000E+00
  1.00000000E+00  1.00000000E+00  1.00000000E+00
Nuclear QMom                               R   N=           8
  0.00000000E+00  0.00000000E+00  0.00000000E+00  0.00000000E+00  0.00000000E+00
  0.00000000E+00  0.00000000E+00  0.00000000E+00
Nuclear GFac                               R   N=           8
  0.00000000E+00  0.00000000E+00  0.00000000E+00  0.00000000E+00  2.79284600E+00
  2.79284600E+00  2.79284600E+00  2.79284600E+00
MicOpt                                     I   N=           8
          -1          -1          -1          -1          -1          -1
          -1          -1
Number of contracted shells                I               24
Number of primitive shells                 I               60
Pure/Cartesian d shells                    I                1
Pure/Cartesian f shells                    I                0
Highest angular momentum                   I                1
Largest degree of contraction              I                6
Shell types                                I   N=          24
           0          -1          -1          -1           0          -1
          -1          -1           0          -1          -1          -1
           0          -1          -1          -1           0           0
           0           0           0           0           0           0
Number of primitives per shell             I   N=          24
           6           3           1           1           6           3
           1           1           6           3           1           1
           6           3           1           1           3           1
           3           1           3           1           3           1
Shell to atom map                          I   N=          24
           1           1           1           1           2           2
           2           2           3           3           3           3
           4           4           4           4           5           5
           6           6           7           7           8           8
Primitive exponents                        R   N=          60
  3.04752488E+03  4.57369518E+02  1.03948685E+02  2.92101553E+01  9.28666296E+00
  3.16392696E+00  7.86827235E+00  1.88128854E+00  5.44249258E-01  1.68714478E-01
  4.38000000E-02  3.04752488E+03  4.57369518E+02  1.03948685E+02  2.92101553E+01
  9.28666296E+00  3.16392696E+00  7.86827235E+00  1.88128854E+00  5.44249258E-01
  1.68714478E-01  4.38000000E-02  3.04752488E+03  4.57369518E+02  1.03948685E+02
  2.92101553E+01  9.28666296E+00  3.16392696E+00  7.86827235E+00  1.88128854E+00
  5.44249258E-01  1.68714478E-01  4.38000000E-02  5.48467166E+03  8.25234946E+02
  1.88046958E+02  5.29645000E+01  1.68975704E+01  5.79963534E+00  1.55396162E+01
  3.59993359E+00  1.01376175E+00  2.70005823E-01  8.45000000E-02  1.87311370E+01
  2.82539436E+00  6.40121692E-01  1.61277759E-01  1.87311370E+01  2.82539436E+00
  6.40121692E-01  1.61277759E-01  1.87311370E+01  2.82539436E+00  6.40121692E-01
  1.61277759E-01  1.87311370E+01  2.82539436E+00  6.40121692E-01  1.61277759E-01
Contraction coefficients                   R   N=          60
  1.83473713E-03  1.40373228E-02  6.88426223E-02  2.32184443E-01  4.67941348E-01
  3.62311985E-01 -1.19332420E-01 -1.60854152E-01  1.14345644E+00  1.00000000E+00
  1.00000000E+00  1.83473713E-03  1.40373228E-02  6.88426223E-02  2.32184443E-01
  4.67941348E-01  3.62311985E-01 -1.19332420E-01 -1.60854152E-01  1.14345644E+00
  1.00000000E+00  1.00000000E+00  1.83473713E-03  1.40373228E-02  6.88426223E-02
  2.32184443E-01  4.67941348E-01  3.62311985E-01 -1.19332420E-01 -1.60854152E-01
  1.14345644E+00  1.00000000E+00  1.00000000E+00  1.83107443E-03  1.39501722E-02
  6.84450781E-02  2.32714336E-01  4.70192898E-01  3.58520853E-01 -1.10777550E-01
 -1.48026263E-01  1.13076702E+00  1.00000000E+00  1.00000000E+00  3.34946043E-02
  2.34726953E-01  8.13757326E-01  1.00000000E+00  3.34946043E-02  2.34726953E-01
  8.13757326E-01  1.00000000E+00  3.34946043E-02  2.34726953E-01  8.13757326E-01
  1.00000000E+00  3.34946043E-02  2.34726953E-01  8.13757326E-01  1.00000000E+00
P(S=P) Contraction coefficients            R   N=          60
  0.00000000E+00  0.00000000E+00  0.00000000E+00  0.00000000E+00  0.00000000E+00
  0.00000000E+00  6.89990666E-02  3.16423961E-01  7.44308291E-01  1.00000000E+00
  1.00000000E+00  0.00000000E+00  0.00000000E+00  0.00000000E+00  0.00000000E+00
  0.00000000E+00  0.00000000E+00  6.89990666E-02  3.16423961E-01  7.44308291E-01
  1.00000000E+00  1.00000000E+00  0.00000000E+00  0.00000000E+00  0.00000000E+00
  0.00000000E+00  0.00000000E+00  0.00000000E+00  6.89990666E-02  3.16423961E-01
  7.44308291E-01  1.00000000E+00  1.00000000E+00  0.00000000E+00  0.00000000E+00
  0.00000000E+00  0.00000000E+00  0.00000000E+00  0.00000000E+00  7.08742682E-02
  3.39752839E-01  7.27158577E-01  1.00000000E+00  1.00000000E+00  0.00000000E+00
  0.00000000E+00  0.00000000E+00  0.00000000E+00  0.00000000E+00  0.00000000E+00
  0.00000000E+00  0.00000000E+00  0.00000000E+00  0.00000000E+00  0.00000000E+00
  0.00000000E+00  0.00000000E+00  0.00000000E+00  0.00000000E+00  0.00000000E+00
Coordinates of each shell                  R   N=          72
  3.14567770E+00 -5.99106140E-01 -1.57117469E-01  3.14567770E+00 -5.99106140E-01
 -1.57117469E-01  3.14567770E+00 -5.99106140E-01 -1.57117469E-01  3.14567770E+00
 -5.99106140E-01 -1.57117469E-01  1.16053191E+00  9.48990705E-01  2.70659101E-02
  1.16053191E+00  9.48990705E-01  2.70659101E-02  1.16053191E+00  9.48990705E-01
  2.70659101E-02  1.16053191E+00  9.48990705E-01  2.70659101E-02 -1.40566537E+00
  7.62445878E-02  7.95101521E-01 -1.40566537E+00  7.62445878E-02  7.95101521E-01
 -1.40566537E+00  7.62445878E-02  7.95101521E-01 -1.40566537E+00  7.62445878E-02
  7.95101521E-01 -3.12053921E+00 -3.42154373E-01 -7.26542139E-01 -3.12053921E+00
 -3.42154373E-01 -7.26542139E-01 -3.12053921E+00 -3.42154373E-01 -7.26542139E-01
 -3.12053921E+00 -3.42154373E-01 -7.26542139E-01 -1.73597665E+00 -2.33575298E-01
  2.82775053E+00 -1.73597665E+00 -2.33575298E-01  2.82775053E+00  4.96495406E+00
  7.71520384E-02 -8.16268304E-01  4.96495406E+00  7.71520384E-02 -8.16268304E-01
  3.02069248E+00 -2.59130656E+00  3.24874147E-01  3.02069248E+00 -2.59130656E+00
  3.24874147E-01  1.31137834E+00  2.92818988E+00 -5.14319026E-01  1.31137834E+00
  2.92818988E+00 -5.14319026E-01
Constraint Structure                       R   N=          24
  3.16081839E+00 -5.94194585E-01 -1.65646086E-01  1.16216473E+00  9.46952743E-01
  4.14660086E-02 -1.40863008E+00  6.66825060E-02  7.99157371E-01 -3.13505554E+00
 -3.34542190E-01 -7.32567705E-01 -1.73940775E+00 -2.72379703E-01  2.83243844E+00
  4.97633501E+00  9.31875559E-02 -8.29187513E-01  3.05476500E+00 -2.59117590E+00
  3.06719307E-01  1.30263382E+00  2.93006158E+00 -4.99292352E-01
Num ILSW                                   I              100
ILSW                                       I   N=         100
           0           1           0           0           2           0
           0           0           0           0        4639          -1
           0           0           0           0           2           0
           0           0           0           0           1           0
           1           0           0           0           0           0
           0           0      100000           0          -1           0
           0           0           0           0           0           0
           0           0           0           1           0           0
           0           0           1           0           0           0
           0           0         121          41           0           0
           0           0          58           0           0           0
           0           0           0           8           0           0
           0           0           0           0           0           0
           0           0           0           0           0           0
           0           0           0           0           0           0
           0           0           0           0           0           0
           0           0           0           0
Num RLSW                                   I               41
RLSW                                       R   N=          41
  1.00000000E+00  1.00000000E+00  1.00000000E+00  1.00000000E+00  1.00000000E+00
  0.00000000E+00  2.00000000E-01  2.22036000E-01  0.00000000E+00  7.77964000E-01
  0.00000000E+00  2.00000000E-01  0.00000000E+00  0.00000000E+00  1.00000000E+00
  0.00000000E+00  0.00000000E+00  1.00000000E+00  0.00000000E+00  0.00000000E+00
  0.00000000E+00  0.00000000E+00  1.00000000E+00  0.00000000E+00  0.00000000E+00
  0.00000000E+00  0.00000000E+00  1.00000000E+00  0.00000000E+00  0.00000000E+00
  0.00000000E+00  0.00000000E+00  1.00000000E+00  0.00000000E+00  0.00000000E+00
  0.00000000E+00  0.00000000E+00  0.00000000E+00  1.00000000E+00  1.00000000E+00
  0.00000000E+00
MxBond                                     I                3
NBond                                      I   N=           8
           3           3           3           1           1           1
           1           1
IBond                                      I   N=          24
           2           6           7           1           3           8
           2           4           5           3           0           0
           3           0           0           1           0           0
           1           0           0           2           0           0
RBond                                      R   N=          24
  2.00000000E+00  1.00000000E+00  1.00000000E+00  2.00000000E+00  1.00000000E+00
  1.00000000E+00  1.00000000E+00  2.00000000E+00  1.00000000E+00  2.00000000E+00
  0.00000000E+00  0.00000000E+00  1.00000000E+00  0.00000000E+00  0.00000000E+00
  1.00000000E+00  0.00000000E+00  0.00000000E+00  1.00000000E+00  0.00000000E+00
  0.00000000E+00  1.00000000E+00  0.00000000E+00  0.00000000E+00
Virial Ratio                               R      2.005809192561049E+00
SCF Energy                                 R     -1.917825710283047E+02
Total Energy                               R     -1.917825710283047E+02
RMS Force                                  R      1.350221453521999E-03
RMS Density                                R      8.059123851845647E-09
External E-field                           R   N=          35
  0.00000000E+00  0.00000000E+00  0.00000000E+00  0.00000000E+00  0.00000000E+00
  0.00000000E+00  0.00000000E+00  0.00000000E+00  0.00000000E+00  0.00000000E+00
  0.00000000E+00  0.00000000E+00  0.00000000E+00  0.00000000E+00  0.00000000E+00
  0.00000000E+00  0.00000000E+00  0.00000000E+00  0.00000000E+00  0.00000000E+00
  0.00000000E+00  0.00000000E+00  0.00000000E+00  0.00000000E+00  0.00000000E+00
  0.00000000E+00  0.00000000E+00  0.00000000E+00  0.00000000E+00  0.00000000E+00
  0.00000000E+00  0.00000000E+00  0.00000000E+00  0.00000000E+00  0.00000000E+00
IOpCl                                      I                0
IROHF                                      I                0
Alpha Orbital Energies                     R   N=          60
 -1.92975253E+01 -1.04131816E+01 -1.03314813E+01 -1.03251126E+01 -1.18057354E+00
 -9.10755903E-01 -7.61535408E-01 -6.71180753E-01 -5.97654177E-01 -5.66124844E-01
 -5.38417793E-01 -4.90153578E-01 -4.69294110E-01 -3.77980648E-01 -3.55284942E-01
  1.05945209E-02  5.11937594E-02  7.57811071E-02  8.59622306E-02  9.10220495E-02
  1.10246099E-01  1.24715618E-01  1.32391305E-01  1.47151976E-01  1.66780384E-01
  1.71086215E-01  1.77814551E-01  1.94325997E-01  2.25060161E-01  2.76957864E-01
  2.82690755E-01  2.98958185E-01  3.10176768E-01  3.25989430E-01  3.35303765E-01
  3.69770469E-01  3.99174420E-01  4.41723819E-01  4.55540161E-01  5.05727020E-01
  6.92412968E-01  7.21366579E-01  7.56116386E-01  7.87538111E-01  8.07860507E-01
  8.58532909E-01  8.90701776E-01  8.98397804E-01  1.01457875E+00  1.05305964E+00
  1.09640780E+00  1.12206262E+00  1.13719526E+00  1.23334969E+00  1.26941658E+00
  1.31554985E+00  1.33074813E+00  1.38689080E+00  1.46893320E+00  1.89039642E+00
Alpha MO coefficients                      R   N=        3600
  2.94523579E-05  3.45537246E-04 -8.66082085E-05 -8.67222080E-05 -3.56456066E-05
 -1.87133037E-03  8.88767527E-04 -1.89061094E-05 -3.79793942E-04  1.07575773E-02
 -2.09125015E-03  1.53161230E-03  1.46405008E-04  1.25626409E-06 -2.86307388E-04
  1.83124689E-04  1.19129957E-04 -7.06205808E-05  6.68924406E-04  1.25887932E-03
 -8.35703276E-04  1.24128670E-03  1.37437922E-04 -5.69086121E-03  1.35660434E-03
  6.57514304E-06  2.09989092E-04  8.05762566E-05 -1.31956325E-04 -3.07766539E-05
  7.77169388E-05  6.17533711E-03 -3.13515443E-03 -4.71528351E-04 -4.26301464E-03
 -1.57087775E-02 -6.69957087E-04 -9.07493171E-04  3.73332492E-03  9.95213640E-01
  2.93149676E-02  1.60602338E-03  4.10812973E-04  1.34628902E-03 -2.05608708E-02
 -3.41061751E-03 -9.07415325E-04 -2.56123617E-03  9.81764828E-03  7.03024665E-04
  2.08412903E-04  9.99569238E-05 -1.75499371E-04  7.76815810E-04  3.60802066E-06
 -3.44632786E-04  1.51198902E-04  2.12613653E-04  1.91032847E-04  8.79239039E-05
 -1.31324104E-04 -5.20317521E-04  1.96212410E-04  1.48943541E-05 -4.37368012E-05
  1.91112653E-03 -1.48492383E-03  4.40210216E-04  3.20148608E-04 -1.35940859E-02
  2.28261061E-03 -2.36232924E-03 -4.39223445E-04  1.50457902E-03 -2.96555786E-04
  4.73311840E-04  1.23912989E-04 -2.13328886E-04  3.02476741E-03 -3.61795663E-03
 -3.45499975E-05  8.10400105E-04 -2.71858133E-03  7.91048088E-03 -1.08421440E-03
 -2.54179084E-04  9.95433614E-01  3.60891754E-02 -9.73618949E-04 -2.28293883E-04
 -1.04407366E-03 -3.14487759E-02  4.94993029E-04 -1.57732425E-04  2.65800348E-03
  1.36702489E-02  4.89410294E-03  2.27621724E-03 -2.66595676E-03 -1.34059554E-04
 -1.23223523E-04 -5.01727019E-04 -1.22434397E-04 -3.41599064E-04  1.48532034E-03
  5.34348458E-04  1.68359283E-04 -2.56356203E-04  1.07620495E-02  3.89577200E-03
  9.25632043E-04  4.28446957E-03 -5.44718346E-04  3.02941877E-03 -2.50540334E-05
  1.10942003E-03 -2.54647110E-04  2.30182755E-04 -2.17646324E-04  1.72466929E-04
  6.72108970E-02  9.75415706E-04  7.64808054E-04 -6.03469257E-04 -7.14442650E-05
  7.82125837E-03 -4.64156680E-03  1.72984293E-03  8.38699494E-04 -3.77951788E-02
  7.83949116E-03 -4.49874310E-03 -1.15819269E-03  9.93102475E-01  3.61196848E-02
 -9.69853857E-05 -4.16163472E-04  5.46061367E-05 -3.40508262E-02  8.01018946E-04
  4.21512033E-03 -9.96086003E-04  6.86678034E-02  9.51622768E-05 -1.28218063E-02
  2.84047047E-03 -1.41050867E-03 -5.18224418E-04 -4.78652242E-04 -2.39418787E-04
  1.82857237E-04  4.73084500E-03  5.33164877E-03  1.26202230E-03 -4.62517788E-04
 -2.98515014E-02 -7.64418186E-03 -9.03214531E-04  1.61522862E-03 -1.08966047E-05
 -3.16358943E-04 -1.57778827E-04 -3.21505161E-05 -4.39811678E-05  8.43118710E-04
  4.85542916E-04  1.26895122E-04  5.91240163E-04  2.94775109E-03  8.63277685E-04
  3.34624139E-04  1.19774398E-03 -1.98573371E-04  2.09267904E-04 -1.70553721E-04
  1.26343902E-03 -3.95963531E-04 -2.84569569E-04 -6.95698043E-04  3.04877963E-03
  9.93047920E-01  3.52898189E-02 -4.85037481E-04  3.11353706E-04  4.71750162E-05
 -3.13892180E-02  3.50269272E-03 -2.62007396E-03 -3.63136100E-04  3.04746041E-02
 -6.69131719E-03  6.54997701E-03  4.83747439E-04 -6.74795735E-02 -3.74724693E-03
 -9.21253601E-04  8.21524257E-04  6.65022977E-05  1.09698085E-02  5.20102688E-03
 -3.90001683E-03 -2.64927097E-04  7.30097213E-04 -1.48100164E-02 -2.85276926E-04
  3.40082084E-03  1.30767854E-04 -4.47423209E-04 -1.86675703E-04 -5.13975067E-06
 -3.03110909E-05  1.84955452E-03 -1.40502847E-04  4.13583108E-04 -9.56689122E-04
 -3.03898774E-02 -7.45033965E-03 -1.77443592E-03  2.16529469E-03  1.45909243E-05
  2.76894593E-04  1.06231928E-04  7.21566970E-07  2.06129432E-05 -1.20076649E-03
 -7.69846369E-04 -8.84367785E-05 -2.89183261E-04  5.94312547E-04  2.12831312E-04
 -1.76704258E-04  3.40698111E-04 -9.27474181E-05  5.44171276E-04 -6.99235452E-04
  4.08952630E-03 -6.36699452E-04  3.88692669E-03 -4.86008815E-05  1.17403805E-04
 -4.24076963E-03  7.63303884E-03 -5.80496835E-03  2.00754690E-03  7.04806289E-04
  8.09476720E-03  2.71062889E-03  2.58601140E-03  2.21530443E-04  3.50770273E-02
 -8.19720975E-03  3.40962745E-03  1.10356803E-03 -1.85263620E-02  3.57521620E-02
 -2.52927149E-02 -9.31623891E-03  1.19323200E-03  1.06826822E-02 -4.99479984E-03
  1.71384610E-04 -1.15745271E-02 -6.70803522E-02  8.54524500E-03  1.30686646E-02
  1.14097243E-03 -1.16081993E-01  2.37576877E-01 -1.34604462E-01 -3.19100815E-02
 -1.26254667E-01  4.70480553E-02  3.89516080E-02  7.71531977E-03  4.30268544E-02
  4.40197042E-02 -8.46203221E-03 -1.94643228E-03 -1.08428340E-02 -1.92599313E-01
  4.26455751E-01  1.34807489E-01  3.33540821E-02  1.17992684E-01  4.14269965E-01
  5.22788077E-02  1.38175501E-02  4.52649610E-02 -5.45613152E-03  8.08671579E-03
  1.64851296E-03  3.42588083E-03  2.84704638E-02 -1.62695240E-02  7.04864133E-04
 -4.30608272E-03  1.94680284E-03  4.85186188E-04  5.01615788E-03  9.62789036E-04
 -1.39332384E-01  2.69051130E-01 -8.81344485E-02  6.15782851E-02  1.01423417E-02
  2.01540330E-01 -9.23614538E-03 -1.60339711E-03  3.25967468E-03 -7.40415395E-03
 -3.82698998E-03 -6.47451662E-03  3.19131159E-03 -1.63923625E-01  3.19437020E-01
  4.47848173E-02 -6.87935210E-02  4.84919869E-03  2.24190921E-01  1.10484680E-03
  6.25818952E-03  1.63181637E-03 -9.77510185E-02  4.03145341E-02  1.58564441E-02
 -1.67106493E-02 -5.33271977E-02  1.03990968E-01  1.30014548E-01  3.06986151E-02
  1.51954789E-02  1.13371747E-01  1.82235837E-02 -1.32104177E-03 -6.99687240E-03
  1.12707323E-01  2.68793795E-02  9.06093294E-03 -3.19978924E-03  4.08670170E-02
 -9.30804851E-02  5.24804897E-03  4.03540286E-04 -1.76365100E-02 -1.08573320E-01
 -5.00158313E-03 -6.90661706E-04 -7.70625848E-03 -2.04095424E-02 -7.46943108E-03
 -1.52044774E-03 -6.88573037E-03  3.07663389E-02  4.65151793E-03  6.78002072E-02
  1.20463224E-02  7.00128026E-02  7.58550433E-03  8.27743446E-02  8.68259925E-03
  1.29079481E-01 -2.55572389E-01 -4.38015957E-02  6.69030617E-04  1.50399295E-02
 -2.34519510E-01 -1.98451486E-02  6.30364421E-03  4.06628006E-03  1.62325211E-01
 -3.03451354E-02  2.77679655E-02  2.13764274E-03 -4.55499447E-02  9.22258108E-02
 -2.14954268E-01  4.81581113E-02  5.80843120E-02  9.12289286E-02 -4.58089163E-02
  1.33999444E-02  1.41908100E-02 -6.89678530E-02 -7.49659860E-02  2.29754571E-02
  8.69450946E-03 -1.21910309E-01  2.57193108E-01  1.38888771E-01  5.73298940E-02
  8.42059554E-02  2.68447397E-01  1.88927608E-02  1.22706033E-02  2.08058142E-02
 -9.58375254E-02 -1.74898344E-02 -1.17401374E-02  1.75784483E-02  6.67620928E-02
 -1.54651116E-01  4.15835986E-02  1.90959600E-02  2.64045221E-02 -2.01356495E-01
  1.06405337E-02  6.29857547E-03  3.80995965E-03 -2.72758655E-02 -8.46106133E-03
 -2.70751864E-03 -1.05272237E-02  1.19074664E-01  4.11448724E-02 -1.18851187E-01
 -4.03137722E-02 -9.95704232E-02 -3.18351283E-02  4.30966147E-02  1.28847248E-02
 -6.28916922E-02  1.26272770E-01  7.81403842E-02 -1.41248879E-01  2.24720931E-02
  1.28955133E-01  2.78997652E-02 -4.18587375E-02  8.09948933E-03 -4.32245369E-02
  1.50279806E-02 -8.15593408E-03 -3.10625662E-03  9.28844923E-02 -1.89685335E-01
 -1.49095768E-02 -1.42586942E-01  7.28988253E-02 -1.89413444E-01  1.76973994E-03
 -6.80807273E-02  2.25893435E-02  7.85178605E-02 -4.63046838E-03 -1.46131511E-02
  4.95352587E-03 -8.21638821E-02  1.77194986E-01 -7.40157882E-02 -8.30582081E-02
  2.13869342E-01  2.00899897E-01 -2.42055425E-02 -2.87950217E-02  8.80478258E-02
 -2.89998441E-02 -9.58281453E-03 -8.71897540E-03  1.24973853E-02  4.29793372E-02
 -1.00193070E-01  2.67813694E-03 -3.29416408E-02  1.28836236E-01 -1.36724523E-01
 -1.98821685E-03 -1.70633961E-02  5.18051479E-02 -1.93048305E-02 -3.10250602E-04
  2.34526892E-03 -5.30908921E-03  1.83147172E-01  7.28211873E-02  6.70029771E-02
  2.84974090E-02  1.25136308E-01  6.21669277E-02 -1.61675587E-01 -6.30987819E-02
  2.64599136E-03 -4.17315214E-03  1.25999591E-01  2.06411463E-01 -5.99120683E-02
 -2.62798516E-03  5.64194622E-02  9.02683667E-02 -2.63316599E-02  7.11521463E-02
 -1.50466706E-02  1.47278197E-02 -8.65796444E-04 -1.04505061E-02  1.56834670E-02
  1.76789951E-01  2.29109526E-01 -4.70915553E-02  5.54166822E-02  3.74150802E-02
  8.38683326E-02 -9.67482785E-03 -5.34641608E-02 -4.52054495E-03  1.93017534E-02
  1.80509376E-03 -1.19347745E-03  5.39155480E-04 -2.12607430E-01 -7.92710618E-03
  2.37894692E-01  3.49040887E-03 -8.84380827E-02 -2.41811910E-03  1.08838077E-01
 -1.26853435E-02 -1.70777027E-02 -2.31899008E-03  1.41526093E-02  1.47566439E-03
 -3.47629373E-03 -1.27224797E-01  5.95479861E-03  1.47958847E-01 -3.38077653E-03
 -6.35040816E-02  5.97745389E-03  7.34170811E-02  6.79286363E-03  4.60110130E-03
  6.29593279E-05 -4.26139216E-03  1.37085132E-01  6.69912807E-02  1.03513068E-01
  4.96970985E-02 -1.21482663E-01 -6.12543338E-02  1.44813509E-01  8.32854075E-02
 -1.42410129E-02  2.57047421E-02  3.21078279E-01 -1.37297750E-01 -7.62000373E-02
  8.58836027E-02  1.02228271E-01 -3.56999640E-02 -2.93586829E-02  3.09733187E-02
  1.54188078E-02 -4.33145687E-03 -2.87911614E-04  3.36872360E-02 -6.89391200E-02
 -2.15973361E-01  2.06819202E-01 -3.43315524E-02 -7.84859418E-02 -5.53769176E-02
  8.13516706E-02 -2.03450262E-02 -4.50000905E-02 -1.77468472E-02  1.64696730E-02
 -6.20991929E-03 -3.35422959E-02  8.60770526E-02 -2.08740392E-02  1.39444175E-01
 -1.82168977E-01  9.79245217E-02  5.92091584E-03  7.09048398E-02 -8.29271727E-02
  2.51139466E-02  1.37852615E-02  5.29612698E-03 -6.14613693E-03  4.38080239E-02
 -9.76472099E-02  1.85222998E-01  1.63876778E-01  4.08264571E-02 -1.75992405E-01
  7.45854602E-02  8.39046740E-02  3.06696041E-03 -4.41919608E-02  2.08550619E-03
 -9.69974610E-04  3.30840602E-03 -6.50079580E-02 -2.91498560E-02  1.72290443E-01
  1.05456223E-01  7.33332794E-02  4.65031757E-02  7.48250639E-02  4.61158220E-02
 -2.30250292E-03  7.72233648E-03 -1.12039154E-01  1.63716163E-01 -4.13189139E-02
 -2.43104276E-02 -2.87584410E-02  5.87022373E-02 -2.40366801E-02 -1.93702498E-03
 -8.22150678E-03  8.65582268E-03 -1.40026670E-03 -1.02991515E-03  5.30957705E-03
  1.50215620E-01 -1.13915602E-01 -8.55409074E-02 -1.64340545E-02  5.25670806E-02
 -4.64374643E-02 -3.48920865E-02 -1.10758061E-02  9.45815494E-03 -5.90464392E-03
 -5.15780699E-03 -2.77386380E-02  8.98664947E-02 -2.09836580E-01 -1.44675834E-01
 -2.21171716E-01  7.49463039E-02 -5.47253996E-02 -5.70131208E-02 -8.03531969E-02
  7.87046367E-03 -5.11291119E-03 -2.77091226E-03 -4.35346532E-03  7.79899710E-02
 -1.70179089E-01  3.57735248E-01 -2.32435631E-03  2.78024484E-01 -3.23412811E-01
  1.45422699E-01 -1.62963031E-02  1.08087351E-01 -9.55813216E-02  1.05253604E-02
  5.60154484E-04  1.06779228E-02 -6.00586636E-02 -3.84756025E-02 -1.83626052E-02
 -1.66623013E-02 -9.82763160E-02 -6.36592464E-02 -4.80347364E-02 -2.96322749E-02
  2.98123281E-03 -6.40700711E-03  2.04786377E-01  2.35804527E-01 -1.22947651E-01
 -2.21001909E-02  1.05269590E-01  1.11436580E-01 -6.22914387E-02 -8.44371888E-02
  3.52022172E-02  8.20856784E-03 -1.46058673E-02  1.49284559E-02 -2.71172770E-02
 -8.35869356E-02 -1.20018521E-01  3.16348861E-02 -6.14529204E-02 -1.13200171E-02
 -6.51307909E-02  8.46666303E-03  1.16486183E-01 -1.08777176E-02 -3.00565371E-02
  1.20692892E-02 -2.17134533E-02  4.08454982E-02  2.37916193E-01 -1.11561425E-01
 -2.97193469E-03  7.45784401E-02  1.10365387E-01 -5.64355229E-02 -2.71798156E-02
 -3.23303599E-02  6.84956849E-03 -1.61670257E-02 -6.77905405E-03 -1.56826533E-02
  3.24736720E-02  5.46307915E-02 -2.04293207E-01 -2.21301095E-01  7.17042923E-02
  4.89481182E-02 -1.22902847E-01 -1.14006868E-01  1.91495861E-02 -3.96578850E-03
 -5.63117717E-03 -7.78285368E-03  1.96991992E-02  2.61628142E-02  2.04748507E-01
  1.41481402E-01 -1.90770738E-01 -1.34792816E-01 -1.14371203E-01 -8.37786383E-02
 -1.77555507E-02  4.43711747E-02 -4.76285565E-02  1.84711825E-01 -6.90954764E-03
  5.88241336E-03  1.44747821E-02  8.52722274E-02 -7.61840519E-03 -1.60416634E-03
 -8.21590344E-04  1.79409608E-02  5.87102141E-03  6.57144613E-03 -9.30491019E-03
  4.69700346E-02 -2.12539189E-01  6.78423725E-02 -4.44267085E-02  2.18755977E-02
 -1.28931233E-01  3.75552684E-02  4.60158298E-03 -2.70900300E-03 -3.64312164E-02
 -2.71478186E-03 -1.15474717E-02  2.65456193E-02 -2.00823348E-02  2.82380621E-01
  1.39014729E-03  2.27598742E-02 -1.60178952E-02  1.71080245E-01 -3.16353873E-03
 -2.14176461E-02 -9.95729490E-03  3.40746763E-02  2.52997427E-03 -1.68629753E-03
  3.14694119E-03 -9.24133286E-02  4.26227141E-01 -3.45334335E-02  1.26994830E-02
 -5.57408486E-02  2.65405534E-01 -1.46360183E-02  6.82452833E-03 -3.89358290E-03
  1.33688694E-02 -1.40290774E-03 -6.37979506E-03  2.81027302E-03  4.11174508E-02
  1.89979930E-02 -1.12037848E-01 -8.40835617E-02 -1.72729944E-01 -1.10051891E-01
  1.61431071E-03 -4.73210752E-03  1.17090676E-01  8.46061413E-02  3.69828236E-01
  5.95104341E-03  7.33598862E-02  5.62829590E-02  2.38542951E-01  2.76724973E-02
  7.55920426E-03  1.38357214E-02  3.17049557E-02 -5.20249405E-03  1.04646668E-02
  6.74094720E-02  7.84087419E-02  3.85725326E-01  1.21581854E-02  4.79058162E-02
  5.93547373E-02  2.49214424E-01  6.42428094E-02 -1.75018664E-02  7.95027684E-03
  5.83947661E-02  4.32204966E-03  1.67694018E-03  8.46399928E-03 -4.48920542E-03
 -8.24019654E-02 -6.51766227E-02  4.65855635E-02  3.18386365E-03 -9.81622686E-03
 -1.06795447E-01 -2.09567029E-02 -1.79070311E-02 -1.16815869E-02 -3.23025343E-03
  1.00274638E-02  9.65261930E-02 -4.72775889E-02  6.03731912E-02  3.88779246E-02
  6.02021442E-02 -3.48107231E-02  4.94787658E-02  2.60190479E-02  1.59731151E-02
  3.11363684E-03  8.03938220E-03 -8.47749745E-02 -8.28550799E-02  1.00563314E-02
  5.36973798E-03 -6.28348564E-03 -1.01442349E-02 -1.05001593E-02 -1.52044320E-02
  6.10502728E-03 -1.57039299E-02  5.45395382E-02 -1.45053709E-03 -6.09855692E-02
 -7.08269417E-03  4.16795745E-02  3.14458874E-02 -5.55463058E-02  6.16741062E-02
 -1.87586682E-03  1.78939029E-02 -1.46114970E-02 -3.39298728E-02  6.99064929E-02
 -2.11213703E-01 -9.28984819E-02  3.34363018E-02  2.29667600E-01 -1.85165014E-01
 -1.04911536E-01  5.67276339E-02 -9.92011775E-02 -4.41292248E-03  4.00195785E-03
  1.37059110E-02 -1.28805521E-03  1.93107124E-02  1.03115590E-01  4.52205650E-02
 -1.13489131E-01 -6.38894447E-02 -7.41753112E-02 -1.76499633E-02  1.22171299E-02
  1.31987306E-02 -1.71932857E-02 -2.41684273E-03 -8.42332708E-03 -5.25477906E-04
  2.02873869E-03 -3.58095488E-01 -1.46433106E-01  4.37605825E-01 -5.67485184E-03
 -2.43460647E-01 -1.00050880E-01  2.93107954E-01 -1.60521192E-02 -3.41646007E-02