N.pdb                                                                   
FOpt      RwB97XD                                                     6-31+G              
Number of atoms                            I               13
Info1-9                                    I   N=           9
          24          24           0           0           0         100
           2          18        -802
Charge                                     I                0
Multiplicity                               I                1
Number of electrons                        I               64
Number of alpha electrons                  I               32
Number of beta electrons                   I               32
Number of basis functions                  I              114
Number of independent functions            I              114
Number of point charges in /Mol/           I                0
Number of translation vectors              I                0
Atomic numbers                             I   N=          13
           6           6           1           1           1           6
           8           6           1           1           9           9
           9
Nuclear charges                            R   N=          13
  6.00000000E+00  6.00000000E+00  1.00000000E+00  1.00000000E+00  1.00000000E+00
  6.00000000E+00  8.00000000E+00  6.00000000E+00  1.00000000E+00  1.00000000E+00
  9.00000000E+00  9.00000000E+00  9.00000000E+00
Current cartesian coordinates              R   N=          39
 -3.28618854E+00  2.37779866E+00 -6.41178762E-02 -2.89480320E+00 -4.28900021E-01
 -1.80472094E-01 -2.15547858E+00  3.20769283E+00  1.45878218E+00 -5.27923172E+00
  2.76708953E+00  2.84831393E-01 -2.68731556E+00  3.28218954E+00 -1.82579428E+00
 -3.28864879E-01 -1.48602381E+00 -9.87672391E-01 -4.61170989E+00 -1.94697962E+00
  2.52596444E-01  1.95832906E+00 -1.25707916E-01 -8.35961693E-03 -2.26005198E-01
 -1.46983262E+00 -3.05691117E+00 -2.30426886E-01 -3.45117834E+00 -3.65115344E-01
  2.26363288E+00  2.27219963E+00 -1.06003567E+00  4.15812730E+00 -1.45460083E+00
 -5.49038609E-01  1.88727342E+00  2.06498369E-01  2.60098179E+00
Force Field                                I                0
Int Atom Types                             I   N=          13
           0           0           0           0           0           0
           0           0           0           0           0           0
           0
MM charges                                 R   N=          13
  0.00000000E+00  0.00000000E+00  0.00000000E+00  0.00000000E+00  0.00000000E+00
  0.00000000E+00  0.00000000E+00  0.00000000E+00  0.00000000E+00  0.00000000E+00
  0.00000000E+00  0.00000000E+00  0.00000000E+00
Integer atomic weights                     I   N=          13
          12          12           1           1           1          12
          16          12           1           1          19          19
          19
Real atomic weights                        R   N=          13
  1.20000000E+01  1.20000000E+01  1.00782504E+00  1.00782504E+00  1.00782504E+00
  1.20000000E+01  1.59949146E+01  1.20000000E+01  1.00782504E+00  1.00782504E+00
  1.89984032E+01  1.89984032E+01  1.89984032E+01
Atom fragment info                         I   N=          13
           0           0           0           0           0           0
           0           0           0           0           0           0
           0
Atom residue num                           I   N=          13
           0           0           0           0           0           0
           0           0           0           0           0           0
           0
Nuclear spins                              I   N=          13
           0           0           1           1           1           0
           0           0           1           1           1           1
           1
Nuclear ZEff                               R   N=          13
 -3.60000000E+00 -3.60000000E+00 -1.00000000E+00 -1.00000000E+00 -1.00000000E+00
 -3.60000000E+00 -5.60000000E+00 -3.60000000E+00 -1.00000000E+00 -1.00000000E+00
 -6.75000000E+00 -6.75000000E+00 -6.75000000E+00
Nuclear ZNuc                               R   N=          13
  6.00000000E+00  6.00000000E+00  1.00000000E+00  1.00000000E+00  1.00000000E+00
  6.00000000E+00  8.00000000E+00  6.00000000E+00  1.00000000E+00  1.00000000E+00
  9.00000000E+00  9.00000000E+00  9.00000000E+00
Nuclear QMom                               R   N=          13
  0.00000000E+00  0.00000000E+00  0.00000000E+00  0.00000000E+00  0.00000000E+00
  0.00000000E+00  0.00000000E+00  0.00000000E+00  0.00000000E+00  0.00000000E+00
  0.00000000E+00  0.00000000E+00  0.00000000E+00
Nuclear GFac                               R   N=          13
  0.00000000E+00  0.00000000E+00  2.79284600E+00  2.79284600E+00  2.79284600E+00
  0.00000000E+00  0.00000000E+00  0.00000000E+00  2.79284600E+00  2.79284600E+00
  2.62886700E+00  2.62886700E+00  2.62886700E+00
MicOpt                                     I   N=          13
          -1          -1          -1          -1          -1          -1
          -1          -1          -1          -1          -1          -1
          -1
Number of contracted shells                I               42
Number of primitive shells                 I              108
Pure/Cartesian d shells                    I                1
Pure/Cartesian f shells                    I                0
Highest angular momentum                   I                1
Largest degree of contraction              I                6
Shell types                                I   N=          42
           0          -1          -1          -1           0          -1
          -1          -1           0           0           0           0
           0           0           0          -1          -1          -1
           0          -1          -1          -1           0          -1
          -1          -1           0           0           0           0
           0          -1          -1          -1           0          -1
          -1          -1           0          -1          -1          -1
Number of primitives per shell             I   N=          42
           6           3           1           1           6           3
           1           1           3           1           3           1
           3           1           6           3           1           1
           6           3           1           1           6           3
           1           1           3           1           3           1
           6           3           1           1           6           3
           1           1           6           3           1           1
Shell to atom map                          I   N=          42
           1           1           1           1           2           2
           2           2           3           3           4           4
           5           5           6           6           6           6
           7           7           7           7           8           8
           8           8           9           9          10          10
          11          11          11          11          12          12
          12          12          13          13          13          13
Primitive exponents                        R   N=         108
  3.04752488E+03  4.57369518E+02  1.03948685E+02  2.92101553E+01  9.28666296E+00
  3.16392696E+00  7.86827235E+00  1.88128854E+00  5.44249258E-01  1.68714478E-01
  4.38000000E-02  3.04752488E+03  4.57369518E+02  1.03948685E+02  2.92101553E+01
  9.28666296E+00  3.16392696E+00  7.86827235E+00  1.88128854E+00  5.44249258E-01
  1.68714478E-01  4.38000000E-02  1.87311370E+01  2.82539436E+00  6.40121692E-01
  1.61277759E-01  1.87311370E+01  2.82539436E+00  6.40121692E-01  1.61277759E-01
  1.87311370E+01  2.82539436E+00  6.40121692E-01  1.61277759E-01  3.04752488E+03
  4.57369518E+02  1.03948685E+02  2.92101553E+01  9.28666296E+00  3.16392696E+00
  7.86827235E+00  1.88128854E+00  5.44249258E-01  1.68714478E-01  4.38000000E-02
  5.48467166E+03  8.25234946E+02  1.88046958E+02  5.29645000E+01  1.68975704E+01
  5.79963534E+00  1.55396162E+01  3.59993359E+00  1.01376175E+00  2.70005823E-01
  8.45000000E-02  3.04752488E+03  4.57369518E+02  1.03948685E+02  2.92101553E+01
  9.28666296E+00  3.16392696E+00  7.86827235E+00  1.88128854E+00  5.44249258E-01
  1.68714478E-01  4.38000000E-02  1.87311370E+01  2.82539436E+00  6.40121692E-01
  1.61277759E-01  1.87311370E+01  2.82539436E+00  6.40121692E-01  1.61277759E-01
  7.00171309E+03  1.05136609E+03  2.39285690E+02  6.73974453E+01  2.15199573E+01
  7.40310130E+00  2.08479528E+01  4.80830834E+00  1.34406986E+00  3.58151393E-01
  1.07600000E-01  7.00171309E+03  1.05136609E+03  2.39285690E+02  6.73974453E+01
  2.15199573E+01  7.40310130E+00  2.08479528E+01  4.80830834E+00  1.34406986E+00
  3.58151393E-01  1.07600000E-01  7.00171309E+03  1.05136609E+03  2.39285690E+02
  6.73974453E+01  2.15199573E+01  7.40310130E+00  2.08479528E+01  4.80830834E+00
  1.34406986E+00  3.58151393E-01  1.07600000E-01
Contraction coefficients                   R   N=         108
  1.83473713E-03  1.40373228E-02  6.88426223E-02  2.32184443E-01  4.67941348E-01
  3.62311985E-01 -1.19332420E-01 -1.60854152E-01  1.14345644E+00  1.00000000E+00
  1.00000000E+00  1.83473713E-03  1.40373228E-02  6.88426223E-02  2.32184443E-01
  4.67941348E-01  3.62311985E-01 -1.19332420E-01 -1.60854152E-01  1.14345644E+00
  1.00000000E+00  1.00000000E+00  3.34946043E-02  2.34726953E-01  8.13757326E-01
  1.00000000E+00  3.34946043E-02  2.34726953E-01  8.13757326E-01  1.00000000E+00
  3.34946043E-02  2.34726953E-01  8.13757326E-01  1.00000000E+00  1.83473713E-03
  1.40373228E-02  6.88426223E-02  2.32184443E-01  4.67941348E-01  3.62311985E-01
 -1.19332420E-01 -1.60854152E-01  1.14345644E+00  1.00000000E+00  1.00000000E+00
  1.83107443E-03  1.39501722E-02  6.84450781E-02  2.32714336E-01  4.70192898E-01
  3.58520853E-01 -1.10777550E-01 -1.48026263E-01  1.13076702E+00  1.00000000E+00
  1.00000000E+00  1.83473713E-03  1.40373228E-02  6.88426223E-02  2.32184443E-01
  4.67941348E-01  3.62311985E-01 -1.19332420E-01 -1.60854152E-01  1.14345644E+00
  1.00000000E+00  1.00000000E+00  3.34946043E-02  2.34726953E-01  8.13757326E-01
  1.00000000E+00  3.34946043E-02  2.34726953E-01  8.13757326E-01  1.00000000E+00
  1.81961690E-03  1.39160796E-02  6.84053245E-02  2.33185760E-01  4.71267439E-01
  3.56618546E-01 -1.08506975E-01 -1.46451658E-01  1.12868858E+00  1.00000000E+00
  1.00000000E+00  1.81961690E-03  1.39160796E-02  6.84053245E-02  2.33185760E-01
  4.71267439E-01  3.56618546E-01 -1.08506975E-01 -1.46451658E-01  1.12868858E+00
  1.00000000E+00  1.00000000E+00  1.81961690E-03  1.39160796E-02  6.84053245E-02
  2.33185760E-01  4.71267439E-01  3.56618546E-01 -1.08506975E-01 -1.46451658E-01
  1.12868858E+00  1.00000000E+00  1.00000000E+00
P(S=P) Contraction coefficients            R   N=         108
  0.00000000E+00  0.00000000E+00  0.00000000E+00  0.00000000E+00  0.00000000E+00
  0.00000000E+00  6.89990666E-02  3.16423961E-01  7.44308291E-01  1.00000000E+00
  1.00000000E+00  0.00000000E+00  0.00000000E+00  0.00000000E+00  0.00000000E+00
  0.00000000E+00  0.00000000E+00  6.89990666E-02  3.16423961E-01  7.44308291E-01
  1.00000000E+00  1.00000000E+00  0.00000000E+00  0.00000000E+00  0.00000000E+00
  0.00000000E+00  0.00000000E+00  0.00000000E+00  0.00000000E+00  0.00000000E+00
  0.00000000E+00  0.00000000E+00  0.00000000E+00  0.00000000E+00  0.00000000E+00
  0.00000000E+00  0.00000000E+00  0.00000000E+00  0.00000000E+00  0.00000000E+00
  6.89990666E-02  3.16423961E-01  7.44308291E-01  1.00000000E+00  1.00000000E+00
  0.00000000E+00  0.00000000E+00  0.00000000E+00  0.00000000E+00  0.00000000E+00
  0.00000000E+00  7.08742682E-02  3.39752839E-01  7.27158577E-01  1.00000000E+00
  1.00000000E+00  0.00000000E+00  0.00000000E+00  0.00000000E+00  0.00000000E+00
  0.00000000E+00  0.00000000E+00  6.89990666E-02  3.16423961E-01  7.44308291E-01
  1.00000000E+00  1.00000000E+00  0.00000000E+00  0.00000000E+00  0.00000000E+00
  0.00000000E+00  0.00000000E+00  0.00000000E+00  0.00000000E+00  0.00000000E+00
  0.00000000E+00  0.00000000E+00  0.00000000E+00  0.00000000E+00  0.00000000E+00
  0.00000000E+00  7.16287242E-02  3.45912103E-01  7.22469956E-01  1.00000000E+00
  1.00000000E+00  0.00000000E+00  0.00000000E+00  0.00000000E+00  0.00000000E+00
  0.00000000E+00  0.00000000E+00  7.16287242E-02  3.45912103E-01  7.22469956E-01
  1.00000000E+00  1.00000000E+00  0.00000000E+00  0.00000000E+00  0.00000000E+00
  0.00000000E+00  0.00000000E+00  0.00000000E+00  7.16287242E-02  3.45912103E-01
  7.22469956E-01  1.00000000E+00  1.00000000E+00
Coordinates of each shell                  R   N=         126
 -3.28618854E+00  2.37779866E+00 -6.41178762E-02 -3.28618854E+00  2.37779866E+00
 -6.41178762E-02 -3.28618854E+00  2.37779866E+00 -6.41178762E-02 -3.28618854E+00
  2.37779866E+00 -6.41178762E-02 -2.89480320E+00 -4.28900021E-01 -1.80472094E-01
 -2.89480320E+00 -4.28900021E-01 -1.80472094E-01 -2.89480320E+00 -4.28900021E-01
 -1.80472094E-01 -2.89480320E+00 -4.28900021E-01 -1.80472094E-01 -2.15547858E+00
  3.20769283E+00  1.45878218E+00 -2.15547858E+00  3.20769283E+00  1.45878218E+00
 -5.27923172E+00  2.76708953E+00  2.84831393E-01 -5.27923172E+00  2.76708953E+00
  2.84831393E-01 -2.68731556E+00  3.28218954E+00 -1.82579428E+00 -2.68731556E+00
  3.28218954E+00 -1.82579428E+00 -3.28864879E-01 -1.48602381E+00 -9.87672391E-01
 -3.28864879E-01 -1.48602381E+00 -9.87672391E-01 -3.28864879E-01 -1.48602381E+00
 -9.87672391E-01 -3.28864879E-01 -1.48602381E+00 -9.87672391E-01 -4.61170989E+00
 -1.94697962E+00  2.52596444E-01 -4.61170989E+00 -1.94697962E+00  2.52596444E-01
 -4.61170989E+00 -1.94697962E+00  2.52596444E-01 -4.61170989E+00 -1.94697962E+00
  2.52596444E-01  1.95832906E+00 -1.25707916E-01 -8.35961693E-03  1.95832906E+00
 -1.25707916E-01 -8.35961693E-03  1.95832906E+00 -1.25707916E-01 -8.35961693E-03
  1.95832906E+00 -1.25707916E-01 -8.35961693E-03 -2.26005198E-01 -1.46983262E+00
 -3.05691117E+00 -2.26005198E-01 -1.46983262E+00 -3.05691117E+00 -2.30426886E-01
 -3.45117834E+00 -3.65115344E-01 -2.30426886E-01 -3.45117834E+00 -3.65115344E-01
  2.26363288E+00  2.27219963E+00 -1.06003567E+00  2.26363288E+00  2.27219963E+00
 -1.06003567E+00  2.26363288E+00  2.27219963E+00 -1.06003567E+00  2.26363288E+00
  2.27219963E+00 -1.06003567E+00  4.15812730E+00 -1.45460083E+00 -5.49038609E-01
  4.15812730E+00 -1.45460083E+00 -5.49038609E-01  4.15812730E+00 -1.45460083E+00
 -5.49038609E-01  4.15812730E+00 -1.45460083E+00 -5.49038609E-01  1.88727342E+00
  2.06498369E-01  2.60098179E+00  1.88727342E+00  2.06498369E-01  2.60098179E+00
  1.88727342E+00  2.06498369E-01  2.60098179E+00  1.88727342E+00  2.06498369E-01
  2.60098179E+00
Constraint Structure                       R   N=          39
 -3.28618854E+00  2.37779866E+00 -6.41178762E-02 -2.89480320E+00 -4.28900021E-01
 -1.80472094E-01 -2.15547858E+00  3.20769283E+00  1.45878218E+00 -5.27923172E+00
  2.76708953E+00  2.84831393E-01 -2.68731556E+00  3.28218954E+00 -1.82579428E+00
 -3.28864879E-01 -1.48602381E+00 -9.87672391E-01 -4.61170989E+00 -1.94697962E+00
  2.52596444E-01  1.95832906E+00 -1.25707916E-01 -8.35961693E-03 -2.26005198E-01
 -1.46983262E+00 -3.05691117E+00 -2.30426886E-01 -3.45117834E+00 -3.65115344E-01
  2.26363288E+00  2.27219963E+00 -1.06003567E+00  4.15812730E+00 -1.45460083E+00
 -5.49038609E-01  1.88727342E+00  2.06498369E-01  2.60098179E+00
Num ILSW                                   I              100
ILSW                                       I   N=         100
           0           1           0           0           2           0
           0           0           0           0        4639          -1
           0           0           0           0           2           0
           0           0           0           0           1           0
           1           0           0           0           0           0
           0           0      100000           0          -1           0
           0           0           0           0           0           0
           0           0           0           1           0           0
           0           0           1           0           0           0
           0           0         121          41           0           0
           0           0          58           0           0           0
           0           0           0          13           0           0
           0           0           0           0           0           0
           0           0           0           0           0           0
           0           0           0           0           0           0
           0           0           0           0           0           0
           0           0           0           0
Num RLSW                                   I               41
RLSW                                       R   N=          41
  1.00000000E+00  1.00000000E+00  1.00000000E+00  1.00000000E+00  1.00000000E+00
  0.00000000E+00  2.00000000E-01  2.22036000E-01  0.00000000E+00  7.77964000E-01
  0.00000000E+00  2.00000000E-01  0.00000000E+00  0.00000000E+00  1.00000000E+00
  0.00000000E+00  0.00000000E+00  1.00000000E+00  0.00000000E+00  0.00000000E+00
  0.00000000E+00  0.00000000E+00  1.00000000E+00  0.00000000E+00  0.00000000E+00
  0.00000000E+00  0.00000000E+00  1.00000000E+00  0.00000000E+00  0.00000000E+00
  0.00000000E+00  0.00000000E+00  1.00000000E+00  0.00000000E+00  0.00000000E+00
  0.00000000E+00  0.00000000E+00  0.00000000E+00  1.00000000E+00  1.00000000E+00
  0.00000000E+00
MxBond                                     I                4
NBond                                      I   N=          13
           4           3           1           1           1           4
           1           4           1           1           1           1
           1
IBond                                      I   N=          52
           2           3           4           5           1           6
           7           0           1           0           0           0
           1           0           0           0           1           0
           0           0           2           8           9          10
           2           0           0           0           6          11
          12          13           6           0           0           0
           6           0           0           0           8           0
           0           0           8           0           0           0
           8           0           0           0
RBond                                      R   N=          52
  1.00000000E+00  1.00000000E+00  1.00000000E+00  1.00000000E+00  1.00000000E+00
  1.00000000E+00  2.00000000E+00  0.00000000E+00  1.00000000E+00  0.00000000E+00
  0.00000000E+00  0.00000000E+00  1.00000000E+00  0.00000000E+00  0.00000000E+00
  0.00000000E+00  1.00000000E+00  0.00000000E+00  0.00000000E+00  0.00000000E+00
  1.00000000E+00  1.00000000E+00  1.00000000E+00  1.00000000E+00  2.00000000E+00
  0.00000000E+00  0.00000000E+00  0.00000000E+00  1.00000000E+00  1.00000000E+00
  1.00000000E+00  1.00000000E+00  1.00000000E+00  0.00000000E+00  0.00000000E+00
  0.00000000E+00  1.00000000E+00  0.00000000E+00  0.00000000E+00  0.00000000E+00
  1.00000000E+00  0.00000000E+00  0.00000000E+00  0.00000000E+00  1.00000000E+00
  0.00000000E+00  0.00000000E+00  0.00000000E+00  1.00000000E+00  0.00000000E+00
  0.00000000E+00  0.00000000E+00
Virial Ratio                               R      2.005191283199440E+00
SCF Energy                                 R     -5.299278780717732E+02
Total Energy                               R     -5.299278780717732E+02
RMS Force                                  R      5.932261474910273E-05
RMS Density                                R      4.431040638681207E-09
External E-field                           R   N=          35
  0.00000000E+00  0.00000000E+00  0.00000000E+00  0.00000000E+00  0.00000000E+00
  0.00000000E+00  0.00000000E+00  0.00000000E+00  0.00000000E+00  0.00000000E+00
  0.00000000E+00  0.00000000E+00  0.00000000E+00  0.00000000E+00  0.00000000E+00
  0.00000000E+00  0.00000000E+00  0.00000000E+00  0.00000000E+00  0.00000000E+00
  0.00000000E+00  0.00000000E+00  0.00000000E+00  0.00000000E+00  0.00000000E+00
  0.00000000E+00  0.00000000E+00  0.00000000E+00  0.00000000E+00  0.00000000E+00
  0.00000000E+00  0.00000000E+00  0.00000000E+00  0.00000000E+00  0.00000000E+00
IOpCl                                      I                0
IROHF                                      I                0
Alpha Orbital Energies                     R   N=         114
 -2.48923244E+01 -2.48923009E+01 -2.48909952E+01 -1.93032986E+01 -1.05957215E+01
 -1.04393622E+01 -1.03638996E+01 -1.03208049E+01 -1.44029840E+00 -1.35544862E+00
 -1.35480562E+00 -1.19498936E+00 -9.53069090E-01 -8.72645941E-01 -8.01904072E-01
 -7.10935560E-01 -7.03991735E-01 -6.92688817E-01 -6.42760999E-01 -5.97453860E-01
 -5.84930574E-01 -5.76858225E-01 -5.69751005E-01 -5.53145491E-01 -5.42613110E-01
 -5.37551027E-01 -5.27122699E-01 -5.20863570E-01 -5.04915322E-01 -4.96210862E-01
 -4.62471708E-01 -3.69950656E-01  1.29232466E-02  6.20900356E-02  8.07092816E-02
  9.33779819E-02  1.01174235E-01  1.07122581E-01  1.11688343E-01  1.19174566E-01
  1.27598117E-01  1.34458736E-01  1.36432735E-01  1.58790717E-01  1.67686646E-01
  1.71692404E-01  1.77536888E-01  1.79121409E-01  1.83803896E-01  1.95898464E-01
  2.10856037E-01  2.19945709E-01  2.58689396E-01  2.65490882E-01  2.79218668E-01
  2.90021111E-01  3.12614972E-01  3.34595458E-01  3.43583429E-01  3.46882109E-01
  3.63515831E-01  3.72304174E-01  3.83512693E-01  3.88820528E-01  3.94954622E-01
  4.09254480E-01  4.12939357E-01  4.30155361E-01  4.33556565E-01  4.40946741E-01
  4.48935806E-01  4.52769926E-01  4.58780815E-01  4.94714962E-01  5.12899570E-01
  5.26341531E-01  5.37227818E-01  7.10434394E-01  7.34463914E-01  7.55600154E-01
  7.70448834E-01  8.07058683E-01  8.31391236E-01  8.49448734E-01  8.71312847E-01
  9.05788485E-01  9.45388350E-01  9.62337952E-01  1.04239905E+00  1.10358173E+00
  1.15411716E+00  1.16806550E+00  1.21534893E+00  1.22298996E+00  1.23644668E+00
  1.34918194E+00  1.39829886E+00  1.44108646E+00  1.46557729E+00  1.51244244E+00
  1.56253049E+00  1.59427827E+00  1.64427401E+00  1.67543579E+00  1.69229699E+00
  1.73385084E+00  1.80075046E+00  1.82222052E+00  1.83654324E+00  1.85046821E+00
  1.98350993E+00  2.29801778E+00  2.33237703E+00  2.66608044E+00
Alpha MO coefficients                      R   N=       12996
  1.89372535E-05  2.40198714E-04  1.83329038E-04 -4.40604649E-05  1.39813925E-05
  3.44091384E-04 -7.93315507E-04  6.02638391E-05  1.44366847E-04  1.20987500E-02
  1.62379581E-03 -2.50062346E-03  4.95984224E-04  3.46605556E-06  1.95071545E-04
  1.54674923E-04  6.89560602E-05  2.89453261E-05  1.54783440E-03  2.23265459E-04
 -8.74225942E-04 -2.48632113E-04 -5.13066489E-03  2.13555096E-04 -5.22789913E-03
 -1.06359380E-03  2.11397687E-04 -5.52183170E-04 -3.79744256E-05 -7.45133902E-04
  9.73644464E-05 -8.21392609E-05  1.08178409E-04  5.37760108E-04 -2.66104469E-04
 -1.89262562E-04 -9.10079511E-05 -3.74449741E-03 -1.86654033E-04 -9.23891433E-04
 -1.13797552E-03  1.83401018E-02  7.25778496E-03  3.49371081E-03  1.59752241E-03
  4.91294967E-06  5.30311033E-05  1.19345571E-05  2.98120319E-05 -3.03461857E-05
 -4.34706077E-04 -2.72325114E-04 -1.89846144E-04  1.77379115E-04 -7.42587896E-04
  1.82248959E-04  3.10764690E-04  1.50235136E-04 -2.51989472E-04 -1.13301162E-03
  2.14104118E-04  5.51050385E-04  3.58017587E-04  9.28742858E-03  4.48878524E-04
  1.19616332E-03  1.31191376E-03 -3.00992281E-02  7.40311211E-03  1.93233071E-03
  2.34752067E-03  1.04411702E-04  1.71478356E-04  1.64904965E-04  5.84560070E-04
  6.63399395E-01  1.89392117E-02 -1.47602011E-04 -8.76598097E-04  4.00423133E-04
 -1.22701941E-02  3.75761156E-04  2.12268653E-03 -1.29972035E-03  7.25168053E-03
 -6.34651125E-04 -1.44106811E-03 -3.47969629E-05  7.53988946E-03  6.16362417E-04
 -4.19357694E-05  3.91519536E-05  2.77877330E-05 -1.83116508E-03  8.73820883E-04
 -8.49900019E-04 -4.70201528E-04 -1.35637283E-03  3.74226961E-04 -8.85685063E-04
 -5.29148212E-04  7.41623319E-01  2.11076872E-02 -1.53376636E-05 -1.19897121E-04
 -1.09305405E-03 -1.34904955E-02  2.22767902E-05  6.42088913E-05  2.74094632E-03
  7.34472706E-03 -7.52656804E-04 -7.28292555E-04 -1.12148529E-03  5.23371938E-05
  4.20029181E-04  7.05932655E-05  8.32989058E-05 -3.30895560E-05 -2.68400835E-03
 -1.19250363E-03  8.03550870E-04  2.26002114E-04 -7.41613199E-03 -1.20249987E-03
  1.75748940E-03 -1.14551449E-04 -3.39321192E-05 -3.24155602E-04 -5.34382037E-05
 -7.59585532E-05 -2.77877756E-05  1.37972800E-03  8.74711811E-04  2.13634410E-03
 -2.42096952E-04  1.45382578E-02  2.91310439E-03  1.74537920E-03 -3.90148221E-05
  9.26980635E-05  6.45389797E-04 -6.98056775E-06 -3.39763874E-04  1.99115434E-04
  1.08700128E-04  2.06691525E-05  1.24366310E-04  5.58948411E-05  7.67726264E-05
 -1.02285983E-04 -1.06375371E-03 -6.52371495E-04 -2.12066550E-03  1.64350386E-03
 -9.03116753E-03  8.31522744E-04 -1.49444469E-03 -9.89910248E-04 -5.98715241E-06
 -5.02709093E-05  1.00034173E-05  9.99961881E-06 -1.85405616E-06  7.99880901E-04
  2.04239049E-04 -4.65447037E-06 -3.91585741E-05 -3.84474248E-04 -3.87563798E-04
 -1.79553406E-05 -1.20177374E-04 -2.41978946E-05 -9.88030507E-05  5.72785040E-05
  4.42524502E-04 -7.06282065E-04  1.27521934E-03 -2.41711471E-05  4.98363913E-04
 -1.44943921E-03  2.37579065E-03 -5.79002954E-04 -3.63398854E-04  5.93272922E-04
  3.31900359E-04  3.82227758E-04 -2.92102695E-04 -6.86729805E-04  7.41598635E-01
  2.06207733E-02 -1.55654148E-04 -9.48958582E-04  4.08940926E-04 -1.15249454E-02
  2.99519606E-04  1.46821905E-03 -4.12048115E-04  8.41063353E-03 -8.73570808E-04
 -2.25234427E-03  1.73384714E-03  2.00587259E-03  1.21629574E-04 -1.23843247E-05
  1.42844383E-05 -1.94884431E-05 -3.15487035E-04  1.08394625E-04 -2.81438980E-04
  3.56871784E-04 -9.17754726E-05 -9.56494075E-05 -4.50451713E-04  7.42240347E-04
 -6.63389762E-01 -1.83848671E-02 -5.55984982E-06  1.20807999E-04  9.23393240E-04
  1.00700362E-02 -4.46703491E-05 -3.74850389E-04 -1.14927930E-03 -8.07096412E-03
  2.20347236E-04 -3.60903258E-04  2.70994194E-03  7.77806236E-06  3.16787280E-05
 -3.65046009E-05  4.05710587E-05  3.14421834E-05 -1.00004853E-03 -2.06410122E-04
  3.86700008E-04 -2.97377267E-04  8.28533566E-04 -6.53783778E-04 -2.60398771E-04
  1.43986626E-05 -5.39408073E-06 -1.14829403E-04 -8.44318610E-05 -5.96399367E-05
 -4.65845475E-05 -1.04289089E-03  5.70041298E-04  1.70261612E-03  4.52941132E-04
 -6.02591206E-04  1.11623023E-03 -1.28298061E-03 -3.87733041E-04  5.70035035E-07
  4.72201557E-04  1.40870643E-05  2.66043703E-05  2.32530368E-05 -1.96981444E-04
  6.36221957E-05  2.39389821E-04 -8.63534419E-05 -5.68902509E-05 -8.38324988E-05
 -2.09443454E-03 -2.75649890E-03 -4.23915479E-04  1.01954492E-04  1.17534629E-02
  2.76676722E-03  1.85414366E-03  1.40008696E-03 -9.27755505E-06 -1.19225297E-04
 -9.83716607E-06 -9.81087349E-06  2.12471215E-05  9.75944686E-04  3.11955420E-04
  1.64140115E-04 -2.27683991E-04  2.25199701E-04 -2.96957275E-04  3.14547860E-04
  3.17213131E-05 -2.05101874E-04 -1.03127310E-03  6.15090441E-04 -3.38092993E-04
 -1.06264386E-04  8.91404600E-03  1.85108551E-03 -7.45800519E-04 -5.58091760E-04
 -1.39102790E-02  1.92583647E-03  2.82245573E-03  1.40258428E-03  2.82762031E-04
 -2.82365311E-04  1.96331607E-04 -5.45435285E-04 -6.47240169E-03  1.43253169E-04
  2.45891907E-05 -2.76294377E-05 -1.03498828E-05 -1.31731881E-03 -3.11681186E-04
  9.72696286E-04 -1.92875753E-04 -1.74556440E-03 -6.14294974E-04  1.14362573E-03
 -1.65496105E-04  9.95009510E-01  2.79281042E-02 -1.23811918E-03  7.42763596E-04
  2.93408373E-04 -1.65622216E-02  2.52273417E-03 -1.58740947E-03 -6.16781572E-04
  8.80864552E-03 -1.87929104E-03  1.04162744E-03  4.84492716E-04 -4.24008577E-03
  1.36178508E-04  3.53413624E-05 -2.49378403E-05 -2.07684166E-05 -9.96117511E-04
 -4.89406519E-04  3.40257419E-04  8.27335117E-04 -2.02665725E-03 -3.96727956E-04
  4.10541840E-04  1.17844551E-03 -3.11328359E-05 -4.45420417E-04  3.49353824E-05
  1.06503140E-04 -8.99209616E-06  3.47929429E-03  2.32169767E-03 -1.04284189E-03
 -5.92095008E-04  1.41050209E-02  3.15610681E-04 -3.59023555E-03 -1.72563574E-04
  2.27693273E-04  3.95004156E-04  7.14971475E-05  1.63934763E-04  1.77294562E-05
  7.66636252E-03 -6.37788482E-03 -8.33947731E-03  1.63709865E-03 -2.79136158E-02
 -6.63468672E-04 -2.22301075E-03  5.06717644E-04 -9.34001766E-05 -5.28147286E-04
  1.09053065E-04  3.36341973E-04 -1.66599024E-04 -5.38850814E-04 -1.16017540E-05
 -3.41974956E-04  6.74496935E-05 -1.35090246E-04  7.90542698E-05  8.51175443E-04
  1.98064803E-03  2.89606272E-03 -1.47323887E-03  6.77006603E-03 -2.95238468E-03
  1.31428121E-03 -8.33941533E-04  9.95245356E-01  2.98549094E-02  1.69670503E-03
  1.43109117E-03 -4.31071721E-04 -2.40365938E-02 -4.67646947E-03 -3.64329306E-03
  1.14109926E-03  7.97730624E-03  8.09054496E-04  4.71994375E-04 -3.44280940E-05
 -2.53180179E-05 -2.95121470E-04  2.01487234E-04 -1.55467963E-05 -9.37088347E-05
 -4.80980797E-04 -9.12302875E-04  9.66157788E-04  2.42776240E-03  3.04718340E-03
 -8.23115407E-04 -1.03058532E-03  7.46776893E-04 -9.74356539E-05 -1.09784751E-03
  1.71587517E-04  1.20985891E-03 -9.21521231E-07  6.63182477E-06 -2.82692738E-05
 -4.98860717E-06  3.69949727E-05  1.00974667E-04  1.57218600E-04 -3.30965727E-05
 -2.44587140E-04 -2.81295519E-04  4.36419736E-04 -9.83665508E-05 -2.91600452E-05
 -4.97017305E-06 -1.03622980E-04  3.03870227E-05 -3.09156139E-05  2.30693881E-05
  5.29282681E-04 -2.86261255E-04  2.13650623E-04 -1.47814021E-04  9.54478958E-04
 -2.98545124E-04  2.30469666E-04  5.99244904E-05  5.52906649E-06  6.55828367E-05
  1.54648183E-05  1.78127843E-05 -3.17513531E-05 -5.37258837E-04  1.01892378E-05
 -7.92372458E-05  3.79331237E-04 -1.58681415E-03 -3.89896891E-04  1.32196437E-04