 Entering Gaussian System, Link 0=/opt/cluster/programs/g09_d.01/g09//g09
 Input=/home/unibas/boittier/RDKit_G2/N.pdb/SCAN_1_2_6_8_S_17_20.0/16_SCAN_1_2_6_8_F/16_SCAN_N.pdb.com
 Output=/scratch/boittier/16_SCAN_N.pdb/16_SCAN_N.pdb.out
 Initial command:
 /opt/cluster/programs/g09_d.01/g09/l1.exe "/scratch/boittier/16_SCAN_N.pdb/Gau-152142.inp" -scrdir="/scratch/boittier/16_SCAN_N.pdb/"
 Entering Link 1 = /opt/cluster/programs/g09_d.01/g09/l1.exe PID=    152144.
  
 Copyright (c) 1988,1990,1992,1993,1995,1998,2003,2009,2013,
            Gaussian, Inc.  All Rights Reserved.
  
 This is part of the Gaussian(R) 09 program.  It is based on
 the Gaussian(R) 03 system (copyright 2003, Gaussian, Inc.),
 the Gaussian(R) 98 system (copyright 1998, Gaussian, Inc.),
 the Gaussian(R) 94 system (copyright 1995, Gaussian, Inc.),
 the Gaussian 92(TM) system (copyright 1992, Gaussian, Inc.),
 the Gaussian 90(TM) system (copyright 1990, Gaussian, Inc.),
 the Gaussian 88(TM) system (copyright 1988, Gaussian, Inc.),
 the Gaussian 86(TM) system (copyright 1986, Carnegie Mellon
 University), and the Gaussian 82(TM) system (copyright 1983,
 Carnegie Mellon University). Gaussian is a federally registered
 trademark of Gaussian, Inc.
  
 This software contains proprietary and confidential information,
 including trade secrets, belonging to Gaussian, Inc.
  
 This software is provided under written license and may be
 used, copied, transmitted, or stored only in accord with that
 written license.
  
 The following legend is applicable only to US Government
 contracts under FAR:
  
                    RESTRICTED RIGHTS LEGEND
  
 Use, reproduction and disclosure by the US Government is
 subject to restrictions as set forth in subparagraphs (a)
 and (c) of the Commercial Computer Software - Restricted
 Rights clause in FAR 52.227-19.
  
 Gaussian, Inc.
 340 Quinnipiac St., Bldg. 40, Wallingford CT 06492
  
  
 ---------------------------------------------------------------
 Warning -- This program may not be used in any manner that
 competes with the business of Gaussian, Inc. or will provide
 assistance to any competitor of Gaussian, Inc.  The licensee
 of this program is prohibited from giving any competitor of
 Gaussian, Inc. access to this program.  By using this program,
 the user acknowledges that Gaussian, Inc. is engaged in the
 business of creating and licensing software in the field of
 computational chemistry and represents and warrants to the
 licensee that it is not a competitor of Gaussian, Inc. and that
 it will not use this program in any manner prohibited above.
 ---------------------------------------------------------------
  

 Cite this work as:
 Gaussian 09, Revision D.01,
 M. J. Frisch, G. W. Trucks, H. B. Schlegel, G. E. Scuseria, 
 M. A. Robb, J. R. Cheeseman, G. Scalmani, V. Barone, B. Mennucci, 
 G. A. Petersson, H. Nakatsuji, M. Caricato, X. Li, H. P. Hratchian, 
 A. F. Izmaylov, J. Bloino, G. Zheng, J. L. Sonnenberg, M. Hada, 
 M. Ehara, K. Toyota, R. Fukuda, J. Hasegawa, M. Ishida, T. Nakajima, 
 Y. Honda, O. Kitao, H. Nakai, T. Vreven, J. A. Montgomery, Jr., 
 J. E. Peralta, F. Ogliaro, M. Bearpark, J. J. Heyd, E. Brothers, 
 K. N. Kudin, V. N. Staroverov, T. Keith, R. Kobayashi, J. Normand, 
 K. Raghavachari, A. Rendell, J. C. Burant, S. S. Iyengar, J. Tomasi, 
 M. Cossi, N. Rega, J. M. Millam, M. Klene, J. E. Knox, J. B. Cross, 
 V. Bakken, C. Adamo, J. Jaramillo, R. Gomperts, R. E. Stratmann, 
 O. Yazyev, A. J. Austin, R. Cammi, C. Pomelli, J. W. Ochterski, 
 R. L. Martin, K. Morokuma, V. G. Zakrzewski, G. A. Voth, 
 P. Salvador, J. J. Dannenberg, S. Dapprich, A. D. Daniels, 
 O. Farkas, J. B. Foresman, J. V. Ortiz, J. Cioslowski, 
 and D. J. Fox, Gaussian, Inc., Wallingford CT, 2013.
 
 ******************************************
 Gaussian 09:  ES64L-G09RevD.01 24-Apr-2013
                26-May-2021 
 ******************************************
 %chk=/home/unibas/boittier/RDKit_G2/N.pdb/SCAN_1_2_6_8_S_17_20.0/16_SCAN_1_2_6_8
 _F/N.pdb.chk
 %nproc=8
 Will use up to    8 processors via shared memory.
 %mem=16GB
 -----------------------------
 #p wB97XD/6-31+G Opt=ModRedun
 -----------------------------
 1/14=-1,18=120,19=15,26=3,38=1/1,3;
 2/9=110,12=2,17=6,18=5,40=1/2;
 3/5=1,6=6,7=10,11=2,16=1,25=1,30=1,71=1,74=-58/1,2,3;
 4//1;
 5/5=2,38=5/2;
 6/7=2,8=2,9=2,10=2,28=1/1;
 7//1,2,3,16;
 1/14=-1,18=20,19=15,26=3/3(2);
 2/9=110/2;
 99//99;
 2/9=110/2;
 3/5=1,6=6,7=10,11=2,16=1,25=1,30=1,71=1,74=-58/1,2,3;
 4/5=5,16=3,69=1/1;
 5/5=2,38=5/2;
 7//1,2,3,16;
 1/14=-1,18=20,19=15,26=3/3(-5);
 2/9=110/2;
 6/7=2,8=2,9=2,10=2,19=2,28=1/1;
 99/9=1/99;
 Leave Link    1 at Wed May 26 09:20:48 2021, MaxMem=  2147483648 cpu:         0.3
 (Enter /opt/cluster/programs/g09_d.01/g09/l101.exe)
 -----
 N.pdb
 -----
 Symbolic Z-matrix:
 Charge =  0 Multiplicity = 1
 C                     1.73898   1.25828   0.03393 
 C                     1.53186  -0.22696   0.0955 
 H                     1.14063   1.69744  -0.77195 
 H                     2.79365   1.46428  -0.15073 
 H                     1.42207   1.73686   0.96617 
 C                     0.17403  -0.78637   0.52265 
 O                     2.44041  -1.0303   -0.13367 
 C                    -1.0363   -0.06652   0.00442 
 H                     0.1196   -0.7778    1.61765 
 H                     0.12194  -1.82629   0.19321 
 F                    -1.19786   1.2024    0.56095 
 F                    -2.20039  -0.76974   0.29054 
 F                    -0.9987    0.10927  -1.37638 
 
 The following ModRedundant input section has been read:
 D       1       2       6       8 F                                           
 
 NAtoms=     13 NQM=       13 NQMF=       0 NMMI=      0 NMMIF=      0
                NMic=       0 NMicF=      0.
                    Isotopes and Nuclear Properties:
 (Nuclear quadrupole moments (NQMom) in fm**2, nuclear magnetic moments (NMagM)
  in nuclear magnetons)

  Atom         1           2           3           4           5           6           7           8           9          10
 IAtWgt=          12          12           1           1           1          12          16          12           1           1
 AtmWgt=  12.0000000  12.0000000   1.0078250   1.0078250   1.0078250  12.0000000  15.9949146  12.0000000   1.0078250   1.0078250
 NucSpn=           0           0           1           1           1           0           0           0           1           1
 AtZEff=   0.0000000   0.0000000   0.0000000   0.0000000   0.0000000   0.0000000   0.0000000   0.0000000   0.0000000   0.0000000
 NQMom=    0.0000000   0.0000000   0.0000000   0.0000000   0.0000000   0.0000000   0.0000000   0.0000000   0.0000000   0.0000000
 NMagM=    0.0000000   0.0000000   2.7928460   2.7928460   2.7928460   0.0000000   0.0000000   0.0000000   2.7928460   2.7928460
 AtZNuc=   6.0000000   6.0000000   1.0000000   1.0000000   1.0000000   6.0000000   8.0000000   6.0000000   1.0000000   1.0000000

  Atom        11          12          13
 IAtWgt=          19          19          19
 AtmWgt=  18.9984033  18.9984033  18.9984033
 NucSpn=           1           1           1
 AtZEff=   0.0000000   0.0000000   0.0000000
 NQMom=    0.0000000   0.0000000   0.0000000
 NMagM=    2.6288670   2.6288670   2.6288670
 AtZNuc=   9.0000000   9.0000000   9.0000000
 Leave Link  101 at Wed May 26 09:20:48 2021, MaxMem=  2147483648 cpu:         4.2
 (Enter /opt/cluster/programs/g09_d.01/g09/l103.exe)

 GradGradGradGradGradGradGradGradGradGradGradGradGradGradGradGradGradGrad
 Berny optimization.
 Initialization pass.
                           ----------------------------
                           !    Initial Parameters    !
                           ! (Angstroms and Degrees)  !
 --------------------------                            --------------------------
 ! Name  Definition              Value          Derivative Info.                !
 --------------------------------------------------------------------------------
 ! R1    R(1,2)                  1.5009         estimate D2E/DX2                !
 ! R2    R(1,3)                  1.0956         estimate D2E/DX2                !
 ! R3    R(1,4)                  1.0904         estimate D2E/DX2                !
 ! R4    R(1,5)                  1.0948         estimate D2E/DX2                !
 ! R5    R(2,6)                  1.5294         estimate D2E/DX2                !
 ! R6    R(2,7)                  1.2342         estimate D2E/DX2                !
 ! R7    R(6,8)                  1.5005         estimate D2E/DX2                !
 ! R8    R(6,9)                  1.0964         estimate D2E/DX2                !
 ! R9    R(6,10)                 1.0921         estimate D2E/DX2                !
 ! R10   R(8,11)                 1.395          estimate D2E/DX2                !
 ! R11   R(8,12)                 1.3898         estimate D2E/DX2                !
 ! R12   R(8,13)                 1.3925         estimate D2E/DX2                !
 ! A1    A(2,1,3)              110.5778         estimate D2E/DX2                !
 ! A2    A(2,1,4)              109.1105         estimate D2E/DX2                !
 ! A3    A(2,1,5)              110.9601         estimate D2E/DX2                !
 ! A4    A(3,1,4)              109.1451         estimate D2E/DX2                !
 ! A5    A(3,1,5)              107.0399         estimate D2E/DX2                !
 ! A6    A(4,1,5)              109.9756         estimate D2E/DX2                !
 ! A7    A(1,2,6)              119.7308         estimate D2E/DX2                !
 ! A8    A(1,2,7)              122.3371         estimate D2E/DX2                !
 ! A9    A(6,2,7)              117.8613         estimate D2E/DX2                !
 ! A10   A(2,6,8)              116.371          estimate D2E/DX2                !
 ! A11   A(2,6,9)              108.6724         estimate D2E/DX2                !
 ! A12   A(2,6,10)             107.8415         estimate D2E/DX2                !
 ! A13   A(8,6,9)              107.5255         estimate D2E/DX2                !
 ! A14   A(8,6,10)             108.3094         estimate D2E/DX2                !
 ! A15   A(9,6,10)             107.8396         estimate D2E/DX2                !
 ! A16   A(6,8,11)             113.0794         estimate D2E/DX2                !
 ! A17   A(6,8,12)             111.2089         estimate D2E/DX2                !
 ! A18   A(6,8,13)             112.4114         estimate D2E/DX2                !
 ! A19   A(11,8,12)            106.3277         estimate D2E/DX2                !
 ! A20   A(11,8,13)            106.4928         estimate D2E/DX2                !
 ! A21   A(12,8,13)            106.8968         estimate D2E/DX2                !
 ! D1    D(3,1,2,6)            -67.8034         estimate D2E/DX2                !
 ! D2    D(3,1,2,7)            115.3239         estimate D2E/DX2                !
 ! D3    D(4,1,2,6)            172.1418         estimate D2E/DX2                !
 ! D4    D(4,1,2,7)             -4.731          estimate D2E/DX2                !
 ! D5    D(5,1,2,6)             50.8169         estimate D2E/DX2                !
 ! D6    D(5,1,2,7)           -126.0558         estimate D2E/DX2                !
 ! D7    D(1,2,6,8)             39.7833         Frozen                          !
 ! D8    D(1,2,6,9)            -81.7051         estimate D2E/DX2                !
 ! D9    D(1,2,6,10)           161.6485         estimate D2E/DX2                !
 ! D10   D(7,2,6,8)           -143.2053         estimate D2E/DX2                !
 ! D11   D(7,2,6,9)             95.3063         estimate D2E/DX2                !
 ! D12   D(7,2,6,10)           -21.3401         estimate D2E/DX2                !
 ! D13   D(2,6,8,11)           -69.2075         estimate D2E/DX2                !
 ! D14   D(2,6,8,12)           171.245          estimate D2E/DX2                !
 ! D15   D(2,6,8,13)            51.4255         estimate D2E/DX2                !
 ! D16   D(9,6,8,11)            52.8856         estimate D2E/DX2                !
 ! D17   D(9,6,8,12)           -66.6619         estimate D2E/DX2                !
 ! D18   D(9,6,8,13)           173.5186         estimate D2E/DX2                !
 ! D19   D(10,6,8,11)          169.1742         estimate D2E/DX2                !
 ! D20   D(10,6,8,12)           49.6267         estimate D2E/DX2                !
 ! D21   D(10,6,8,13)          -70.1929         estimate D2E/DX2                !
 --------------------------------------------------------------------------------
 Trust Radius=3.00D-01 FncErr=1.00D-07 GrdErr=1.00D-06
 Number of steps in this run=     64 maximum allowed number of steps=    100.
 GradGradGradGradGradGradGradGradGradGradGradGradGradGradGradGradGradGrad

 Leave Link  103 at Wed May 26 09:20:48 2021, MaxMem=  2147483648 cpu:         0.1
 (Enter /opt/cluster/programs/g09_d.01/g09/l202.exe)
                          Input orientation:                          
 ---------------------------------------------------------------------
 Center     Atomic      Atomic             Coordinates (Angstroms)
 Number     Number       Type             X           Y           Z
 ---------------------------------------------------------------------
      1          6           0        1.738976    1.258277    0.033930
      2          6           0        1.531864   -0.226964    0.095502
      3          1           0        1.140630    1.697438   -0.771954
      4          1           0        2.793649    1.464281   -0.150726
      5          1           0        1.422066    1.736860    0.966169
      6          6           0        0.174028   -0.786370    0.522654
      7          8           0        2.440412   -1.030297   -0.133668
      8          6           0       -1.036303   -0.066522    0.004424
      9          1           0        0.119597   -0.777802    1.617648
     10          1           0        0.121937   -1.826285    0.193211
     11          9           0       -1.197863    1.202396    0.560947
     12          9           0       -2.200386   -0.769742    0.290539
     13          9           0       -0.998702    0.109274   -1.376380
 ---------------------------------------------------------------------
                    Distance matrix (angstroms):
                    1          2          3          4          5
     1  C    0.000000
     2  C    1.500876   0.000000
     3  H    1.095595   2.146827   0.000000
     4  H    1.090353   2.124392   1.781224   0.000000
     5  H    1.094780   2.150981   1.761202   1.789691   0.000000
     6  C    2.620781   1.529416   2.963044   3.518705   2.849736
     7  O    2.399515   1.234229   3.088265   2.519521   3.147035
     8  C    3.075408   2.574785   2.907465   4.127464   3.196986
     9  H    3.045680   2.148220   3.588805   3.912114   2.905921
    10  H    3.486360   2.134308   3.792875   4.252548   3.870892
    11  F    2.984274   3.116267   2.736830   4.062909   2.704419
    12  F    4.438162   3.776551   4.286987   5.488712   4.456645
    13  F    3.286953   2.946737   2.732094   4.209537   3.741215
                    6          7          8          9         10
     6  C    0.000000
     7  O    2.372078   0.000000
     8  C    1.500548   3.610468   0.000000
     9  H    1.096379   2.918397   2.108202   0.000000
    10  H    1.092094   2.473009   2.115166   1.768712   0.000000
    11  F    2.416349   4.324865   1.394981   2.602595   3.324156
    12  F    2.385790   4.667424   1.389773   2.672752   2.553221
    13  F    2.404954   3.830204   1.392457   3.316881   2.732368
                   11         12         13
    11  F    0.000000
    12  F    2.228789   0.000000
    13  F    2.233342   2.235024   0.000000
 Stoichiometry    C4H5F3O
 Framework group  C1[X(C4H5F3O)]
 Deg. of freedom    33
 Full point group                 C1      NOp   1
 Largest Abelian subgroup         C1      NOp   1
 Largest concise Abelian subgroup C1      NOp   1
                         Standard orientation:                         
 ---------------------------------------------------------------------
 Center     Atomic      Atomic             Coordinates (Angstroms)
 Number     Number       Type             X           Y           Z
 ---------------------------------------------------------------------
      1          6           0       -1.738976    1.258277   -0.033930
      2          6           0       -1.531864   -0.226964   -0.095502
      3          1           0       -1.140630    1.697438    0.771954
      4          1           0       -2.793649    1.464281    0.150726
      5          1           0       -1.422066    1.736860   -0.966169
      6          6           0       -0.174028   -0.786370   -0.522654
      7          8           0       -2.440412   -1.030297    0.133668
      8          6           0        1.036303   -0.066522   -0.004424
      9          1           0       -0.119597   -0.777802   -1.617648
     10          1           0       -0.121937   -1.826285   -0.193211
     11          9           0        1.197863    1.202396   -0.560947
     12          9           0        2.200386   -0.769742   -0.290539
     13          9           0        0.998702    0.109274    1.376380
 ---------------------------------------------------------------------
 Rotational constants (GHZ):      3.4558742      1.3538637      1.2126677
 Leave Link  202 at Wed May 26 09:20:48 2021, MaxMem=  2147483648 cpu:         0.0
 (Enter /opt/cluster/programs/g09_d.01/g09/l301.exe)
 Standard basis: 6-31+G (6D, 7F)
 Ernie: Thresh=  0.10000D-02 Tol=  0.10000D-05 Strict=F.
 There are   114 symmetry adapted cartesian basis functions of A   symmetry.
 There are   114 symmetry adapted basis functions of A   symmetry.
   114 basis functions,   228 primitive gaussians,   114 cartesian basis functions
    32 alpha electrons       32 beta electrons
       nuclear repulsion energy       404.9376834758 Hartrees.
 IExCor= 4639 DFT=T Ex+Corr=wB97XD ExCW=0 ScaHFX=  1.000000
 ScaDFX=  1.000000  1.000000  1.000000  1.000000 ScalE2=  1.000000  1.000000
 IRadAn=      0 IRanWt=     -1 IRanGd=            0 ICorTp=0 IEmpDi=121
  HFx wShort=  0.000000 wLong=  0.200000 cFull=  0.222036 cShort=  0.000000 cLong=  0.777964
  DFx wShort=  0.000000 wLong=  0.200000 cFull=  0.000000 cShort=  0.000000 cLong=  1.000000
 NAtoms=   13 NActive=   13 NUniq=   13 SFac= 1.00D+00 NAtFMM=   60 NAOKFM=F Big=F
 Integral buffers will be    131072 words long.
 Raffenetti 2 integral format.
 Two-electron integral symmetry is turned on.
 R6Disp:  Grimme-D2 Dispersion energy=       -0.0062713843 Hartrees.
 Nuclear repulsion after empirical dispersion term =      404.9314120915 Hartrees.
 Leave Link  301 at Wed May 26 09:20:48 2021, MaxMem=  2147483648 cpu:         0.3
 (Enter /opt/cluster/programs/g09_d.01/g09/l302.exe)
 NPDir=0 NMtPBC=     1 NCelOv=     1 NCel=       1 NClECP=     1 NCelD=      1
         NCelK=      1 NCelE2=     1 NClLst=     1 CellRange=     0.0.
 One-electron integrals computed using PRISM.
 NBasis=   114 RedAO= T EigKep=  6.15D-05  NBF=   114
 NBsUse=   114 1.00D-06 EigRej= -1.00D+00 NBFU=   114
 Precomputing XC quadrature grid using
 IXCGrd= 4 IRadAn=           0 IRanWt=          -1 IRanGd=           0 AccXCQ= 0.00D+00.
 Generated NRdTot=       0 NPtTot=           0 NUsed=           0 NTot=          32
 NSgBfM=   114   114   114   114   114 MxSgAt=    13 MxSgA2=    13.
 Leave Link  302 at Wed May 26 09:20:49 2021, MaxMem=  2147483648 cpu:         1.0
 (Enter /opt/cluster/programs/g09_d.01/g09/l303.exe)
 DipDrv:  MaxL=1.
 Leave Link  303 at Wed May 26 09:20:49 2021, MaxMem=  2147483648 cpu:         0.3
 (Enter /opt/cluster/programs/g09_d.01/g09/l401.exe)
 ExpMin= 4.38D-02 ExpMax= 7.00D+03 ExpMxC= 1.05D+03 IAcc=2 IRadAn=         4 AccDes= 0.00D+00
 Harris functional with IExCor= 4639 and IRadAn=       4 diagonalized for initial guess.
 HarFok:  IExCor= 4639 AccDes= 0.00D+00 IRadAn=         4 IDoV= 1 UseB2=F ITyADJ=14
 ICtDFT=  3500011 ScaDFX=  1.000000  1.000000  1.000000  1.000000
 FoFCou: FMM=F IPFlag=           0 FMFlag=      100000 FMFlg1=           0
         NFxFlg=           0 DoJE=T BraDBF=F KetDBF=T FulRan=T
         wScrn=  0.000000 ICntrl=     500 IOpCl=  0 I1Cent=   200000004 NGrid=           0
         NMat0=    1 NMatS0=      1 NMatT0=    0 NMatD0=    1 NMtDS0=    0 NMtDT0=    0
 Petite list used in FoFCou.
 Harris En= -511.189820180648    
 JPrj=0 DoOrth=F DoCkMO=F.
 Leave Link  401 at Wed May 26 09:20:49 2021, MaxMem=  2147483648 cpu:         2.1
 (Enter /opt/cluster/programs/g09_d.01/g09/l502.exe)
 Closed shell SCF:
 Using DIIS extrapolation, IDIIS=  1040.
 Integral symmetry usage will be decided dynamically.
 Keep R1 ints in memory in canonical form, NReq=43969700.
 IVT=       59316 IEndB=       59316 NGot=  2147483648 MDV=  2104449753
 LenX=  2104449753 LenY=  2104436316
 Requested convergence on RMS density matrix=1.00D-08 within 128 cycles.
 Requested convergence on MAX density matrix=1.00D-06.
 Requested convergence on             energy=1.00D-06.
 No special actions if energy rises.
 FoFCou: FMM=F IPFlag=           0 FMFlag=           0 FMFlg1=           0
         NFxFlg=           0 DoJE=F BraDBF=F KetDBF=F FulRan=T
         wScrn=  0.000000 ICntrl=     600 IOpCl=  0 I1Cent=           0 NGrid=           0
         NMat0=    1 NMatS0=   6555 NMatT0=    0 NMatD0=    1 NMtDS0=    0 NMtDT0=    0
 Symmetry not used in FoFCou.

 Cycle   1  Pass 1  IDiag  1:
 E= -529.583471872575    
 DIIS: error= 7.52D-02 at cycle   1 NSaved=   1.
 NSaved= 1 IEnMin= 1 EnMin= -529.583471872575     IErMin= 1 ErrMin= 7.52D-02
 ErrMax= 7.52D-02  0.00D+00 EMaxC= 1.00D-01 BMatC= 5.31D-01 BMatP= 5.31D-01
 IDIUse=3 WtCom= 2.48D-01 WtEn= 7.52D-01
 Coeff-Com:  0.100D+01
 Coeff-En:   0.100D+01
 Coeff:      0.100D+01
 Gap=     0.415 Goal=   None    Shift=    0.000
 GapD=    0.415 DampG=2.000 DampE=0.500 DampFc=1.0000 IDamp=-1.
 RMSDP=2.16D-02 MaxDP=9.50D-01              OVMax= 1.33D-01

 Cycle   2  Pass 1  IDiag  1:
 E= -529.733338506366     Delta-E=       -0.149866633791 Rises=F Damp=F
 DIIS: error= 6.27D-02 at cycle   2 NSaved=   2.
 NSaved= 2 IEnMin= 2 EnMin= -529.733338506366     IErMin= 2 ErrMin= 6.27D-02
 ErrMax= 6.27D-02  0.00D+00 EMaxC= 1.00D-01 BMatC= 3.18D-01 BMatP= 5.31D-01
 IDIUse=3 WtCom= 3.73D-01 WtEn= 6.27D-01
 Coeff-Com:  0.431D+00 0.569D+00
 Coeff-En:   0.325D+00 0.675D+00
 Coeff:      0.364D+00 0.636D+00
 Gap=     0.536 Goal=   None    Shift=    0.000
 RMSDP=4.43D-03 MaxDP=9.96D-02 DE=-1.50D-01 OVMax= 5.32D-02

 Cycle   3  Pass 1  IDiag  1:
 E= -529.910054667920     Delta-E=       -0.176716161554 Rises=F Damp=F
 DIIS: error= 1.39D-02 at cycle   3 NSaved=   3.
 NSaved= 3 IEnMin= 3 EnMin= -529.910054667920     IErMin= 3 ErrMin= 1.39D-02
 ErrMax= 1.39D-02  0.00D+00 EMaxC= 1.00D-01 BMatC= 2.60D-02 BMatP= 3.18D-01
 IDIUse=3 WtCom= 8.61D-01 WtEn= 1.39D-01
 Coeff-Com:  0.966D-01 0.265D+00 0.638D+00
 Coeff-En:   0.000D+00 0.000D+00 0.100D+01
 Coeff:      0.831D-01 0.228D+00 0.688D+00
 Gap=     0.389 Goal=   None    Shift=    0.000
 RMSDP=4.00D-03 MaxDP=1.55D-01 DE=-1.77D-01 OVMax= 3.51D-02

 Cycle   4  Pass 1  IDiag  1:
 E= -529.924955926191     Delta-E=       -0.014901258271 Rises=F Damp=F
 DIIS: error= 4.31D-03 at cycle   4 NSaved=   4.
 NSaved= 4 IEnMin= 4 EnMin= -529.924955926191     IErMin= 4 ErrMin= 4.31D-03
 ErrMax= 4.31D-03  0.00D+00 EMaxC= 1.00D-01 BMatC= 3.88D-03 BMatP= 2.60D-02
 IDIUse=3 WtCom= 9.57D-01 WtEn= 4.31D-02
 Coeff-Com: -0.656D-02 0.227D-01 0.324D+00 0.660D+00
 Coeff-En:   0.000D+00 0.000D+00 0.950D-01 0.905D+00
 Coeff:     -0.628D-02 0.217D-01 0.314D+00 0.670D+00
 Gap=     0.380 Goal=   None    Shift=    0.000
 RMSDP=8.38D-04 MaxDP=1.36D-02 DE=-1.49D-02 OVMax= 1.63D-02

 Cycle   5  Pass 1  IDiag  1:
 E= -529.927672864106     Delta-E=       -0.002716937915 Rises=F Damp=F
 DIIS: error= 1.13D-03 at cycle   5 NSaved=   5.
 NSaved= 5 IEnMin= 5 EnMin= -529.927672864106     IErMin= 5 ErrMin= 1.13D-03
 ErrMax= 1.13D-03  0.00D+00 EMaxC= 1.00D-01 BMatC= 2.71D-04 BMatP= 3.88D-03
 IDIUse=3 WtCom= 9.89D-01 WtEn= 1.13D-02
 Coeff-Com: -0.908D-02-0.219D-02 0.153D+00 0.387D+00 0.471D+00
 Coeff-En:   0.000D+00 0.000D+00 0.000D+00 0.000D+00 0.100D+01
 Coeff:     -0.898D-02-0.217D-02 0.151D+00 0.383D+00 0.477D+00
 Gap=     0.383 Goal=   None    Shift=    0.000
 RMSDP=6.56D-04 MaxDP=2.49D-02 DE=-2.72D-03 OVMax= 4.83D-03

 Cycle   6  Pass 1  IDiag  1:
 E= -529.927870088778     Delta-E=       -0.000197224672 Rises=F Damp=F
 DIIS: error= 2.12D-04 at cycle   6 NSaved=   6.
 NSaved= 6 IEnMin= 6 EnMin= -529.927870088778     IErMin= 6 ErrMin= 2.12D-04
 ErrMax= 2.12D-04  0.00D+00 EMaxC= 1.00D-01 BMatC= 5.96D-06 BMatP= 2.71D-04
 IDIUse=3 WtCom= 9.98D-01 WtEn= 2.12D-03
 Coeff-Com: -0.860D-03-0.434D-02-0.113D-01-0.780D-02 0.105D+00 0.919D+00
 Coeff-En:   0.000D+00 0.000D+00 0.000D+00 0.000D+00 0.000D+00 0.100D+01
 Coeff:     -0.858D-03-0.434D-02-0.112D-01-0.778D-02 0.105D+00 0.919D+00
 Gap=     0.383 Goal=   None    Shift=    0.000
 RMSDP=1.84D-04 MaxDP=7.57D-03 DE=-1.97D-04 OVMax= 1.28D-03

 Cycle   7  Pass 1  IDiag  1:
 E= -529.927877311540     Delta-E=       -0.000007222762 Rises=F Damp=F
 DIIS: error= 5.70D-05 at cycle   7 NSaved=   7.
 NSaved= 7 IEnMin= 7 EnMin= -529.927877311540     IErMin= 7 ErrMin= 5.70D-05
 ErrMax= 5.70D-05  0.00D+00 EMaxC= 1.00D-01 BMatC= 5.62D-07 BMatP= 5.96D-06
 IDIUse=1 WtCom= 1.00D+00 WtEn= 0.00D+00
 Coeff-Com:  0.416D-03-0.156D-02-0.170D-01-0.340D-01-0.762D-02 0.318D+00
 Coeff-Com:  0.742D+00
 Coeff:      0.416D-03-0.156D-02-0.170D-01-0.340D-01-0.762D-02 0.318D+00
 Coeff:      0.742D+00
 Gap=     0.383 Goal=   None    Shift=    0.000
 RMSDP=5.61D-05 MaxDP=2.11D-03 DE=-7.22D-06 OVMax= 2.62D-04

 Cycle   8  Pass 1  IDiag  1:
 E= -529.927878030537     Delta-E=       -0.000000718997 Rises=F Damp=F
 DIIS: error= 1.12D-05 at cycle   8 NSaved=   8.
 NSaved= 8 IEnMin= 8 EnMin= -529.927878030537     IErMin= 8 ErrMin= 1.12D-05
 ErrMax= 1.12D-05  0.00D+00 EMaxC= 1.00D-01 BMatC= 1.79D-08 BMatP= 5.62D-07
 IDIUse=1 WtCom= 1.00D+00 WtEn= 0.00D+00
 Coeff-Com:  0.664D-04 0.148D-03-0.359D-03-0.120D-02-0.973D-02-0.342D-01
 Coeff-Com:  0.557D-01 0.990D+00
 Coeff:      0.664D-04 0.148D-03-0.359D-03-0.120D-02-0.973D-02-0.342D-01
 Coeff:      0.557D-01 0.990D+00
 Gap=     0.383 Goal=   None    Shift=    0.000
 RMSDP=1.27D-05 MaxDP=4.25D-04 DE=-7.19D-07 OVMax= 1.08D-04

 Cycle   9  Pass 1  IDiag  1:
 E= -529.927878064047     Delta-E=       -0.000000033510 Rises=F Damp=F
 DIIS: error= 5.79D-06 at cycle   9 NSaved=   9.
 NSaved= 9 IEnMin= 9 EnMin= -529.927878064047     IErMin= 9 ErrMin= 5.79D-06
 ErrMax= 5.79D-06  0.00D+00 EMaxC= 1.00D-01 BMatC= 5.92D-09 BMatP= 1.79D-08
 IDIUse=1 WtCom= 1.00D+00 WtEn= 0.00D+00
 Coeff-Com:  0.274D-06 0.199D-03 0.116D-02 0.216D-02-0.457D-02-0.408D-01
 Coeff-Com: -0.288D-01 0.475D+00 0.595D+00
 Coeff:      0.274D-06 0.199D-03 0.116D-02 0.216D-02-0.457D-02-0.408D-01
 Coeff:     -0.288D-01 0.475D+00 0.595D+00
 Gap=     0.383 Goal=   None    Shift=    0.000
 RMSDP=2.15D-06 MaxDP=6.08D-05 DE=-3.35D-08 OVMax= 3.33D-05

 Cycle  10  Pass 1  IDiag  1:
 E= -529.927878069930     Delta-E=       -0.000000005883 Rises=F Damp=F
 DIIS: error= 3.07D-06 at cycle  10 NSaved=  10.
 NSaved=10 IEnMin=10 EnMin= -529.927878069930     IErMin=10 ErrMin= 3.07D-06
 ErrMax= 3.07D-06  0.00D+00 EMaxC= 1.00D-01 BMatC= 4.87D-10 BMatP= 5.92D-09
 IDIUse=1 WtCom= 1.00D+00 WtEn= 0.00D+00
 Coeff-Com: -0.127D-04 0.258D-04 0.396D-03 0.903D-03 0.529D-03-0.304D-02
 Coeff-Com: -0.178D-01-0.811D-01 0.133D+00 0.967D+00
 Coeff:     -0.127D-04 0.258D-04 0.396D-03 0.903D-03 0.529D-03-0.304D-02
 Coeff:     -0.178D-01-0.811D-01 0.133D+00 0.967D+00
 Gap=     0.383 Goal=   None    Shift=    0.000
 RMSDP=1.29D-06 MaxDP=2.54D-05 DE=-5.88D-09 OVMax= 3.34D-05

 Cycle  11  Pass 1  IDiag  1:
 E= -529.927878071408     Delta-E=       -0.000000001478 Rises=F Damp=F
 DIIS: error= 1.33D-06 at cycle  11 NSaved=  11.
 NSaved=11 IEnMin=11 EnMin= -529.927878071408     IErMin=11 ErrMin= 1.33D-06
 ErrMax= 1.33D-06  0.00D+00 EMaxC= 1.00D-01 BMatC= 4.68D-11 BMatP= 4.87D-10
 IDIUse=1 WtCom= 1.00D+00 WtEn= 0.00D+00
 Coeff-Com:  0.537D-06-0.183D-04-0.112D-03-0.198D-03 0.416D-03 0.422D-02
 Coeff-Com:  0.190D-02-0.541D-01-0.512D-01 0.347D-01 0.106D+01
 Coeff:      0.537D-06-0.183D-04-0.112D-03-0.198D-03 0.416D-03 0.422D-02
 Coeff:      0.190D-02-0.541D-01-0.512D-01 0.347D-01 0.106D+01
 Gap=     0.383 Goal=   None    Shift=    0.000
 RMSDP=4.55D-07 MaxDP=9.60D-06 DE=-1.48D-09 OVMax= 1.78D-05

 Cycle  12  Pass 1  IDiag  1:
 E= -529.927878071710     Delta-E=       -0.000000000302 Rises=F Damp=F
 DIIS: error= 5.55D-07 at cycle  12 NSaved=  12.
 NSaved=12 IEnMin=12 EnMin= -529.927878071710     IErMin=12 ErrMin= 5.55D-07
 ErrMax= 5.55D-07  0.00D+00 EMaxC= 1.00D-01 BMatC= 1.04D-11 BMatP= 4.68D-11
 IDIUse=1 WtCom= 1.00D+00 WtEn= 0.00D+00
 Coeff-Com:  0.186D-05-0.858D-05-0.877D-04-0.190D-03-0.735D-05 0.116D-02
 Coeff-Com:  0.341D-02 0.772D-02-0.307D-01-0.188D+00 0.207D+00 0.100D+01
 Coeff:      0.186D-05-0.858D-05-0.877D-04-0.190D-03-0.735D-05 0.116D-02
 Coeff:      0.341D-02 0.772D-02-0.307D-01-0.188D+00 0.207D+00 0.100D+01
 Gap=     0.383 Goal=   None    Shift=    0.000
 RMSDP=2.10D-07 MaxDP=4.94D-06 DE=-3.02D-10 OVMax= 9.26D-06

 Cycle  13  Pass 1  IDiag  1:
 E= -529.927878071764     Delta-E=       -0.000000000054 Rises=F Damp=F
 DIIS: error= 1.68D-07 at cycle  13 NSaved=  13.
 NSaved=13 IEnMin=13 EnMin= -529.927878071764     IErMin=13 ErrMin= 1.68D-07
 ErrMax= 1.68D-07  0.00D+00 EMaxC= 1.00D-01 BMatC= 1.08D-12 BMatP= 1.04D-11
 IDIUse=1 WtCom= 1.00D+00 WtEn= 0.00D+00
 Coeff-Com: -0.239D-06 0.292D-05 0.224D-04 0.389D-04-0.463D-04-0.746D-03
 Coeff-Com: -0.540D-03 0.808D-02 0.855D-02 0.629D-02-0.182D+00-0.973D-01
 Coeff-Com:  0.126D+01
 Coeff:     -0.239D-06 0.292D-05 0.224D-04 0.389D-04-0.463D-04-0.746D-03
 Coeff:     -0.540D-03 0.808D-02 0.855D-02 0.629D-02-0.182D+00-0.973D-01
 Coeff:      0.126D+01
 Gap=     0.383 Goal=   None    Shift=    0.000
 RMSDP=9.55D-08 MaxDP=2.05D-06 DE=-5.42D-11 OVMax= 4.19D-06

 Cycle  14  Pass 1  IDiag  1:
 E= -529.927878071776     Delta-E=       -0.000000000012 Rises=F Damp=F
 DIIS: error= 2.06D-08 at cycle  14 NSaved=  14.
 NSaved=14 IEnMin=14 EnMin= -529.927878071776     IErMin=14 ErrMin= 2.06D-08
 ErrMax= 2.06D-08  0.00D+00 EMaxC= 1.00D-01 BMatC= 5.24D-14 BMatP= 1.08D-12
 IDIUse=1 WtCom= 1.00D+00 WtEn= 0.00D+00
 Coeff-Com: -0.926D-07 0.489D-06 0.455D-05 0.925D-05 0.686D-05-0.707D-04
 Coeff-Com: -0.132D-03-0.281D-03 0.127D-02 0.921D-02-0.100D-01-0.558D-01
 Coeff-Com:  0.154D-01 0.104D+01
 Coeff:     -0.926D-07 0.489D-06 0.455D-05 0.925D-05 0.686D-05-0.707D-04
 Coeff:     -0.132D-03-0.281D-03 0.127D-02 0.921D-02-0.100D-01-0.558D-01
 Coeff:      0.154D-01 0.104D+01
 Gap=     0.383 Goal=   None    Shift=    0.000
 RMSDP=2.11D-08 MaxDP=7.35D-07 DE=-1.16D-11 OVMax= 4.50D-07

 Cycle  15  Pass 1  IDiag  1:
 E= -529.927878071773     Delta-E=        0.000000000002 Rises=F Damp=F
 DIIS: error= 8.14D-09 at cycle  15 NSaved=  15.
 NSaved=15 IEnMin=14 EnMin= -529.927878071776     IErMin=15 ErrMin= 8.14D-09
 ErrMax= 8.14D-09  0.00D+00 EMaxC= 1.00D-01 BMatC= 8.26D-15 BMatP= 5.24D-14
 IDIUse=1 WtCom= 1.00D+00 WtEn= 0.00D+00
 Coeff-Com: -0.147D-07-0.138D-07 0.619D-07 0.579D-06 0.697D-05 0.261D-04
 Coeff-Com: -0.566D-05-0.728D-03-0.114D-03 0.316D-02 0.939D-02-0.151D-01
 Coeff-Com: -0.806D-01 0.366D+00 0.718D+00
 Coeff:     -0.147D-07-0.138D-07 0.619D-07 0.579D-06 0.697D-05 0.261D-04
 Coeff:     -0.566D-05-0.728D-03-0.114D-03 0.316D-02 0.939D-02-0.151D-01
 Coeff:     -0.806D-01 0.366D+00 0.718D+00
 Gap=     0.383 Goal=   None    Shift=    0.000
 RMSDP=4.43D-09 MaxDP=1.86D-07 DE= 2.39D-12 OVMax= 5.23D-08

 SCF Done:  E(RwB97XD) =  -529.927878072     A.U. after   15 cycles
            NFock= 15  Conv=0.44D-08     -V/T= 2.0052
 KE= 5.271910798759D+02 PE=-2.060150685121D+03 EE= 5.981003150821D+02
 Leave Link  502 at Wed May 26 09:20:53 2021, MaxMem=  2147483648 cpu:        31.4
 (Enter /opt/cluster/programs/g09_d.01/g09/l601.exe)
 Copying SCF densities to generalized density rwf, IOpCl= 0 IROHF=0.

 **********************************************************************

            Population analysis using the SCF density.

 **********************************************************************

 Orbital symmetries:
       Occupied  (A) (A) (A) (A) (A) (A) (A) (A) (A) (A) (A) (A)
                 (A) (A) (A) (A) (A) (A) (A) (A) (A) (A) (A) (A)
                 (A) (A) (A) (A) (A) (A) (A) (A)
       Virtual   (A) (A) (A) (A) (A) (A) (A) (A) (A) (A) (A) (A)
                 (A) (A) (A) (A) (A) (A) (A) (A) (A) (A) (A) (A)
                 (A) (A) (A) (A) (A) (A) (A) (A) (A) (A) (A) (A)
                 (A) (A) (A) (A) (A) (A) (A) (A) (A) (A) (A) (A)
                 (A) (A) (A) (A) (A) (A) (A) (A) (A) (A) (A) (A)
                 (A) (A) (A) (A) (A) (A) (A) (A) (A) (A) (A) (A)
                 (A) (A) (A) (A) (A) (A) (A) (A) (A) (A)
 The electronic state is 1-A.
 Alpha  occ. eigenvalues --  -24.89232 -24.89230 -24.89100 -19.30330 -10.59572
 Alpha  occ. eigenvalues --  -10.43936 -10.36390 -10.32080  -1.44030  -1.35545
 Alpha  occ. eigenvalues --   -1.35481  -1.19499  -0.95307  -0.87265  -0.80190
 Alpha  occ. eigenvalues --   -0.71094  -0.70399  -0.69269  -0.64276  -0.59745
 Alpha  occ. eigenvalues --   -0.58493  -0.57686  -0.56975  -0.55315  -0.54261
 Alpha  occ. eigenvalues --   -0.53755  -0.52712  -0.52086  -0.50492  -0.49621
 Alpha  occ. eigenvalues --   -0.46247  -0.36995
 Alpha virt. eigenvalues --    0.01292   0.06209   0.08071   0.09338   0.10117
 Alpha virt. eigenvalues --    0.10712   0.11169   0.11917   0.12760   0.13446
 Alpha virt. eigenvalues --    0.13643   0.15879   0.16769   0.17169   0.17754
 Alpha virt. eigenvalues --    0.17912   0.18380   0.19590   0.21086   0.21995
 Alpha virt. eigenvalues --    0.25869   0.26549   0.27922   0.29002   0.31261
 Alpha virt. eigenvalues --    0.33460   0.34358   0.34688   0.36352   0.37230
 Alpha virt. eigenvalues --    0.38351   0.38882   0.39495   0.40925   0.41294
 Alpha virt. eigenvalues --    0.43016   0.43356   0.44095   0.44894   0.45277
 Alpha virt. eigenvalues --    0.45878   0.49471   0.51290   0.52634   0.53723
 Alpha virt. eigenvalues --    0.71043   0.73446   0.75560   0.77045   0.80706
 Alpha virt. eigenvalues --    0.83139   0.84945   0.87131   0.90579   0.94539
 Alpha virt. eigenvalues --    0.96234   1.04240   1.10358   1.15412   1.16807
 Alpha virt. eigenvalues --    1.21535   1.22299   1.23645   1.34918   1.39830
 Alpha virt. eigenvalues --    1.44109   1.46558   1.51244   1.56253   1.59428
 Alpha virt. eigenvalues --    1.64427   1.67544   1.69230   1.73385   1.80075
 Alpha virt. eigenvalues --    1.82222   1.83654   1.85047   1.98351   2.29802
 Alpha virt. eigenvalues --    2.33238   2.66608
          Condensed to atoms (all electrons):
               1          2          3          4          5          6
     1  C    8.634437  -1.004459   0.326330   0.343064   0.299383  -1.743299
     2  C   -1.004459   6.345648  -0.005354  -0.022270  -0.000247  -0.456457
     3  H    0.326330  -0.005354   0.450865  -0.018732  -0.021793  -0.014270
     4  H    0.343064  -0.022270  -0.018732   0.446279  -0.020347   0.030294
     5  H    0.299383  -0.000247  -0.021793  -0.020347   0.464739   0.044587
     6  C   -1.743299  -0.456457  -0.014270   0.030294   0.044587   8.866469
     7  O   -0.145356   0.492099   0.004521  -0.005716   0.002404  -0.253519
     8  C   -0.001606   0.126307   0.017862  -0.003416  -0.014628  -0.221955
     9  H    0.008836  -0.009123   0.000119  -0.000063  -0.000206   0.359891
    10  H    0.022060   0.000596  -0.000119  -0.000074  -0.000015   0.323315
    11  F    0.028815  -0.012052  -0.003988   0.000335  -0.001665  -0.105337
    12  F   -0.013716   0.006639   0.000302   0.000023  -0.000123  -0.111961
    13  F   -0.032558   0.098154   0.003680  -0.000013  -0.000600  -0.201605
               7          8          9         10         11         12
     1  C   -0.145356  -0.001606   0.008836   0.022060   0.028815  -0.013716
     2  C    0.492099   0.126307  -0.009123   0.000596  -0.012052   0.006639
     3  H    0.004521   0.017862   0.000119  -0.000119  -0.003988   0.000302
     4  H   -0.005716  -0.003416  -0.000063  -0.000074   0.000335   0.000023
     5  H    0.002404  -0.014628  -0.000206  -0.000015  -0.001665  -0.000123
     6  C   -0.253519  -0.221955   0.359891   0.323315  -0.105337  -0.111961
     7  O    8.318443  -0.001778  -0.000926  -0.002747  -0.001314  -0.001066
     8  C   -0.001778   5.368289  -0.057312  -0.038390   0.090010   0.143960
     9  H   -0.000926  -0.057312   0.426871  -0.017289  -0.005021  -0.003720
    10  H   -0.002747  -0.038390  -0.017289   0.415166   0.006624  -0.000743
    11  F   -0.001314   0.090010  -0.005021   0.006624   9.298980  -0.052699
    12  F   -0.001066   0.143960  -0.003720  -0.000743  -0.052699   9.294027
    13  F   -0.002019   0.150215   0.007160  -0.003996  -0.049788  -0.056132
              13
     1  C   -0.032558
     2  C    0.098154
     3  H    0.003680
     4  H   -0.000013
     5  H   -0.000600
     6  C   -0.201605
     7  O   -0.002019
     8  C    0.150215
     9  H    0.007160
    10  H   -0.003996
    11  F   -0.049788
    12  F   -0.056132
    13  F    9.277789
 Mulliken charges:
               1
     1  C   -0.721931
     2  C    0.440520
     3  H    0.260578
     4  H    0.250637
     5  H    0.248510
     6  C   -0.516155
     7  O   -0.403025
     8  C    0.442442
     9  H    0.290785
    10  H    0.295613
    11  F   -0.192898
    12  F   -0.204791
    13  F   -0.190285
 Sum of Mulliken charges =   0.00000
 Mulliken charges with hydrogens summed into heavy atoms:
               1
     1  C    0.037794
     2  C    0.440520
     6  C    0.070244
     7  O   -0.403025
     8  C    0.442442
    11  F   -0.192898
    12  F   -0.204791
    13  F   -0.190285
 Electronic spatial extent (au):  <R**2>=            974.9978
 Charge=              0.0000 electrons
 Dipole moment (field-independent basis, Debye):
    X=             -0.1974    Y=              1.0118    Z=             -1.6196  Tot=              1.9199
 Quadrupole moment (field-independent basis, Debye-Ang):
   XX=            -56.7685   YY=            -45.9638   ZZ=            -44.9532
   XY=             -6.5573   XZ=              1.2483   YZ=              1.4248
 Traceless Quadrupole moment (field-independent basis, Debye-Ang):
   XX=             -7.5400   YY=              3.2647   ZZ=              4.2753
   XY=             -6.5573   XZ=              1.2483   YZ=              1.4248
 Octapole moment (field-independent basis, Debye-Ang**2):
  XXX=             35.3552  YYY=              1.5611  ZZZ=             -2.2965  XYY=              8.3736
  XXY=             19.8428  XXZ=              0.1288  XZZ=              4.2935  YZZ=             -0.3467
  YYZ=              1.8207  XYZ=             -0.9476
 Hexadecapole moment (field-independent basis, Debye-Ang**3):
 XXXX=           -791.8038 YYYY=           -254.8606 ZZZZ=           -130.5589 XXXY=            -34.1989
 XXXZ=              8.5711 YYYX=             -7.9601 YYYZ=             -1.2734 ZZZX=             -2.1469
 ZZZY=             -0.4395 XXYY=           -177.5631 XXZZ=           -143.0173 YYZZ=            -63.0984
 XXYZ=              2.1692 YYXZ=              2.5412 ZZXY=              0.5032
 N-N= 4.049314120915D+02 E-N=-2.060150685175D+03  KE= 5.271910798759D+02
 No NMR shielding tensors so no spin-rotation constants.
 Leave Link  601 at Wed May 26 09:20:54 2021, MaxMem=  2147483648 cpu:         0.6
 (Enter /opt/cluster/programs/g09_d.01/g09/l701.exe)
 Compute integral first derivatives.
 ... and contract with generalized density number  0.
 R6Disp: Adding Grimme-D2 dispersion energy 1st derivatives to the gradient.
 Leave Link  701 at Wed May 26 09:20:54 2021, MaxMem=  2147483648 cpu:         0.6
 (Enter /opt/cluster/programs/g09_d.01/g09/l702.exe)
 L702 exits ... SP integral derivatives will be done elsewhere.
 Leave Link  702 at Wed May 26 09:20:54 2021, MaxMem=  2147483648 cpu:         0.2
 (Enter /opt/cluster/programs/g09_d.01/g09/l703.exe)
 Compute integral first derivatives, UseDBF=F ICtDFT=           0.
 Integral derivatives from FoFJK, PRISM(SPDF).
 Calling FoFJK, ICntrl=      2127 FMM=F ISym2X=0 I1Cent= 0 IOpClX= 0 NMat=1 NMatS=1 NMatT=0.
 FoFJK:  IHMeth= 1 ICntrl=    2127 DoSepK=T KAlg= 0 I1Cent=   0 FoldK=F
 IRaf=         1 NMat=   1 IRICut=       1 DoRegI=T DoRafI=F ISym2E= 0.
 FoFCou: FMM=F IPFlag=           0 FMFlag=      100000 FMFlg1=         800
         NFxFlg=           0 DoJE=F BraDBF=F KetDBF=F FulRan=T
         wScrn=  0.000000 ICntrl=    2527 IOpCl=  0 I1Cent=           0 NGrid=           0
         NMat0=    1 NMatS0=      1 NMatT0=    0 NMatD0=    1 NMtDS0=    0 NMtDT0=    0
 Symmetry not used in FoFCou.
 Leave Link  703 at Wed May 26 09:20:56 2021, MaxMem=  2147483648 cpu:         8.5
 (Enter /opt/cluster/programs/g09_d.01/g09/l716.exe)
 Dipole        =-7.76626258D-02 3.98091231D-01-6.37201313D-01
 ***** Axes restored to original set *****
 -------------------------------------------------------------------
 Center     Atomic                   Forces (Hartrees/Bohr)
 Number     Number              X              Y              Z
 -------------------------------------------------------------------
      1        6          -0.000044044   -0.000003177   -0.000115822
      2        6           0.000041339    0.000031105    0.000218617
      3        1           0.000008850    0.000002076    0.000005787
      4        1           0.000006051   -0.000004584    0.000002848
      5        1           0.000009909   -0.000006573    0.000003572
      6        6          -0.000034056   -0.000095306   -0.000207019
      7        8           0.000002590   -0.000014375   -0.000000255
      8        6           0.000005757    0.000078725    0.000104927
      9        1          -0.000001678    0.000000683    0.000001319
     10        1           0.000005488   -0.000006001    0.000001621
     11        9           0.000007996    0.000011116    0.000001145
     12        9          -0.000009427    0.000005420   -0.000008618
     13        9           0.000001225    0.000000891   -0.000008123
 -------------------------------------------------------------------
 Cartesian Forces:  Max     0.000218617 RMS     0.000059323
 Leave Link  716 at Wed May 26 09:20:56 2021, MaxMem=  2147483648 cpu:         0.2
 (Enter /opt/cluster/programs/g09_d.01/g09/l103.exe)

 GradGradGradGradGradGradGradGradGradGradGradGradGradGradGradGradGradGrad
 Berny optimization.
 FormGI is forming the generalized inverse of G from B-inverse, IUseBI=4.
 Internal  Forces:  Max     0.000113976 RMS     0.000025442
 Search for a local minimum.
 Step number   1 out of a maximum of   64
 All quantities printed in internal units (Hartrees-Bohrs-Radians)
 RMS Force = .48058D-05 SwitMx=.10000D-02 MixMth= 2
 Mixed Optimization -- En-DIIS/RFO-DIIS
 Second derivative matrix not updated -- first step.
 ITU=  0
     Eigenvalues ---    0.00513   0.00754   0.00759   0.02859   0.05541
     Eigenvalues ---    0.07332   0.07434   0.08268   0.08542   0.09858
     Eigenvalues ---    0.12112   0.16000   0.16000   0.16000   0.22074
     Eigenvalues ---    0.24958   0.25000   0.25000   0.25000   0.25000
     Eigenvalues ---    0.29477   0.32286   0.32320   0.34086   0.34174
     Eigenvalues ---    0.34266   0.34572   0.34772   0.46462   0.46894
     Eigenvalues ---    0.47358   0.893471000.000001000.000001000.00000
     Eigenvalues --- 1000.000001000.000001000.000001000.000001000.00000
     Eigenvalues --- 1000.000001000.000001000.000001000.000001000.00000
     Eigenvalues --- 1000.000001000.000001000.000001000.000001000.00000
     Eigenvalues --- 1000.000001000.000001000.000001000.00000
 RFO step:  Lambda=-1.61417179D-08 EMin= 5.13123031D-03
 Linear search not attempted -- first point.
 Iteration  1 RMS(Cart)=  0.00023783 RMS(Int)=  0.00000004
 Iteration  2 RMS(Cart)=  0.00000004 RMS(Int)=  0.00000000
 Iteration  1 RMS(Cart)=  0.00000000 RMS(Int)=  0.00000000
 ITry= 1 IFail=0 DXMaxC= 6.84D-04 DCOld= 1.00D+10 DXMaxT= 3.00D-01 DXLimC= 3.00D+00 Rises=F
 Variable       Old X    -DE/DX   Delta X   Delta X   Delta X     New X
                                 (Linear)    (Quad)   (Total)
    R1        2.83624   0.00000   0.00000   0.00001   0.00001   2.83625
    R2        2.07038   0.00000   0.00000  -0.00001  -0.00001   2.07037
    R3        2.06047   0.00000   0.00000   0.00001   0.00001   2.06048
    R4        2.06883   0.00000   0.00000  -0.00001  -0.00001   2.06883
    R5        2.89018  -0.00001   0.00000  -0.00003  -0.00003   2.89015
    R6        2.33236   0.00001   0.00000   0.00001   0.00001   2.33237
    R7        2.83562   0.00000   0.00000  -0.00001  -0.00001   2.83562
    R8        2.07186   0.00000   0.00000   0.00001   0.00001   2.07186
    R9        2.06376   0.00000   0.00000   0.00001   0.00001   2.06377
   R10        2.63613   0.00001   0.00000   0.00001   0.00001   2.63614
   R11        2.62629   0.00001   0.00000   0.00001   0.00001   2.62630
   R12        2.63136   0.00001   0.00000   0.00001   0.00001   2.63138
    A1        1.92995   0.00001   0.00000   0.00006   0.00006   1.93001
    A2        1.90434   0.00000   0.00000   0.00000   0.00000   1.90434
    A3        1.93662   0.00000   0.00000  -0.00003  -0.00003   1.93659
    A4        1.90494   0.00000   0.00000  -0.00001  -0.00001   1.90493
    A5        1.86820   0.00000   0.00000   0.00001   0.00001   1.86821
    A6        1.91944   0.00000   0.00000  -0.00004  -0.00004   1.91940
    A7        2.08970   0.00000   0.00000   0.00000   0.00000   2.08970
    A8        2.13519   0.00001   0.00000   0.00002   0.00002   2.13520
    A9        2.05707   0.00000   0.00000   0.00000   0.00000   2.05706
   A10        2.03106  -0.00001   0.00000  -0.00005  -0.00005   2.03101
   A11        1.89669   0.00000   0.00000  -0.00006  -0.00006   1.89663
   A12        1.88219   0.00000   0.00000  -0.00001  -0.00001   1.88218
   A13        1.87667  -0.00004   0.00000  -0.00001  -0.00001   1.87666
   A14        1.89036   0.00006   0.00000   0.00015   0.00015   1.89050
   A15        1.88216   0.00000   0.00000  -0.00001  -0.00001   1.88214
   A16        1.97361  -0.00001   0.00000  -0.00002  -0.00002   1.97359
   A17        1.94096   0.00001   0.00000   0.00004   0.00004   1.94100
   A18        1.96195  -0.00001   0.00000  -0.00004  -0.00004   1.96191
   A19        1.85577   0.00000   0.00000   0.00004   0.00004   1.85581
   A20        1.85865   0.00001   0.00000   0.00001   0.00001   1.85866
   A21        1.86570   0.00000   0.00000  -0.00004  -0.00004   1.86566
    D1       -1.18339   0.00003   0.00000   0.00041   0.00041  -1.18298
    D2        2.01278  -0.00002   0.00000   0.00017   0.00017   2.01295
    D3        3.00444   0.00002   0.00000   0.00039   0.00039   3.00483
    D4       -0.08257  -0.00002   0.00000   0.00015   0.00015  -0.08242
    D5        0.88692   0.00003   0.00000   0.00045   0.00045   0.88738
    D6       -2.20009  -0.00002   0.00000   0.00021   0.00021  -2.19988
    D7        0.69435  -0.00011   0.00000   0.00000   0.00000   0.69435
    D8       -1.42602  -0.00005   0.00000   0.00010   0.00010  -1.42593
    D9        2.82130  -0.00005   0.00000   0.00015   0.00015   2.82145
   D10       -2.49940  -0.00007   0.00000   0.00023   0.00023  -2.49917
   D11        1.66341   0.00000   0.00000   0.00033   0.00033   1.66374
   D12       -0.37246   0.00000   0.00000   0.00039   0.00039  -0.37207
   D13       -1.20790   0.00003   0.00000   0.00025   0.00025  -1.20765
   D14        2.98879   0.00002   0.00000   0.00018   0.00018   2.98897
   D15        0.89754   0.00003   0.00000   0.00023   0.00023   0.89777
   D16        0.92303  -0.00001   0.00000   0.00012   0.00012   0.92315
   D17       -1.16347  -0.00002   0.00000   0.00006   0.00006  -1.16341
   D18        3.02847  -0.00001   0.00000   0.00010   0.00010   3.02857
   D19        2.95265  -0.00001   0.00000   0.00018   0.00018   2.95283
   D20        0.86615  -0.00001   0.00000   0.00011   0.00011   0.86626
   D21       -1.22510  -0.00001   0.00000   0.00016   0.00016  -1.22494
         Item               Value     Threshold  Converged?
 Maximum Force            0.000013     0.000450     YES
 RMS     Force            0.000005     0.000300     YES
 Maximum Displacement     0.000684     0.001800     YES
 RMS     Displacement     0.000238     0.001200     YES
 Predicted change in Energy=-8.071062D-09
 Optimization completed.
    -- Stationary point found.
                           ----------------------------
                           !   Optimized Parameters   !
                           ! (Angstroms and Degrees)  !
 --------------------------                            --------------------------
 ! Name  Definition              Value          Derivative Info.                !
 --------------------------------------------------------------------------------
 ! R1    R(1,2)                  1.5009         -DE/DX =    0.0                 !
 ! R2    R(1,3)                  1.0956         -DE/DX =    0.0                 !
 ! R3    R(1,4)                  1.0904         -DE/DX =    0.0                 !
 ! R4    R(1,5)                  1.0948         -DE/DX =    0.0                 !
 ! R5    R(2,6)                  1.5294         -DE/DX =    0.0                 !
 ! R6    R(2,7)                  1.2342         -DE/DX =    0.0                 !
 ! R7    R(6,8)                  1.5005         -DE/DX =    0.0                 !
 ! R8    R(6,9)                  1.0964         -DE/DX =    0.0                 !
 ! R9    R(6,10)                 1.0921         -DE/DX =    0.0                 !
 ! R10   R(8,11)                 1.395          -DE/DX =    0.0                 !
 ! R11   R(8,12)                 1.3898         -DE/DX =    0.0                 !
 ! R12   R(8,13)                 1.3925         -DE/DX =    0.0                 !
 ! A1    A(2,1,3)              110.5778         -DE/DX =    0.0                 !
 ! A2    A(2,1,4)              109.1105         -DE/DX =    0.0                 !
 ! A3    A(2,1,5)              110.9601         -DE/DX =    0.0                 !
 ! A4    A(3,1,4)              109.1451         -DE/DX =    0.0                 !
 ! A5    A(3,1,5)              107.0399         -DE/DX =    0.0                 !
 ! A6    A(4,1,5)              109.9756         -DE/DX =    0.0                 !
 ! A7    A(1,2,6)              119.7308         -DE/DX =    0.0                 !
 ! A8    A(1,2,7)              122.3371         -DE/DX =    0.0                 !
 ! A9    A(6,2,7)              117.8613         -DE/DX =    0.0                 !
 ! A10   A(2,6,8)              116.371          -DE/DX =    0.0                 !
 ! A11   A(2,6,9)              108.6724         -DE/DX =    0.0                 !
 ! A12   A(2,6,10)             107.8415         -DE/DX =    0.0                 !
 ! A13   A(8,6,9)              107.5255         -DE/DX =    0.0                 !
 ! A14   A(8,6,10)             108.3094         -DE/DX =    0.0001              !
 ! A15   A(9,6,10)             107.8396         -DE/DX =    0.0                 !
 ! A16   A(6,8,11)             113.0794         -DE/DX =    0.0                 !
 ! A17   A(6,8,12)             111.2089         -DE/DX =    0.0                 !
 ! A18   A(6,8,13)             112.4114         -DE/DX =    0.0                 !
 ! A19   A(11,8,12)            106.3277         -DE/DX =    0.0                 !
 ! A20   A(11,8,13)            106.4928         -DE/DX =    0.0                 !
 ! A21   A(12,8,13)            106.8968         -DE/DX =    0.0                 !
 ! D1    D(3,1,2,6)            -67.8034         -DE/DX =    0.0                 !
 ! D2    D(3,1,2,7)            115.3239         -DE/DX =    0.0                 !
 ! D3    D(4,1,2,6)            172.1418         -DE/DX =    0.0                 !
 ! D4    D(4,1,2,7)             -4.731          -DE/DX =    0.0                 !
 ! D5    D(5,1,2,6)             50.8169         -DE/DX =    0.0                 !
 ! D6    D(5,1,2,7)           -126.0558         -DE/DX =    0.0                 !
 ! D7    D(1,2,6,8)             39.7833         -DE/DX =   -0.0001              !
 ! D8    D(1,2,6,9)            -81.7051         -DE/DX =   -0.0001              !
 ! D9    D(1,2,6,10)           161.6485         -DE/DX =    0.0                 !
 ! D10   D(7,2,6,8)           -143.2053         -DE/DX =   -0.0001              !
 ! D11   D(7,2,6,9)             95.3063         -DE/DX =    0.0                 !
 ! D12   D(7,2,6,10)           -21.3401         -DE/DX =    0.0                 !
 ! D13   D(2,6,8,11)           -69.2075         -DE/DX =    0.0                 !
 ! D14   D(2,6,8,12)           171.245          -DE/DX =    0.0                 !
 ! D15   D(2,6,8,13)            51.4255         -DE/DX =    0.0                 !
 ! D16   D(9,6,8,11)            52.8856         -DE/DX =    0.0                 !
 ! D17   D(9,6,8,12)           -66.6619         -DE/DX =    0.0                 !
 ! D18   D(9,6,8,13)           173.5186         -DE/DX =    0.0                 !
 ! D19   D(10,6,8,11)          169.1742         -DE/DX =    0.0                 !
 ! D20   D(10,6,8,12)           49.6267         -DE/DX =    0.0                 !
 ! D21   D(10,6,8,13)          -70.1929         -DE/DX =    0.0                 !
 --------------------------------------------------------------------------------
 Lowest energy point so far.  Saving SCF results.
 GradGradGradGradGradGradGradGradGradGradGradGradGradGradGradGradGradGrad

 Largest change from initial coordinates is atom    3       0.000 Angstoms.
 Leave Link  103 at Wed May 26 09:20:56 2021, MaxMem=  2147483648 cpu:         0.1
 (Enter /opt/cluster/programs/g09_d.01/g09/l202.exe)
                          Input orientation:                          
 ---------------------------------------------------------------------
 Center     Atomic      Atomic             Coordinates (Angstroms)
 Number     Number       Type             X           Y           Z
 ---------------------------------------------------------------------
      1          6           0        1.738976    1.258277    0.033930
      2          6           0        1.531864   -0.226964    0.095502
      3          1           0        1.140630    1.697438   -0.771954
      4          1           0        2.793649    1.464281   -0.150726
      5          1           0        1.422066    1.736860    0.966169
      6          6           0        0.174028   -0.786370    0.522654
      7          8           0        2.440412   -1.030297   -0.133668
      8          6           0       -1.036303   -0.066522    0.004424
      9          1           0        0.119597   -0.777802    1.617648
     10          1           0        0.121937   -1.826285    0.193211
     11          9           0       -1.197863    1.202396    0.560947
     12          9           0       -2.200386   -0.769742    0.290539
     13          9           0       -0.998702    0.109274   -1.376380
 ---------------------------------------------------------------------
                    Distance matrix (angstroms):
                    1          2          3          4          5
     1  C    0.000000
     2  C    1.500876   0.000000
     3  H    1.095595   2.146827   0.000000
     4  H    1.090353   2.124392   1.781224   0.000000
     5  H    1.094780   2.150981   1.761202   1.789691   0.000000
     6  C    2.620781   1.529416   2.963044   3.518705   2.849736
     7  O    2.399515   1.234229   3.088265   2.519521   3.147035
     8  C    3.075408   2.574785   2.907465   4.127464   3.196986
     9  H    3.045680   2.148220   3.588805   3.912114   2.905921
    10  H    3.486360   2.134308   3.792875   4.252548   3.870892
    11  F    2.984274   3.116267   2.736830   4.062909   2.704419
    12  F    4.438162   3.776551   4.286987   5.488712   4.456645
    13  F    3.286953   2.946737   2.732094   4.209537   3.741215
                    6          7          8          9         10
     6  C    0.000000
     7  O    2.372078   0.000000
     8  C    1.500548   3.610468   0.000000
     9  H    1.096379   2.918397   2.108202   0.000000
    10  H    1.092094   2.473009   2.115166   1.768712   0.000000
    11  F    2.416349   4.324865   1.394981   2.602595   3.324156
    12  F    2.385790   4.667424   1.389773   2.672752   2.553221
    13  F    2.404954   3.830204   1.392457   3.316881   2.732368
                   11         12         13
    11  F    0.000000
    12  F    2.228789   0.000000
    13  F    2.233342   2.235024   0.000000
 Stoichiometry    C4H5F3O
 Framework group  C1[X(C4H5F3O)]
 Deg. of freedom    33
 Full point group                 C1      NOp   1
 RotChk:  IX=0 Diff= 1.37D-16
 Largest Abelian subgroup         C1      NOp   1
 Largest concise Abelian subgroup C1      NOp   1
                         Standard orientation:                         
 ---------------------------------------------------------------------
 Center     Atomic      Atomic             Coordinates (Angstroms)
 Number     Number       Type             X           Y           Z
 ---------------------------------------------------------------------
      1          6           0       -1.738976    1.258277   -0.033930
      2          6           0       -1.531864   -0.226964   -0.095502
      3          1           0       -1.140630    1.697438    0.771954
      4          1           0       -2.793649    1.464281    0.150726
      5          1           0       -1.422066    1.736860   -0.966169
      6          6           0       -0.174028   -0.786370   -0.522654
      7          8           0       -2.440412   -1.030297    0.133668
      8          6           0        1.036303   -0.066522   -0.004424
      9          1           0       -0.119597   -0.777802   -1.617648
     10          1           0       -0.121937   -1.826285   -0.193211
     11          9           0        1.197863    1.202396   -0.560947
     12          9           0        2.200386   -0.769742   -0.290539
     13          9           0        0.998702    0.109274    1.376380
 ---------------------------------------------------------------------
 Rotational constants (GHZ):      3.4558742      1.3538637      1.2126677
 Leave Link  202 at Wed May 26 09:20:56 2021, MaxMem=  2147483648 cpu:         0.0
 (Enter /opt/cluster/programs/g09_d.01/g09/l9999.exe)
 1\1\GINC-NODE14\FOpt\RwB97XD\6-31+G\C4H5F3O1\BOITTIER\26-May-2021\0\\#
 p wB97XD/6-31+G Opt=ModRedun\\N.pdb\\0,1\C,1.738976,1.258277,0.03393\C
 ,1.531864,-0.226964,0.095502\H,1.14063,1.697438,-0.771954\H,2.793649,1
 .464281,-0.150726\H,1.422066,1.73686,0.966169\C,0.174028,-0.78637,0.52
 2654\O,2.440412,-1.030297,-0.133668\C,-1.036303,-0.066522,0.004424\H,0
 .119597,-0.777802,1.617648\H,0.121937,-1.826285,0.193211\F,-1.197863,1
 .202396,0.560947\F,-2.200386,-0.769742,0.290539\F,-0.998702,0.109274,-
 1.37638\\Version=ES64L-G09RevD.01\State=1-A\HF=-529.9278781\RMSD=4.431
 e-09\RMSF=5.932e-05\Dipole=0.0776626,0.3980912,0.6372013\Quadrupole=-5
 .6058044,2.4272264,3.178578,4.8752211,0.9280557,-1.0593036\PG=C01 [X(C
 4H5F3O1)]\\@


 THE MEEK SHALL INHERIT THE EARTH.
 (THE REST OF US WILL ESCAPE TO THE STARS)
 Job cpu time:       0 days  0 hours  0 minutes 50.6 seconds.
 File lengths (MBytes):  RWF=      7 Int=      0 D2E=      0 Chk=      3 Scr=      1
 Normal termination of Gaussian 09 at Wed May 26 09:20:56 2021.
