O.pdb                                                                   
FOpt      RwB97XD                                                     6-31+G              
Number of atoms                            I               11
Info1-9                                    I   N=           9
          22          22           0           0           0         100
           2          18        -802
Charge                                     I                0
Multiplicity                               I                1
Number of electrons                        I               40
Number of alpha electrons                  I               20
Number of beta electrons                   I               20
Number of basis functions                  I               77
Number of independent functions            I               77
Number of point charges in /Mol/           I                0
Number of translation vectors              I                0
Atomic numbers                             I   N=          11
           6           6           1           1           1           8
           8           6           1           1           1
Nuclear charges                            R   N=          11
  6.00000000E+00  6.00000000E+00  1.00000000E+00  1.00000000E+00  1.00000000E+00
  8.00000000E+00  8.00000000E+00  6.00000000E+00  1.00000000E+00  1.00000000E+00
  1.00000000E+00
Current cartesian coordinates              R   N=          33
 -1.80766713E+00  2.39681692E+00 -3.59179301E-02 -1.09185345E+00 -3.56923985E-01
 -6.12289219E-02 -7.83891197E-01  3.43128722E+00  1.43650565E+00 -3.82785055E+00
  2.57111353E+00  3.22134149E-01 -1.33967663E+00  3.25451268E+00 -1.85740416E+00
  1.33643528E+00 -8.91328611E-01 -8.89716984E-01 -2.55671023E+00 -2.09034171E+00
  3.67504584E-01  3.49505412E+00  1.84742342E-01  4.40731472E-01  3.52521185E+00
  2.24822313E+00  2.89904870E-01  5.14566958E+00 -6.01271912E-01 -4.97532671E-01
  3.46953537E+00 -3.98313764E-01  2.42258364E+00
Force Field                                I                0
Int Atom Types                             I   N=          11
           0           0           0           0           0           0
           0           0           0           0           0
MM charges                                 R   N=          11
  0.00000000E+00  0.00000000E+00  0.00000000E+00  0.00000000E+00  0.00000000E+00
  0.00000000E+00  0.00000000E+00  0.00000000E+00  0.00000000E+00  0.00000000E+00
  0.00000000E+00
Integer atomic weights                     I   N=          11
          12          12           1           1           1          16
          16          12           1           1           1
Real atomic weights                        R   N=          11
  1.20000000E+01  1.20000000E+01  1.00782504E+00  1.00782504E+00  1.00782504E+00
  1.59949146E+01  1.59949146E+01  1.20000000E+01  1.00782504E+00  1.00782504E+00
  1.00782504E+00
Atom fragment info                         I   N=          11
           0           0           0           0           0           0
           0           0           0           0           0
Atom residue num                           I   N=          11
           0           0           0           0           0           0
           0           0           0           0           0
Nuclear spins                              I   N=          11
           0           0           1           1           1           0
           0           0           1           1           1
Nuclear ZEff                               R   N=          11
 -3.60000000E+00 -3.60000000E+00 -1.00000000E+00 -1.00000000E+00 -1.00000000E+00
 -5.60000000E+00 -5.60000000E+00 -3.60000000E+00 -1.00000000E+00 -1.00000000E+00
 -1.00000000E+00
Nuclear ZNuc                               R   N=          11
  6.00000000E+00  6.00000000E+00  1.00000000E+00  1.00000000E+00  1.00000000E+00
  8.00000000E+00  8.00000000E+00  6.00000000E+00  1.00000000E+00  1.00000000E+00
  1.00000000E+00
Nuclear QMom                               R   N=          11
  0.00000000E+00  0.00000000E+00  0.00000000E+00  0.00000000E+00  0.00000000E+00
  0.00000000E+00  0.00000000E+00  0.00000000E+00  0.00000000E+00  0.00000000E+00
  0.00000000E+00
Nuclear GFac                               R   N=          11
  0.00000000E+00  0.00000000E+00  2.79284600E+00  2.79284600E+00  2.79284600E+00
  0.00000000E+00  0.00000000E+00  0.00000000E+00  2.79284600E+00  2.79284600E+00
  2.79284600E+00
MicOpt                                     I   N=          11
          -1          -1          -1          -1          -1          -1
          -1          -1          -1          -1          -1
Number of contracted shells                I               32
Number of primitive shells                 I               79
Pure/Cartesian d shells                    I                1
Pure/Cartesian f shells                    I                0
Highest angular momentum                   I                1
Largest degree of contraction              I                6
Shell types                                I   N=          32
           0          -1          -1          -1           0          -1
          -1          -1           0           0           0           0
           0           0           0          -1          -1          -1
           0          -1          -1          -1           0          -1
          -1          -1           0           0           0           0
           0           0
Number of primitives per shell             I   N=          32
           6           3           1           1           6           3
           1           1           3           1           3           1
           3           1           6           3           1           1
           6           3           1           1           6           3
           1           1           3           1           3           1
           3           1
Shell to atom map                          I   N=          32
           1           1           1           1           2           2
           2           2           3           3           4           4
           5           5           6           6           6           6
           7           7           7           7           8           8
           8           8           9           9          10          10
          11          11
Primitive exponents                        R   N=          79
  3.04752488E+03  4.57369518E+02  1.03948685E+02  2.92101553E+01  9.28666296E+00
  3.16392696E+00  7.86827235E+00  1.88128854E+00  5.44249258E-01  1.68714478E-01
  4.38000000E-02  3.04752488E+03  4.57369518E+02  1.03948685E+02  2.92101553E+01
  9.28666296E+00  3.16392696E+00  7.86827235E+00  1.88128854E+00  5.44249258E-01
  1.68714478E-01  4.38000000E-02  1.87311370E+01  2.82539436E+00  6.40121692E-01
  1.61277759E-01  1.87311370E+01  2.82539436E+00  6.40121692E-01  1.61277759E-01
  1.87311370E+01  2.82539436E+00  6.40121692E-01  1.61277759E-01  5.48467166E+03
  8.25234946E+02  1.88046958E+02  5.29645000E+01  1.68975704E+01  5.79963534E+00
  1.55396162E+01  3.59993359E+00  1.01376175E+00  2.70005823E-01  8.45000000E-02
  5.48467166E+03  8.25234946E+02  1.88046958E+02  5.29645000E+01  1.68975704E+01
  5.79963534E+00  1.55396162E+01  3.59993359E+00  1.01376175E+00  2.70005823E-01
  8.45000000E-02  3.04752488E+03  4.57369518E+02  1.03948685E+02  2.92101553E+01
  9.28666296E+00  3.16392696E+00  7.86827235E+00  1.88128854E+00  5.44249258E-01
  1.68714478E-01  4.38000000E-02  1.87311370E+01  2.82539436E+00  6.40121692E-01
  1.61277759E-01  1.87311370E+01  2.82539436E+00  6.40121692E-01  1.61277759E-01
  1.87311370E+01  2.82539436E+00  6.40121692E-01  1.61277759E-01
Contraction coefficients                   R   N=          79
  1.83473713E-03  1.40373228E-02  6.88426223E-02  2.32184443E-01  4.67941348E-01
  3.62311985E-01 -1.19332420E-01 -1.60854152E-01  1.14345644E+00  1.00000000E+00
  1.00000000E+00  1.83473713E-03  1.40373228E-02  6.88426223E-02  2.32184443E-01
  4.67941348E-01  3.62311985E-01 -1.19332420E-01 -1.60854152E-01  1.14345644E+00
  1.00000000E+00  1.00000000E+00  3.34946043E-02  2.34726953E-01  8.13757326E-01
  1.00000000E+00  3.34946043E-02  2.34726953E-01  8.13757326E-01  1.00000000E+00
  3.34946043E-02  2.34726953E-01  8.13757326E-01  1.00000000E+00  1.83107443E-03
  1.39501722E-02  6.84450781E-02  2.32714336E-01  4.70192898E-01  3.58520853E-01
 -1.10777550E-01 -1.48026263E-01  1.13076702E+00  1.00000000E+00  1.00000000E+00
  1.83107443E-03  1.39501722E-02  6.84450781E-02  2.32714336E-01  4.70192898E-01
  3.58520853E-01 -1.10777550E-01 -1.48026263E-01  1.13076702E+00  1.00000000E+00
  1.00000000E+00  1.83473713E-03  1.40373228E-02  6.88426223E-02  2.32184443E-01
  4.67941348E-01  3.62311985E-01 -1.19332420E-01 -1.60854152E-01  1.14345644E+00
  1.00000000E+00  1.00000000E+00  3.34946043E-02  2.34726953E-01  8.13757326E-01
  1.00000000E+00  3.34946043E-02  2.34726953E-01  8.13757326E-01  1.00000000E+00
  3.34946043E-02  2.34726953E-01  8.13757326E-01  1.00000000E+00
P(S=P) Contraction coefficients            R   N=          79
  0.00000000E+00  0.00000000E+00  0.00000000E+00  0.00000000E+00  0.00000000E+00
  0.00000000E+00  6.89990666E-02  3.16423961E-01  7.44308291E-01  1.00000000E+00
  1.00000000E+00  0.00000000E+00  0.00000000E+00  0.00000000E+00  0.00000000E+00
  0.00000000E+00  0.00000000E+00  6.89990666E-02  3.16423961E-01  7.44308291E-01
  1.00000000E+00  1.00000000E+00  0.00000000E+00  0.00000000E+00  0.00000000E+00
  0.00000000E+00  0.00000000E+00  0.00000000E+00  0.00000000E+00  0.00000000E+00
  0.00000000E+00  0.00000000E+00  0.00000000E+00  0.00000000E+00  0.00000000E+00
  0.00000000E+00  0.00000000E+00  0.00000000E+00  0.00000000E+00  0.00000000E+00
  7.08742682E-02  3.39752839E-01  7.27158577E-01  1.00000000E+00  1.00000000E+00
  0.00000000E+00  0.00000000E+00  0.00000000E+00  0.00000000E+00  0.00000000E+00
  0.00000000E+00  7.08742682E-02  3.39752839E-01  7.27158577E-01  1.00000000E+00
  1.00000000E+00  0.00000000E+00  0.00000000E+00  0.00000000E+00  0.00000000E+00
  0.00000000E+00  0.00000000E+00  6.89990666E-02  3.16423961E-01  7.44308291E-01
  1.00000000E+00  1.00000000E+00  0.00000000E+00  0.00000000E+00  0.00000000E+00
  0.00000000E+00  0.00000000E+00  0.00000000E+00  0.00000000E+00  0.00000000E+00
  0.00000000E+00  0.00000000E+00  0.00000000E+00  0.00000000E+00
Coordinates of each shell                  R   N=          96
 -1.80766713E+00  2.39681692E+00 -3.59179301E-02 -1.80766713E+00  2.39681692E+00
 -3.59179301E-02 -1.80766713E+00  2.39681692E+00 -3.59179301E-02 -1.80766713E+00
  2.39681692E+00 -3.59179301E-02 -1.09185345E+00 -3.56923985E-01 -6.12289219E-02
 -1.09185345E+00 -3.56923985E-01 -6.12289219E-02 -1.09185345E+00 -3.56923985E-01
 -6.12289219E-02 -1.09185345E+00 -3.56923985E-01 -6.12289219E-02 -7.83891197E-01
  3.43128722E+00  1.43650565E+00 -7.83891197E-01  3.43128722E+00  1.43650565E+00
 -3.82785055E+00  2.57111353E+00  3.22134149E-01 -3.82785055E+00  2.57111353E+00
  3.22134149E-01 -1.33967663E+00  3.25451268E+00 -1.85740416E+00 -1.33967663E+00
  3.25451268E+00 -1.85740416E+00  1.33643528E+00 -8.91328611E-01 -8.89716984E-01
  1.33643528E+00 -8.91328611E-01 -8.89716984E-01  1.33643528E+00 -8.91328611E-01
 -8.89716984E-01  1.33643528E+00 -8.91328611E-01 -8.89716984E-01 -2.55671023E+00
 -2.09034171E+00  3.67504584E-01 -2.55671023E+00 -2.09034171E+00  3.67504584E-01
 -2.55671023E+00 -2.09034171E+00  3.67504584E-01 -2.55671023E+00 -2.09034171E+00
  3.67504584E-01  3.49505412E+00  1.84742342E-01  4.40731472E-01  3.49505412E+00
  1.84742342E-01  4.40731472E-01  3.49505412E+00  1.84742342E-01  4.40731472E-01
  3.49505412E+00  1.84742342E-01  4.40731472E-01  3.52521185E+00  2.24822313E+00
  2.89904870E-01  3.52521185E+00  2.24822313E+00  2.89904870E-01  5.14566958E+00
 -6.01271912E-01 -4.97532671E-01  5.14566958E+00 -6.01271912E-01 -4.97532671E-01
  3.46953537E+00 -3.98313764E-01  2.42258364E+00  3.46953537E+00 -3.98313764E-01
  2.42258364E+00
Constraint Structure                       R   N=          33
 -1.80766713E+00  2.39681692E+00 -3.59179301E-02 -1.09185345E+00 -3.56923985E-01
 -6.12289219E-02 -7.83891197E-01  3.43128722E+00  1.43650565E+00 -3.82785055E+00
  2.57111353E+00  3.22134149E-01 -1.33967663E+00  3.25451268E+00 -1.85740416E+00
  1.33643528E+00 -8.91328611E-01 -8.89716984E-01 -2.55671023E+00 -2.09034171E+00
  3.67504584E-01  3.49505412E+00  1.84742342E-01  4.40731472E-01  3.52521185E+00
  2.24822313E+00  2.89904870E-01  5.14566958E+00 -6.01271912E-01 -4.97532671E-01
  3.46953537E+00 -3.98313764E-01  2.42258364E+00
Num ILSW                                   I              100
ILSW                                       I   N=         100
           0           1           0           0           2           0
           0           0           0           0        4639          -1
           0           0           0           0           2           0
           0           0           0           0           1           0
           1           0           0           0           0           0
           0           0      100000           0          -1           0
           0           0           0           0           0           0
           0           0           0           1           0           0
           0           0           1           0           0           0
           0           0         121          41           0           0
           0           0          58           0           0           0
           0           0           0          11           0           0
           0           0           0           0           0           0
           0           0           0           0           0           0
           0           0           0           0           0           0
           0           0           0           0           0           0
           0           0           0           0
Num RLSW                                   I               41
RLSW                                       R   N=          41
  1.00000000E+00  1.00000000E+00  1.00000000E+00  1.00000000E+00  1.00000000E+00
  0.00000000E+00  2.00000000E-01  2.22036000E-01  0.00000000E+00  7.77964000E-01
  0.00000000E+00  2.00000000E-01  0.00000000E+00  0.00000000E+00  1.00000000E+00
  0.00000000E+00  0.00000000E+00  1.00000000E+00  0.00000000E+00  0.00000000E+00
  0.00000000E+00  0.00000000E+00  1.00000000E+00  0.00000000E+00  0.00000000E+00
  0.00000000E+00  0.00000000E+00  1.00000000E+00  0.00000000E+00  0.00000000E+00
  0.00000000E+00  0.00000000E+00  1.00000000E+00  0.00000000E+00  0.00000000E+00
  0.00000000E+00  0.00000000E+00  0.00000000E+00  1.00000000E+00  1.00000000E+00
  0.00000000E+00
MxBond                                     I                4
NBond                                      I   N=          11
           4           3           1           1           1           2
           1           4           1           1           1
IBond                                      I   N=          44
           2           3           4           5           1           6
           7           0           1           0           0           0
           1           0           0           0           1           0
           0           0           2           8           0           0
           2           0           0           0           6           9
          10          11           8           0           0           0
           8           0           0           0           8           0
           0           0
RBond                                      R   N=          44
  1.00000000E+00  1.00000000E+00  1.00000000E+00  1.00000000E+00  1.00000000E+00
  1.50000000E+00  2.00000000E+00  0.00000000E+00  1.00000000E+00  0.00000000E+00
  0.00000000E+00  0.00000000E+00  1.00000000E+00  0.00000000E+00  0.00000000E+00
  0.00000000E+00  1.00000000E+00  0.00000000E+00  0.00000000E+00  0.00000000E+00
  1.50000000E+00  1.00000000E+00  0.00000000E+00  0.00000000E+00  2.00000000E+00
  0.00000000E+00  0.00000000E+00  0.00000000E+00  1.00000000E+00  1.00000000E+00
  1.00000000E+00  1.00000000E+00  1.00000000E+00  0.00000000E+00  0.00000000E+00
  0.00000000E+00  1.00000000E+00  0.00000000E+00  0.00000000E+00  0.00000000E+00
  1.00000000E+00  0.00000000E+00  0.00000000E+00  0.00000000E+00
Virial Ratio                               R      2.005730870590539E+00
SCF Energy                                 R     -2.682016467170248E+02
Total Energy                               R     -2.682016467170248E+02
RMS Force                                  R      2.083229217636731E-03
RMS Density                                R      3.738545924153668E-09
External E-field                           R   N=          35
  0.00000000E+00  0.00000000E+00  0.00000000E+00  0.00000000E+00  0.00000000E+00
  0.00000000E+00  0.00000000E+00  0.00000000E+00  0.00000000E+00  0.00000000E+00
  0.00000000E+00  0.00000000E+00  0.00000000E+00  0.00000000E+00  0.00000000E+00
  0.00000000E+00  0.00000000E+00  0.00000000E+00  0.00000000E+00  0.00000000E+00
  0.00000000E+00  0.00000000E+00  0.00000000E+00  0.00000000E+00  0.00000000E+00
  0.00000000E+00  0.00000000E+00  0.00000000E+00  0.00000000E+00  0.00000000E+00
  0.00000000E+00  0.00000000E+00  0.00000000E+00  0.00000000E+00  0.00000000E+00
IOpCl                                      I                0
IROHF                                      I                0
Alpha Orbital Energies                     R   N=          77
 -1.93115448E+01 -1.92818328E+01 -1.04537432E+01 -1.03685478E+01 -1.03192516E+01
 -1.21536094E+00 -1.13952057E+00 -8.72453739E-01 -8.31839665E-01 -6.68904921E-01
 -6.01399220E-01 -5.86265290E-01 -5.75450331E-01 -5.37576451E-01 -5.20322000E-01
 -5.09110334E-01 -4.75058112E-01 -4.25657046E-01 -3.85153633E-01 -3.65022206E-01
  4.45579992E-02  6.44147252E-02  7.71959313E-02  9.46578668E-02  9.63055788E-02
  1.18132337E-01  1.25153216E-01  1.28855715E-01  1.45696046E-01  1.47979364E-01
  1.63507824E-01  1.71277769E-01  1.93159237E-01  2.17185903E-01  2.38935422E-01
  2.71659697E-01  2.71940826E-01  2.87809992E-01  2.96926203E-01  3.22036501E-01
  3.29544814E-01  3.50623735E-01  3.63319894E-01  3.75839244E-01  3.88887937E-01
  3.98972695E-01  4.09001669E-01  4.28127148E-01  4.43227329E-01  4.55758413E-01
  5.64773042E-01  6.85520829E-01  7.20530380E-01  7.38910987E-01  7.59317258E-01
  7.84177544E-01  7.97609436E-01  8.55560139E-01  9.26933890E-01  9.37047470E-01
  1.07193246E+00  1.10145684E+00  1.10852373E+00  1.14951884E+00  1.16560492E+00
  1.20910033E+00  1.23922566E+00  1.29296338E+00  1.34178521E+00  1.37832639E+00
  1.42526869E+00  1.43695304E+00  1.44331879E+00  1.49412037E+00  1.61704125E+00
  1.91234630E+00  2.01079977E+00
Alpha MO coefficients                      R   N=        5929
 -2.14955508E-05 -4.15796507E-04 -1.00009318E-04  1.23491522E-04  2.89843740E-05
  1.33270897E-03 -1.41120672E-03 -4.94372642E-04  3.49837579E-04  1.58456813E-02
  2.26220556E-03 -3.49118939E-03 -2.09539760E-04  8.17486037E-05  3.64234168E-04
  3.99642668E-04 -2.77499826E-05 -7.17594123E-05  1.59884743E-03  5.11475387E-03
 -3.16212482E-04 -1.38039182E-03 -1.96023039E-02 -1.92471402E-03 -5.29198015E-03
  4.68311053E-04  1.33954539E-04 -5.28504353E-04 -1.91313195E-04 -7.86246698E-04
  7.94543473E-05 -4.68098434E-04  9.95228485E-01  2.97502072E-02 -3.96475496E-04
  1.19524569E-03  1.35408603E-03 -2.10957408E-02  1.38980812E-03 -2.14231443E-03
 -2.38378910E-03  1.04794103E-02 -2.52948495E-04  1.16551142E-03  4.88000405E-04
 -6.82600633E-04 -3.07649793E-04 -4.32015061E-05 -1.03755908E-04  1.86981213E-05
  1.25528828E-03 -4.02088189E-04  9.77997310E-04  3.45296192E-05  1.31511055E-03
  2.40596796E-04  7.75309301E-04  1.30876120E-04 -2.83204571E-06  5.99382461E-05
 -6.22694577E-04 -2.09330116E-04 -2.36437895E-04  3.16720902E-03 -8.03034343E-04
 -4.19852479E-04 -6.19072400E-04 -4.96306904E-04  9.09688088E-04  1.74379724E-04
  7.32930748E-04 -2.94068774E-04 -8.39354725E-04 -2.11864105E-04 -1.01510846E-03
 -2.88936404E-04 -5.93424880E-04 -2.21927599E-05 -3.79612339E-04 -2.26863597E-05
  1.30414535E-04 -2.73165635E-05  2.84729892E-03  2.49975546E-03 -6.06936780E-04
 -3.27844885E-04  1.05390941E-02 -2.06737540E-04 -2.85153248E-03  2.98789691E-04
  2.30440409E-04  2.46144712E-04 -3.15207114E-06  1.55814933E-04  3.92288825E-05
  8.07419444E-03 -4.95910623E-03 -8.16008456E-03  1.32912937E-03 -1.37308290E-02
  3.13179506E-03 -1.87422246E-03 -1.00485540E-03 -1.16638386E-04 -5.86704685E-04
  1.61598173E-04  3.78606374E-04 -1.41949784E-04 -3.32737748E-04  6.76799086E-04
 -2.06869819E-04  1.13463769E-04 -8.68459459E-05 -4.37615471E-05  4.29613057E-04
  2.19344176E-04  1.23662275E-03 -8.99365189E-05 -1.56535026E-03  1.68528090E-03
  4.36228299E-04 -7.59330450E-04  9.95234272E-01  2.98121466E-02  1.46208469E-03
  1.71328231E-03 -4.27023673E-04 -2.35640762E-02 -3.87065358E-03 -4.21608498E-03
  1.13425536E-03  7.90729985E-03  5.77805442E-04  6.08567253E-04 -2.65621228E-05
 -2.78921610E-05 -2.90677010E-04  9.61473097E-05 -3.38617373E-05  1.45685301E-05
  6.60171986E-04 -6.60253448E-04  1.96284718E-04  6.21609993E-04 -3.86043526E-04
 -3.04424113E-05 -7.60122558E-05  5.79000390E-04 -3.53756997E-05 -2.27594295E-04
  6.70403760E-05  1.27652702E-04 -3.82518383E-05 -4.38330869E-04  7.14146248E-04
 -7.95930012E-04  1.01451682E-04  3.13734565E-04 -1.01966769E-05  6.49589093E-03
 -3.82709060E-04 -2.74145830E-03 -6.63369982E-06  2.11979572E-03  2.24530810E-04
  5.13992055E-04  9.28867576E-05  9.95551805E-01  3.67920826E-02  1.93103488E-04
 -1.18263717E-03 -1.63729023E-04 -3.39295559E-02 -1.75153550E-04 -5.94268973E-04
  5.27303880E-04 -1.13760043E-02 -3.08340123E-03 -1.54576176E-03  2.51462137E-04
 -1.80748722E-04  6.88832889E-05 -1.45937392E-04 -1.57314075E-03 -1.67785338E-04
 -2.67603875E-04  4.59307119E-05  4.42962162E-04  1.67789243E-04 -5.33297269E-05
 -6.73390156E-05 -1.35442922E-04  3.39217133E-04  5.49551396E-05 -1.82353150E-04
  9.45433111E-03 -5.93199122E-03  2.62501147E-03  1.49565992E-03 -1.52313154E-04
 -3.25828563E-05 -3.22785737E-04 -3.90556195E-04  1.06494721E-04  6.84736938E-04
 -3.35623528E-04 -1.50099481E-05 -1.94944556E-06  8.66256326E-03  2.94028985E-03
  4.14559751E-03 -7.00882405E-04 -1.19953672E-04 -4.68445100E-04  1.02180988E-04
  8.23838518E-06 -9.78496126E-05  7.44403310E-04 -7.18403565E-04  2.68882610E-04
  1.11976075E-03  5.48006355E-03 -1.58953447E-03 -6.61289654E-04 -6.26896469E-04
 -1.23457427E-05 -1.26702803E-03  1.47176514E-05  1.28693792E-03 -1.84784229E-04
 -1.38764811E-03 -2.15142700E-05  1.89378062E-04 -1.03626162E-04  1.08731282E-04
 -3.65708732E-05 -2.21215232E-03 -1.30282177E-03  8.20848739E-04  2.71408309E-04
  7.29020563E-03  4.03213128E-04 -1.51765842E-03  6.40531279E-04  8.03539382E-06
 -5.03879825E-04 -8.09470121E-05 -9.37255128E-05  3.45557695E-05 -9.92313138E-05
  1.70903718E-03  2.61083160E-03 -6.68289561E-04 -4.99786932E-05  3.35915952E-03
 -3.37626641E-03 -1.47064523E-03  2.88610340E-05  8.68882040E-05 -1.93183345E-05
 -6.20773742E-04  2.36181288E-04 -3.74302342E-04  5.65379711E-05  5.11911284E-04
 -7.59314230E-05  3.04351180E-05 -1.00879756E-04  2.16412752E-04  7.01485158E-04
 -3.52714658E-04  5.20679056E-04  1.35033243E-02  6.72542396E-03  3.80079694E-03
  3.97118166E-03 -1.82281869E-05 -2.31072008E-04  1.56589580E-06  5.29015350E-06
  5.36396415E-05  1.81807139E-03  4.55540160E-04  3.46875599E-04 -3.64144830E-04
  1.48343716E-03  1.91101976E-05  9.18777044E-04 -2.83810437E-04  9.95542071E-01
  3.71359668E-02 -9.69796825E-04 -3.75235551E-04 -5.05674023E-04 -3.57987440E-02
  2.83111346E-03  1.34027119E-03  1.44081459E-03 -1.28181608E-02  4.02193587E-03
  1.31395524E-03  1.57257509E-03 -5.88926456E-04  5.72043827E-03 -4.94040585E-04
  5.41452231E-03 -5.20993215E-04  5.90379938E-03  9.95477423E-01  3.75726876E-02
  2.90932977E-04 -1.81462580E-04  5.73222494E-06 -3.91242561E-02 -1.39791332E-03
  3.55517095E-03  1.07870191E-04 -9.96312854E-03 -2.79624350E-04  1.92345915E-03
  1.02124492E-04 -6.98065031E-04 -8.21451373E-04  1.92119654E-04 -7.04588549E-04
  1.06950623E-05  6.05089483E-03 -2.99938448E-03  8.48877163E-03  2.25456087E-04
  7.88493416E-03 -9.90283409E-04  1.92087347E-03  2.00718109E-04 -5.30459465E-04
  7.67037160E-03 -4.98643827E-04  7.01892792E-03 -4.99190473E-04  7.65068426E-03
 -1.24161168E-05 -3.57138528E-04  1.73042058E-04 -9.70276744E-05 -8.87170990E-05
  7.88328693E-04 -1.02321090E-03 -1.73045621E-04  5.77846945E-04  4.91851113E-03
 -1.36381887E-04  9.10006631E-04  1.19490471E-03 -1.03993879E-05 -2.92126791E-04
 -9.76256502E-05 -7.77527637E-05  1.91805216E-05  9.70358461E-04  1.10237444E-03
 -2.12157040E-04 -2.16606124E-04  1.67953827E-03  8.31976444E-04  7.66187064E-04
 -3.43932581E-04  8.86777576E-05  1.27909217E-04  1.43415396E-04 -1.13130161E-04
  5.62622886E-06 -1.49417994E-03  2.20045510E-04  2.89112821E-04 -1.83494688E-04
 -1.95739298E-03  1.13754891E-03 -1.21496908E-04  8.38850600E-05 -2.20377315E-04
  6.66729318E-04  3.77296427E-05 -6.21963397E-05  1.17258618E-04 -2.04322529E-05
 -1.85397453E-02  3.67156026E-02  7.01820497E-03 -2.59421878E-02 -5.35512882E-04
 -3.52098175E-03 -1.91348461E-03  8.33293120E-03 -6.70192570E-04 -1.43018310E-01
 -7.67167706E-03  3.43233481E-02 -3.38872233E-03 -1.23518688E-01  2.53201624E-01
 -5.26057280E-03 -1.09001215E-01  3.17866470E-04  4.61356817E-02  3.20621569E-03
  5.49922319E-02  6.03028870E-04  1.55827052E-01 -1.68622674E-02  4.83650115E-02
  6.96926581E-03  5.28499849E-03  1.76152928E-03  5.87112832E-03  2.51749490E-03
  5.98021281E-03 -1.76868485E-04 -1.35914443E-01  2.91314316E-01 -4.75876569E-02
  4.11966180E-02  6.12264893E-02  3.19410535E-01 -2.35310154E-02  2.72302196E-02
  4.20906437E-02 -3.86505378E-02 -4.52368227E-04 -1.83592349E-02 -7.94994700E-03
 -1.29026947E-01  2.83213747E-01  8.92287742E-02  9.58533993E-02 -2.61464459E-02
  2.74464919E-01  3.58944988E-02  3.54734890E-02 -1.03358169E-02 -1.31038018E-02
  4.89547910E-03 -6.88218303E-03 -3.14842493E-03 -3.64598336E-02  7.03484257E-02
 -4.36536097E-02 -1.79432469E-02 -2.16841080E-02  2.17338393E-02  8.65443969E-03
  2.34110021E-03  2.81929014E-04  1.45639887E-02 -1.00340028E-02 -9.66030014E-04
 -5.97801193E-03  1.16914464E-02  2.54965926E-03  9.98445503E-03  3.88814041E-04
  1.18023708E-02  4.07310420E-03  2.08752810E-03 -4.77539236E-03  1.08541712E-02
  7.27762339E-03 -3.20195362E-03  1.15475279E-02  2.66482787E-02 -1.79253544E-03
 -4.88503885E-03 -8.45110640E-02 -1.51871747E-02  1.68546100E-02  1.26911599E-04
  3.47607744E-02 -7.59397166E-02  1.91269561E-01  1.05659635E-01 -5.41867654E-02
  2.74391930E-03 -6.74070885E-02 -4.84117035E-02  1.88944129E-02  8.74880560E-02
  1.02747244E-02  3.78228731E-02  1.10833556E-03 -2.25408317E-04  3.34725067E-04
 -2.72792640E-03  9.02912020E-03  5.01204332E-04  2.93853638E-04 -1.48460641E-01
  3.20176645E-01  3.77849538E-03  6.08626220E-02  6.17459897E-02  3.72620075E-01
 -6.37942591E-03  4.65565374E-02  4.22728507E-02 -1.45459920E-02 -1.00341450E-02
 -4.83842920E-03 -5.89653225E-03  1.44226817E-01 -3.17045051E-01 -7.35652055E-02
 -1.03355458E-01  2.14619609E-02 -3.31297196E-01 -3.15324688E-02 -4.61198103E-02
  9.93640998E-03 -3.32298233E-02 -9.95753361E-03 -1.97735291E-02  6.42914242E-04
 -5.47398039E-02  1.00901718E-01 -5.81172452E-02 -2.57728918E-02 -3.27099645E-02
  5.78391787E-02 -3.87577621E-03  6.53790535E-03  1.01471648E-02  1.20994431E-02
 -8.66551302E-03 -3.45252794E-03 -2.86941072E-03  1.74281214E-02 -3.90127788E-03
  1.80804168E-02  7.55285799E-03  1.76580975E-02 -7.55690591E-03 -1.71970337E-01
  3.22083483E-01  2.14613826E-02 -4.28410483E-02 -3.11338560E-03  3.36210345E-01
  1.01849791E-02 -7.31779166E-03 -2.08626760E-03  1.11088269E-01  4.65496427E-03
 -2.82448223E-02  1.17155942E-03 -7.58307227E-02  1.60048583E-01  2.46129478E-02
  1.81423709E-01 -2.40919657E-02  1.17038658E-01  3.09763448E-03  2.19874987E-02
 -1.46376481E-03 -6.19586954E-02  2.90959760E-02 -1.81339750E-02 -5.90010022E-03
  1.04811106E-01  4.92996077E-03  9.85585157E-02  4.00002400E-03  1.05422567E-01
  2.45618473E-03  1.99851162E-02 -4.53359173E-02 -1.12009380E-01  2.09481471E-02
 -1.82874340E-02 -5.65964851E-02 -4.95149288E-02  5.85828910E-03 -1.10288714E-02
  2.07813855E-03  2.05143589E-02  1.37148812E-03  2.72046997E-03  4.96354027E-02
 -1.14752582E-01 -2.12828090E-02  1.26762743E-02  1.79517711E-03 -1.22878330E-01
 -5.73369123E-03  4.73399839E-03 -5.51984539E-04 -4.58510741E-03 -7.20883114E-03
 -6.94317155E-03  9.18668253E-04  6.39563284E-02 -1.26480749E-01  8.31243468E-03
  2.26757931E-02  1.65342998E-02 -1.17441931E-01 -5.85434293E-03  3.91611273E-03
  1.21394212E-03 -4.27563417E-02  1.31686788E-02  3.58599439E-03  7.33135606E-03
 -3.09579576E-02 -1.61781098E-03 -4.37596436E-02 -5.08964916E-03 -3.72715174E-02
 -4.03303847E-03 -7.33991574E-02  1.35308267E-01 -8.70362259E-03  6.89806651E-03
  1.02490311E-02  1.62323612E-01  1.33932886E-04 -3.86478367E-03  2.47213201E-03
  7.08616396E-02  7.65329942E-03 -1.65421144E-02 -4.00257014E-03  2.57141223E-02
 -6.02971145E-02 -1.41215405E-01  8.07696452E-02  6.31095872E-02 -5.33848071E-02
  4.72545365E-03  8.97485156E-03  6.39454697E-03 -1.17222561E-01 -1.47393840E-02
 -1.48429766E-02  6.57427459E-03  5.44057398E-02  8.93979785E-03  5.27491931E-02
  7.99431476E-03  4.60686908E-02  1.14790014E-03  4.76104729E-02 -1.08280620E-01
  2.17967218E-01  3.49860584E-02  2.46679589E-02 -1.53280079E-01  9.56186248E-02
  8.43502711E-03  3.45157721E-03 -3.76501287E-02 -3.15685531E-02 -8.01513482E-03
 -9.68708945E-03 -1.82522138E-02  4.04512856E-02 -3.21792290E-02  2.46442255E-02
  1.57832484E-02  5.64975889E-02 -1.01125984E-02  1.60128112E-02  5.31529760E-03
  1.74682409E-02  9.87854927E-06  5.03412685E-03  1.52436582E-04 -1.65941999E-01
  3.22906769E-01  2.39623025E-02  6.17325548E-03  2.18672760E-03  3.52917761E-01
 -1.24849313E-03  8.37532059E-03  6.30114059E-03  7.16811941E-02 -2.05426504E-02