 Entering Gaussian System, Link 0=/opt/cluster/programs/g09_d.01/g09//g09
 Input=/home/unibas/boittier/RDKit_G2/O.pdb/SCAN_1_2_6_8_S_17_20.0/17_SCAN_1_2_6_8_F/17_SCAN_O.pdb.com
 Output=/scratch/boittier/17_SCAN_O.pdb/17_SCAN_O.pdb.out
 Initial command:
 /opt/cluster/programs/g09_d.01/g09/l1.exe "/scratch/boittier/17_SCAN_O.pdb/Gau-146090.inp" -scrdir="/scratch/boittier/17_SCAN_O.pdb/"
 Entering Link 1 = /opt/cluster/programs/g09_d.01/g09/l1.exe PID=    146091.
  
 Copyright (c) 1988,1990,1992,1993,1995,1998,2003,2009,2013,
            Gaussian, Inc.  All Rights Reserved.
  
 This is part of the Gaussian(R) 09 program.  It is based on
 the Gaussian(R) 03 system (copyright 2003, Gaussian, Inc.),
 the Gaussian(R) 98 system (copyright 1998, Gaussian, Inc.),
 the Gaussian(R) 94 system (copyright 1995, Gaussian, Inc.),
 the Gaussian 92(TM) system (copyright 1992, Gaussian, Inc.),
 the Gaussian 90(TM) system (copyright 1990, Gaussian, Inc.),
 the Gaussian 88(TM) system (copyright 1988, Gaussian, Inc.),
 the Gaussian 86(TM) system (copyright 1986, Carnegie Mellon
 University), and the Gaussian 82(TM) system (copyright 1983,
 Carnegie Mellon University). Gaussian is a federally registered
 trademark of Gaussian, Inc.
  
 This software contains proprietary and confidential information,
 including trade secrets, belonging to Gaussian, Inc.
  
 This software is provided under written license and may be
 used, copied, transmitted, or stored only in accord with that
 written license.
  
 The following legend is applicable only to US Government
 contracts under FAR:
  
                    RESTRICTED RIGHTS LEGEND
  
 Use, reproduction and disclosure by the US Government is
 subject to restrictions as set forth in subparagraphs (a)
 and (c) of the Commercial Computer Software - Restricted
 Rights clause in FAR 52.227-19.
  
 Gaussian, Inc.
 340 Quinnipiac St., Bldg. 40, Wallingford CT 06492
  
  
 ---------------------------------------------------------------
 Warning -- This program may not be used in any manner that
 competes with the business of Gaussian, Inc. or will provide
 assistance to any competitor of Gaussian, Inc.  The licensee
 of this program is prohibited from giving any competitor of
 Gaussian, Inc. access to this program.  By using this program,
 the user acknowledges that Gaussian, Inc. is engaged in the
 business of creating and licensing software in the field of
 computational chemistry and represents and warrants to the
 licensee that it is not a competitor of Gaussian, Inc. and that
 it will not use this program in any manner prohibited above.
 ---------------------------------------------------------------
  

 Cite this work as:
 Gaussian 09, Revision D.01,
 M. J. Frisch, G. W. Trucks, H. B. Schlegel, G. E. Scuseria, 
 M. A. Robb, J. R. Cheeseman, G. Scalmani, V. Barone, B. Mennucci, 
 G. A. Petersson, H. Nakatsuji, M. Caricato, X. Li, H. P. Hratchian, 
 A. F. Izmaylov, J. Bloino, G. Zheng, J. L. Sonnenberg, M. Hada, 
 M. Ehara, K. Toyota, R. Fukuda, J. Hasegawa, M. Ishida, T. Nakajima, 
 Y. Honda, O. Kitao, H. Nakai, T. Vreven, J. A. Montgomery, Jr., 
 J. E. Peralta, F. Ogliaro, M. Bearpark, J. J. Heyd, E. Brothers, 
 K. N. Kudin, V. N. Staroverov, T. Keith, R. Kobayashi, J. Normand, 
 K. Raghavachari, A. Rendell, J. C. Burant, S. S. Iyengar, J. Tomasi, 
 M. Cossi, N. Rega, J. M. Millam, M. Klene, J. E. Knox, J. B. Cross, 
 V. Bakken, C. Adamo, J. Jaramillo, R. Gomperts, R. E. Stratmann, 
 O. Yazyev, A. J. Austin, R. Cammi, C. Pomelli, J. W. Ochterski, 
 R. L. Martin, K. Morokuma, V. G. Zakrzewski, G. A. Voth, 
 P. Salvador, J. J. Dannenberg, S. Dapprich, A. D. Daniels, 
 O. Farkas, J. B. Foresman, J. V. Ortiz, J. Cioslowski, 
 and D. J. Fox, Gaussian, Inc., Wallingford CT, 2013.
 
 ******************************************
 Gaussian 09:  ES64L-G09RevD.01 24-Apr-2013
                26-May-2021 
 ******************************************
 %chk=/home/unibas/boittier/RDKit_G2/O.pdb/SCAN_1_2_6_8_S_17_20.0/17_SCAN_1_2_6_8
 _F/O.pdb.chk
 %nproc=8
 Will use up to    8 processors via shared memory.
 %mem=16GB
 -----------------------------
 #p wB97XD/6-31+G Opt=ModRedun
 -----------------------------
 1/14=-1,18=120,19=15,26=3,38=1/1,3;
 2/9=110,12=2,17=6,18=5,40=1/2;
 3/5=1,6=6,7=10,11=2,16=1,25=1,30=1,71=1,74=-58/1,2,3;
 4//1;
 5/5=2,38=5/2;
 6/7=2,8=2,9=2,10=2,28=1/1;
 7//1,2,3,16;
 1/14=-1,18=20,19=15,26=3/3(2);
 2/9=110/2;
 99//99;
 2/9=110/2;
 3/5=1,6=6,7=10,11=2,16=1,25=1,30=1,71=1,74=-58/1,2,3;
 4/5=5,16=3,69=1/1;
 5/5=2,38=5/2;
 7//1,2,3,16;
 1/14=-1,18=20,19=15,26=3/3(-5);
 2/9=110/2;
 6/7=2,8=2,9=2,10=2,19=2,28=1/1;
 99/9=1/99;
 Leave Link    1 at Wed May 26 09:01:16 2021, MaxMem=  2147483648 cpu:         0.2
 (Enter /opt/cluster/programs/g09_d.01/g09/l101.exe)
 -----
 O.pdb
 -----
 Symbolic Z-matrix:
 Charge =  0 Multiplicity = 1
 C                     1.78231  -0.5606    0.08344 
 C                     0.48693   0.17246  -0.07446 
 H                     1.8454   -0.94509   1.10682 
 H                     2.61505   0.11956  -0.09508 
 H                     1.83394  -1.41325  -0.59674 
 O                    -0.57193  -0.68702  -0.18906 
 O                     0.34081   1.39388  -0.0217 
 C                    -1.90159  -0.15787   0.11159 
 H                    -1.90182   0.29231   1.10635 
 H                    -2.55983  -1.02212   0.07047 
 H                    -2.18969   0.58972  -0.62912 
 
 The following ModRedundant input section has been read:
 D       1       2       6       8 F                                           
 
 NAtoms=     11 NQM=       11 NQMF=       0 NMMI=      0 NMMIF=      0
                NMic=       0 NMicF=      0.
                    Isotopes and Nuclear Properties:
 (Nuclear quadrupole moments (NQMom) in fm**2, nuclear magnetic moments (NMagM)
  in nuclear magnetons)

  Atom         1           2           3           4           5           6           7           8           9          10
 IAtWgt=          12          12           1           1           1          16          16          12           1           1
 AtmWgt=  12.0000000  12.0000000   1.0078250   1.0078250   1.0078250  15.9949146  15.9949146  12.0000000   1.0078250   1.0078250
 NucSpn=           0           0           1           1           1           0           0           0           1           1
 AtZEff=   0.0000000   0.0000000   0.0000000   0.0000000   0.0000000   0.0000000   0.0000000   0.0000000   0.0000000   0.0000000
 NQMom=    0.0000000   0.0000000   0.0000000   0.0000000   0.0000000   0.0000000   0.0000000   0.0000000   0.0000000   0.0000000
 NMagM=    0.0000000   0.0000000   2.7928460   2.7928460   2.7928460   0.0000000   0.0000000   0.0000000   2.7928460   2.7928460
 AtZNuc=   6.0000000   6.0000000   1.0000000   1.0000000   1.0000000   8.0000000   8.0000000   6.0000000   1.0000000   1.0000000

  Atom        11
 IAtWgt=           1
 AtmWgt=   1.0078250
 NucSpn=           1
 AtZEff=   0.0000000
 NQMom=    0.0000000
 NMagM=    2.7928460
 AtZNuc=   1.0000000
 Leave Link  101 at Wed May 26 09:01:17 2021, MaxMem=  2147483648 cpu:         4.2
 (Enter /opt/cluster/programs/g09_d.01/g09/l103.exe)

 GradGradGradGradGradGradGradGradGradGradGradGradGradGradGradGradGradGrad
 Berny optimization.
 Initialization pass.
                           ----------------------------
                           !    Initial Parameters    !
                           ! (Angstroms and Degrees)  !
 --------------------------                            --------------------------
 ! Name  Definition              Value          Derivative Info.                !
 --------------------------------------------------------------------------------
 ! R1    R(1,2)                  1.4968         estimate D2E/DX2                !
 ! R2    R(1,3)                  1.095          estimate D2E/DX2                !
 ! R3    R(1,4)                  1.0899         estimate D2E/DX2                !
 ! R4    R(1,5)                  1.0919         estimate D2E/DX2                !
 ! R5    R(2,6)                  1.3686         estimate D2E/DX2                !
 ! R6    R(2,7)                  1.2313         estimate D2E/DX2                !
 ! R7    R(6,8)                  1.4623         estimate D2E/DX2                !
 ! R8    R(8,9)                  1.0919         estimate D2E/DX2                !
 ! R9    R(8,10)                 1.0871         estimate D2E/DX2                !
 ! R10   R(8,11)                 1.0911         estimate D2E/DX2                !
 ! A1    A(2,1,3)              108.6881         estimate D2E/DX2                !
 ! A2    A(2,1,4)              109.7747         estimate D2E/DX2                !
 ! A3    A(2,1,5)              110.956          estimate D2E/DX2                !
 ! A4    A(3,1,4)              109.1571         estimate D2E/DX2                !
 ! A5    A(3,1,5)              107.7727         estimate D2E/DX2                !
 ! A6    A(4,1,5)              110.4347         estimate D2E/DX2                !
 ! A7    A(1,2,6)              111.768          estimate D2E/DX2                !
 ! A8    A(1,2,7)              125.7348         estimate D2E/DX2                !
 ! A9    A(6,2,7)              122.3276         estimate D2E/DX2                !
 ! A10   A(2,6,8)              117.3254         estimate D2E/DX2                !
 ! A11   A(6,8,9)              109.6754         estimate D2E/DX2                !
 ! A12   A(6,8,10)             104.7799         estimate D2E/DX2                !
 ! A13   A(6,8,11)             110.3922         estimate D2E/DX2                !
 ! A14   A(9,8,10)             111.2289         estimate D2E/DX2                !
 ! A15   A(9,8,11)             109.6282         estimate D2E/DX2                !
 ! A16   A(10,8,11)            111.0474         estimate D2E/DX2                !
 ! D1    D(3,1,2,6)            -75.7531         estimate D2E/DX2                !
 ! D2    D(3,1,2,7)             99.58           estimate D2E/DX2                !
 ! D3    D(4,1,2,6)            164.9234         estimate D2E/DX2                !
 ! D4    D(4,1,2,7)            -19.7435         estimate D2E/DX2                !
 ! D5    D(5,1,2,6)             42.5801         estimate D2E/DX2                !
 ! D6    D(5,1,2,7)           -142.0868         estimate D2E/DX2                !
 ! D7    D(1,2,6,8)            159.3854         Frozen                          !
 ! D8    D(7,2,6,8)            -16.1318         estimate D2E/DX2                !
 ! D9    D(2,6,8,9)            -54.1779         estimate D2E/DX2                !
 ! D10   D(2,6,8,10)          -173.653          estimate D2E/DX2                !
 ! D11   D(2,6,8,11)            66.7206         estimate D2E/DX2                !
 --------------------------------------------------------------------------------
 Trust Radius=3.00D-01 FncErr=1.00D-07 GrdErr=1.00D-06
 Number of steps in this run=     47 maximum allowed number of steps=    100.
 GradGradGradGradGradGradGradGradGradGradGradGradGradGradGradGradGradGrad

 Leave Link  103 at Wed May 26 09:01:17 2021, MaxMem=  2147483648 cpu:         0.1
 (Enter /opt/cluster/programs/g09_d.01/g09/l202.exe)
                          Input orientation:                          
 ---------------------------------------------------------------------
 Center     Atomic      Atomic             Coordinates (Angstroms)
 Number     Number       Type             X           Y           Z
 ---------------------------------------------------------------------
      1          6           0        1.782306   -0.560598    0.083436
      2          6           0        0.486932    0.172462   -0.074462
      3          1           0        1.845395   -0.945089    1.106818
      4          1           0        2.615047    0.119561   -0.095076
      5          1           0        1.833941   -1.413251   -0.596738
      6          8           0       -0.571927   -0.687017   -0.189058
      7          8           0        0.340814    1.393882   -0.021701
      8          6           0       -1.901593   -0.157873    0.111588
      9          1           0       -1.901824    0.292312    1.106345
     10          1           0       -2.559828   -1.022121    0.070472
     11          1           0       -2.189692    0.589722   -0.629121
 ---------------------------------------------------------------------
                    Distance matrix (angstroms):
                    1          2          3          4          5
     1  C    0.000000
     2  C    1.496764   0.000000
     3  H    1.095045   2.118906   0.000000
     4  H    1.089927   2.128872   1.780560   0.000000
     5  H    1.091934   2.145155   1.766751   1.792011   0.000000
     6  O    2.373320   1.368583   2.754876   3.288800   2.545942
     7  O    2.430832   1.231260   3.001350   2.607952   3.231113
     8  C    3.705954   2.418427   3.956022   4.529869   4.003987
     9  H    3.917475   2.667363   3.946240   4.677112   4.445827
    10  H    4.366612   3.275787   4.526139   5.301903   4.461318
    11  H    4.196158   2.765153   4.653070   4.857136   4.494727
                    6          7          8          9         10
     6  O    0.000000
     7  O    2.278430   0.000000
     8  C    1.462325   2.730220   0.000000
     9  H    2.098995   2.741417   1.091883   0.000000
    10  H    2.032585   3.776148   1.087147   1.798259   0.000000
    11  H    2.107340   2.723801   1.091123   1.784142   1.795681
                   11
    11  H    0.000000
 Stoichiometry    C3H6O2
 Framework group  C1[X(C3H6O2)]
 Deg. of freedom    27
 Full point group                 C1      NOp   1
 Largest Abelian subgroup         C1      NOp   1
 Largest concise Abelian subgroup C1      NOp   1
                         Standard orientation:                         
 ---------------------------------------------------------------------
 Center     Atomic      Atomic             Coordinates (Angstroms)
 Number     Number       Type             X           Y           Z
 ---------------------------------------------------------------------
      1          6           0        1.782306   -0.560598    0.083436
      2          6           0        0.486932    0.172462   -0.074462
      3          1           0        1.845395   -0.945089    1.106818
      4          1           0        2.615047    0.119561   -0.095076
      5          1           0        1.833941   -1.413251   -0.596738
      6          8           0       -0.571927   -0.687017   -0.189058
      7          8           0        0.340814    1.393882   -0.021701
      8          6           0       -1.901593   -0.157873    0.111588
      9          1           0       -1.901824    0.292312    1.106345
     10          1           0       -2.559828   -1.022121    0.070472
     11          1           0       -2.189692    0.589722   -0.629121
 ---------------------------------------------------------------------
 Rotational constants (GHZ):      9.8399291      4.0597331      3.0146806
 Leave Link  202 at Wed May 26 09:01:17 2021, MaxMem=  2147483648 cpu:         0.0
 (Enter /opt/cluster/programs/g09_d.01/g09/l301.exe)
 Standard basis: 6-31+G (6D, 7F)
 Ernie: Thresh=  0.10000D-02 Tol=  0.10000D-05 Strict=F.
 There are    77 symmetry adapted cartesian basis functions of A   symmetry.
 There are    77 symmetry adapted basis functions of A   symmetry.
    77 basis functions,   154 primitive gaussians,    77 cartesian basis functions
    20 alpha electrons       20 beta electrons
       nuclear repulsion energy       179.4299863357 Hartrees.
 IExCor= 4639 DFT=T Ex+Corr=wB97XD ExCW=0 ScaHFX=  1.000000
 ScaDFX=  1.000000  1.000000  1.000000  1.000000 ScalE2=  1.000000  1.000000
 IRadAn=      0 IRanWt=     -1 IRanGd=            0 ICorTp=0 IEmpDi=121
  HFx wShort=  0.000000 wLong=  0.200000 cFull=  0.222036 cShort=  0.000000 cLong=  0.777964
  DFx wShort=  0.000000 wLong=  0.200000 cFull=  0.000000 cShort=  0.000000 cLong=  1.000000
 NAtoms=   11 NActive=   11 NUniq=   11 SFac= 1.00D+00 NAtFMM=   60 NAOKFM=F Big=F
 Integral buffers will be    131072 words long.
 Raffenetti 2 integral format.
 Two-electron integral symmetry is turned on.
 R6Disp:  Grimme-D2 Dispersion energy=       -0.0031107855 Hartrees.
 Nuclear repulsion after empirical dispersion term =      179.4268755502 Hartrees.
 Leave Link  301 at Wed May 26 09:01:17 2021, MaxMem=  2147483648 cpu:         0.3
 (Enter /opt/cluster/programs/g09_d.01/g09/l302.exe)
 NPDir=0 NMtPBC=     1 NCelOv=     1 NCel=       1 NClECP=     1 NCelD=      1
         NCelK=      1 NCelE2=     1 NClLst=     1 CellRange=     0.0.
 One-electron integrals computed using PRISM.
 NBasis=    77 RedAO= T EigKep=  9.30D-05  NBF=    77
 NBsUse=    77 1.00D-06 EigRej= -1.00D+00 NBFU=    77
 Precomputing XC quadrature grid using
 IXCGrd= 4 IRadAn=           0 IRanWt=          -1 IRanGd=           0 AccXCQ= 0.00D+00.
 Generated NRdTot=       0 NPtTot=           0 NUsed=           0 NTot=          32
 NSgBfM=    77    77    77    77    77 MxSgAt=    11 MxSgA2=    11.
 Leave Link  302 at Wed May 26 09:01:17 2021, MaxMem=  2147483648 cpu:         0.9
 (Enter /opt/cluster/programs/g09_d.01/g09/l303.exe)
 DipDrv:  MaxL=1.
 Leave Link  303 at Wed May 26 09:01:17 2021, MaxMem=  2147483648 cpu:         0.2
 (Enter /opt/cluster/programs/g09_d.01/g09/l401.exe)
 ExpMin= 4.38D-02 ExpMax= 5.48D+03 ExpMxC= 8.25D+02 IAcc=2 IRadAn=         4 AccDes= 0.00D+00
 Harris functional with IExCor= 4639 and IRadAn=       4 diagonalized for initial guess.
 HarFok:  IExCor= 4639 AccDes= 0.00D+00 IRadAn=         4 IDoV= 1 UseB2=F ITyADJ=14
 ICtDFT=  3500011 ScaDFX=  1.000000  1.000000  1.000000  1.000000
 FoFCou: FMM=F IPFlag=           0 FMFlag=      100000 FMFlg1=           0
         NFxFlg=           0 DoJE=T BraDBF=F KetDBF=T FulRan=T
         wScrn=  0.000000 ICntrl=     500 IOpCl=  0 I1Cent=   200000004 NGrid=           0
         NMat0=    1 NMatS0=      1 NMatT0=    0 NMatD0=    1 NMtDS0=    0 NMtDT0=    0
 Petite list used in FoFCou.
 Harris En= -257.368223853568    
 JPrj=0 DoOrth=F DoCkMO=F.
 Leave Link  401 at Wed May 26 09:01:17 2021, MaxMem=  2147483648 cpu:         1.4
 (Enter /opt/cluster/programs/g09_d.01/g09/l502.exe)
 Closed shell SCF:
 Using DIIS extrapolation, IDIIS=  1040.
 Integral symmetry usage will be decided dynamically.
 Keep R1 ints in memory in canonical form, NReq=9956864.
 IVT=       37546 IEndB=       37546 NGot=  2147483648 MDV=  2138425091
 LenX=  2138425091 LenY=  2138418721
 Requested convergence on RMS density matrix=1.00D-08 within 128 cycles.
 Requested convergence on MAX density matrix=1.00D-06.
 Requested convergence on             energy=1.00D-06.
 No special actions if energy rises.
 FoFCou: FMM=F IPFlag=           0 FMFlag=           0 FMFlg1=           0
         NFxFlg=           0 DoJE=F BraDBF=F KetDBF=F FulRan=T
         wScrn=  0.000000 ICntrl=     600 IOpCl=  0 I1Cent=           0 NGrid=           0
         NMat0=    1 NMatS0=   3003 NMatT0=    0 NMatD0=    1 NMtDS0=    0 NMtDT0=    0
 Symmetry not used in FoFCou.

 Cycle   1  Pass 1  IDiag  1:
 E= -268.123713291140    
 DIIS: error= 2.46D-02 at cycle   1 NSaved=   1.
 NSaved= 1 IEnMin= 1 EnMin= -268.123713291140     IErMin= 1 ErrMin= 2.46D-02
 ErrMax= 2.46D-02  0.00D+00 EMaxC= 1.00D-01 BMatC= 1.47D-01 BMatP= 1.47D-01
 IDIUse=3 WtCom= 7.54D-01 WtEn= 2.46D-01
 Coeff-Com:  0.100D+01
 Coeff-En:   0.100D+01
 Coeff:      0.100D+01
 Gap=     0.504 Goal=   None    Shift=    0.000
 GapD=    0.504 DampG=2.000 DampE=0.500 DampFc=1.0000 IDamp=-1.
 RMSDP=1.04D-02 MaxDP=2.13D-01              OVMax= 1.06D-01

 Cycle   2  Pass 1  IDiag  1:
 E= -268.134870251293     Delta-E=       -0.011156960153 Rises=F Damp=F
 DIIS: error= 3.44D-02 at cycle   2 NSaved=   2.
 NSaved= 2 IEnMin= 2 EnMin= -268.134870251293     IErMin= 1 ErrMin= 2.46D-02
 ErrMax= 3.44D-02  0.00D+00 EMaxC= 1.00D-01 BMatC= 1.11D-01 BMatP= 1.47D-01
 IDIUse=3 WtCom= 6.56D-01 WtEn= 3.44D-01
 Coeff-Com:  0.459D+00 0.541D+00
 Coeff-En:   0.465D+00 0.535D+00
 Coeff:      0.461D+00 0.539D+00
 Gap=     0.442 Goal=   None    Shift=    0.000
 RMSDP=5.91D-03 MaxDP=9.60D-02 DE=-1.12D-02 OVMax= 7.67D-02

 Cycle   3  Pass 1  IDiag  1:
 E= -268.211864188028     Delta-E=       -0.076993936736 Rises=F Damp=F
 DIIS: error= 1.02D-02 at cycle   3 NSaved=   3.
 NSaved= 3 IEnMin= 3 EnMin= -268.211864188028     IErMin= 3 ErrMin= 1.02D-02
 ErrMax= 1.02D-02  0.00D+00 EMaxC= 1.00D-01 BMatC= 1.01D-02 BMatP= 1.11D-01
 IDIUse=3 WtCom= 8.98D-01 WtEn= 1.02D-01
 Coeff-Com:  0.107D+00 0.249D+00 0.643D+00
 Coeff-En:   0.000D+00 0.000D+00 0.100D+01
 Coeff:      0.965D-01 0.224D+00 0.680D+00
 Gap=     0.446 Goal=   None    Shift=    0.000
 RMSDP=1.67D-03 MaxDP=2.61D-02 DE=-7.70D-02 OVMax= 4.31D-02

 Cycle   4  Pass 1  IDiag  1:
 E= -268.217643642752     Delta-E=       -0.005779454723 Rises=F Damp=F
 DIIS: error= 4.61D-03 at cycle   4 NSaved=   4.
 NSaved= 4 IEnMin= 4 EnMin= -268.217643642752     IErMin= 4 ErrMin= 4.61D-03
 ErrMax= 4.61D-03  0.00D+00 EMaxC= 1.00D-01 BMatC= 2.36D-03 BMatP= 1.01D-02
 IDIUse=3 WtCom= 9.54D-01 WtEn= 4.61D-02
 Coeff-Com: -0.220D-02 0.470D-01 0.374D+00 0.582D+00
 Coeff-En:   0.000D+00 0.000D+00 0.191D+00 0.809D+00
 Coeff:     -0.210D-02 0.448D-01 0.365D+00 0.592D+00
 Gap=     0.430 Goal=   None    Shift=    0.000
 RMSDP=1.35D-03 MaxDP=3.00D-02 DE=-5.78D-03 OVMax= 1.17D-02

 Cycle   5  Pass 1  IDiag  1:
 E= -268.219339370602     Delta-E=       -0.001695727850 Rises=F Damp=F
 DIIS: error= 1.17D-03 at cycle   5 NSaved=   5.
 NSaved= 5 IEnMin= 5 EnMin= -268.219339370602     IErMin= 5 ErrMin= 1.17D-03
 ErrMax= 1.17D-03  0.00D+00 EMaxC= 1.00D-01 BMatC= 1.12D-04 BMatP= 2.36D-03
 IDIUse=3 WtCom= 9.88D-01 WtEn= 1.17D-02
 Coeff-Com: -0.603D-02 0.804D-02 0.153D+00 0.311D+00 0.534D+00
 Coeff-En:   0.000D+00 0.000D+00 0.000D+00 0.000D+00 0.100D+01
 Coeff:     -0.596D-02 0.795D-02 0.152D+00 0.307D+00 0.539D+00
 Gap=     0.427 Goal=   None    Shift=    0.000
 RMSDP=1.50D-04 MaxDP=2.20D-03 DE=-1.70D-03 OVMax= 2.51D-03

 Cycle   6  Pass 1  IDiag  1:
 E= -268.219429064864     Delta-E=       -0.000089694262 Rises=F Damp=F
 DIIS: error= 1.23D-04 at cycle   6 NSaved=   6.
 NSaved= 6 IEnMin= 6 EnMin= -268.219429064864     IErMin= 6 ErrMin= 1.23D-04
 ErrMax= 1.23D-04  0.00D+00 EMaxC= 1.00D-01 BMatC= 2.23D-06 BMatP= 1.12D-04
 IDIUse=3 WtCom= 9.99D-01 WtEn= 1.23D-03
 Coeff-Com: -0.985D-04-0.649D-02-0.296D-01-0.443D-01 0.332D-01 0.105D+01
 Coeff-En:   0.000D+00 0.000D+00 0.000D+00 0.000D+00 0.000D+00 0.100D+01
 Coeff:     -0.984D-04-0.648D-02-0.296D-01-0.442D-01 0.331D-01 0.105D+01
 Gap=     0.427 Goal=   None    Shift=    0.000
 RMSDP=2.10D-04 MaxDP=5.52D-03 DE=-8.97D-05 OVMax= 1.05D-03

 Cycle   7  Pass 1  IDiag  1:
 E= -268.219433301087     Delta-E=       -0.000004236223 Rises=F Damp=F
 DIIS: error= 4.86D-05 at cycle   7 NSaved=   7.
 NSaved= 7 IEnMin= 7 EnMin= -268.219433301087     IErMin= 7 ErrMin= 4.86D-05
 ErrMax= 4.86D-05  0.00D+00 EMaxC= 1.00D-01 BMatC= 2.51D-07 BMatP= 2.23D-06
 IDIUse=1 WtCom= 1.00D+00 WtEn= 0.00D+00
 Coeff-Com:  0.468D-03-0.266D-02-0.191D-01-0.363D-01-0.238D-01 0.319D+00
 Coeff-Com:  0.762D+00
 Coeff:      0.468D-03-0.266D-02-0.191D-01-0.363D-01-0.238D-01 0.319D+00
 Coeff:      0.762D+00
 Gap=     0.427 Goal=   None    Shift=    0.000
 RMSDP=3.28D-05 MaxDP=7.52D-04 DE=-4.24D-06 OVMax= 2.63D-04

 Cycle   8  Pass 1  IDiag  1:
 E= -268.219433702207     Delta-E=       -0.000000401120 Rises=F Damp=F
 DIIS: error= 1.37D-05 at cycle   8 NSaved=   8.
 NSaved= 8 IEnMin= 8 EnMin= -268.219433702207     IErMin= 8 ErrMin= 1.37D-05
 ErrMax= 1.37D-05  0.00D+00 EMaxC= 1.00D-01 BMatC= 1.69D-08 BMatP= 2.51D-07
 IDIUse=1 WtCom= 1.00D+00 WtEn= 0.00D+00
 Coeff-Com: -0.393D-04 0.804D-03 0.452D-02 0.562D-02-0.122D-02-0.138D+00
 Coeff-Com: -0.501D-01 0.118D+01
 Coeff:     -0.393D-04 0.804D-03 0.452D-02 0.562D-02-0.122D-02-0.138D+00
 Coeff:     -0.501D-01 0.118D+01
 Gap=     0.427 Goal=   None    Shift=    0.000
 RMSDP=1.06D-05 MaxDP=1.58D-04 DE=-4.01D-07 OVMax= 1.67D-04

 Cycle   9  Pass 1  IDiag  1:
 E= -268.219433747446     Delta-E=       -0.000000045238 Rises=F Damp=F
 DIIS: error= 2.21D-06 at cycle   9 NSaved=   9.
 NSaved= 9 IEnMin= 9 EnMin= -268.219433747446     IErMin= 9 ErrMin= 2.21D-06
 ErrMax= 2.21D-06  0.00D+00 EMaxC= 1.00D-01 BMatC= 3.86D-10 BMatP= 1.69D-08
 IDIUse=1 WtCom= 1.00D+00 WtEn= 0.00D+00
 Coeff-Com: -0.965D-05 0.874D-05 0.229D-03 0.613D-03 0.195D-02 0.544D-02
 Coeff-Com: -0.232D-01-0.136D+00 0.115D+01
 Coeff:     -0.965D-05 0.874D-05 0.229D-03 0.613D-03 0.195D-02 0.544D-02
 Coeff:     -0.232D-01-0.136D+00 0.115D+01
 Gap=     0.427 Goal=   None    Shift=    0.000
 RMSDP=2.43D-06 MaxDP=5.23D-05 DE=-4.52D-08 OVMax= 2.26D-05

 Cycle  10  Pass 1  IDiag  1:
 E= -268.219433748544     Delta-E=       -0.000000001098 Rises=F Damp=F
 DIIS: error= 5.15D-07 at cycle  10 NSaved=  10.
 NSaved=10 IEnMin=10 EnMin= -268.219433748544     IErMin=10 ErrMin= 5.15D-07
 ErrMax= 5.15D-07  0.00D+00 EMaxC= 1.00D-01 BMatC= 4.27D-11 BMatP= 3.86D-10
 IDIUse=1 WtCom= 1.00D+00 WtEn= 0.00D+00
 Coeff-Com:  0.716D-07-0.391D-04-0.174D-03-0.159D-03 0.652D-03 0.851D-02
 Coeff-Com: -0.413D-02-0.948D-01 0.320D+00 0.770D+00
 Coeff:      0.716D-07-0.391D-04-0.174D-03-0.159D-03 0.652D-03 0.851D-02
 Coeff:     -0.413D-02-0.948D-01 0.320D+00 0.770D+00
 Gap=     0.427 Goal=   None    Shift=    0.000
 RMSDP=3.80D-07 MaxDP=8.41D-06 DE=-1.10D-09 OVMax= 3.05D-06

 Cycle  11  Pass 1  IDiag  1:
 E= -268.219433748609     Delta-E=       -0.000000000065 Rises=F Damp=F
 DIIS: error= 1.56D-07 at cycle  11 NSaved=  11.
 NSaved=11 IEnMin=11 EnMin= -268.219433748609     IErMin=11 ErrMin= 1.56D-07
 ErrMax= 1.56D-07  0.00D+00 EMaxC= 1.00D-01 BMatC= 3.44D-12 BMatP= 4.27D-11
 IDIUse=1 WtCom= 1.00D+00 WtEn= 0.00D+00
 Coeff-Com:  0.906D-06-0.944D-05-0.629D-04-0.111D-03-0.953D-04 0.106D-02
 Coeff-Com:  0.153D-02-0.312D-02-0.718D-01 0.155D+00 0.918D+00
 Coeff:      0.906D-06-0.944D-05-0.629D-04-0.111D-03-0.953D-04 0.106D-02
 Coeff:      0.153D-02-0.312D-02-0.718D-01 0.155D+00 0.918D+00
 Gap=     0.427 Goal=   None    Shift=    0.000
 RMSDP=1.03D-07 MaxDP=1.35D-06 DE=-6.47D-11 OVMax= 1.87D-06

 Cycle  12  Pass 1  IDiag  1:
 E= -268.219433748615     Delta-E=       -0.000000000006 Rises=F Damp=F
 DIIS: error= 6.76D-08 at cycle  12 NSaved=  12.
 NSaved=12 IEnMin=12 EnMin= -268.219433748615     IErMin=12 ErrMin= 6.76D-08
 ErrMax= 6.76D-08  0.00D+00 EMaxC= 1.00D-01 BMatC= 1.39D-13 BMatP= 3.44D-12
 IDIUse=1 WtCom= 1.00D+00 WtEn= 0.00D+00
 Coeff-Com: -0.169D-06 0.348D-05 0.185D-04 0.247D-04-0.350D-04-0.665D-03
 Coeff-Com: -0.302D-05 0.639D-02-0.104D-01-0.693D-01-0.128D+00 0.120D+01
 Coeff:     -0.169D-06 0.348D-05 0.185D-04 0.247D-04-0.350D-04-0.665D-03
 Coeff:     -0.302D-05 0.639D-02-0.104D-01-0.693D-01-0.128D+00 0.120D+01
 Gap=     0.427 Goal=   None    Shift=    0.000
 RMSDP=3.94D-08 MaxDP=8.38D-07 DE=-6.48D-12 OVMax= 8.98D-07

 Cycle  13  Pass 1  IDiag  1:
 E= -268.219433748617     Delta-E=       -0.000000000002 Rises=F Damp=F
 DIIS: error= 2.36D-08 at cycle  13 NSaved=  13.
 NSaved=13 IEnMin=13 EnMin= -268.219433748617     IErMin=13 ErrMin= 2.36D-08
 ErrMax= 2.36D-08  0.00D+00 EMaxC= 1.00D-01 BMatC= 1.17D-14 BMatP= 1.39D-13
 IDIUse=1 WtCom= 1.00D+00 WtEn= 0.00D+00
 Coeff-Com: -0.128D-07-0.356D-06-0.632D-06 0.164D-05 0.173D-04 0.133D-03
 Coeff-Com: -0.101D-03-0.176D-02 0.819D-02 0.126D-01-0.223D-01-0.399D+00
 Coeff-Com:  0.140D+01
 Coeff:     -0.128D-07-0.356D-06-0.632D-06 0.164D-05 0.173D-04 0.133D-03
 Coeff:     -0.101D-03-0.176D-02 0.819D-02 0.126D-01-0.223D-01-0.399D+00
 Coeff:      0.140D+01
 Gap=     0.427 Goal=   None    Shift=    0.000
 RMSDP=1.25D-08 MaxDP=1.74D-07 DE=-1.71D-12 OVMax= 3.73D-07

 Cycle  14  Pass 1  IDiag  1:
 E= -268.219433748617     Delta-E=        0.000000000000 Rises=F Damp=F
 DIIS: error= 4.49D-09 at cycle  14 NSaved=  14.
 NSaved=14 IEnMin=14 EnMin= -268.219433748617     IErMin=14 ErrMin= 4.49D-09
 ErrMax= 4.49D-09  0.00D+00 EMaxC= 1.00D-01 BMatC= 5.37D-16 BMatP= 1.17D-14
 IDIUse=1 WtCom= 1.00D+00 WtEn= 0.00D+00
 Coeff-Com:  0.125D-07-0.107D-07-0.614D-06-0.158D-05-0.399D-05-0.152D-04
 Coeff-Com:  0.378D-04 0.262D-03-0.211D-02-0.423D-03 0.133D-01 0.671D-01
 Coeff-Com: -0.466D+00 0.139D+01
 Coeff:      0.125D-07-0.107D-07-0.614D-06-0.158D-05-0.399D-05-0.152D-04
 Coeff:      0.378D-04 0.262D-03-0.211D-02-0.423D-03 0.133D-01 0.671D-01
 Coeff:     -0.466D+00 0.139D+01
 Gap=     0.427 Goal=   None    Shift=    0.000
 RMSDP=2.50D-09 MaxDP=3.36D-08 DE=-3.41D-13 OVMax= 7.93D-08

 SCF Done:  E(RwB97XD) =  -268.219433749     A.U. after   14 cycles
            NFock= 14  Conv=0.25D-08     -V/T= 2.0057
 KE= 2.666868051101D+02 PE=-9.864925865394D+02 EE= 2.721594721304D+02
 Leave Link  502 at Wed May 26 09:01:19 2021, MaxMem=  2147483648 cpu:        15.3
 (Enter /opt/cluster/programs/g09_d.01/g09/l601.exe)
 Copying SCF densities to generalized density rwf, IOpCl= 0 IROHF=0.

 **********************************************************************

            Population analysis using the SCF density.

 **********************************************************************

 Orbital symmetries:
       Occupied  (A) (A) (A) (A) (A) (A) (A) (A) (A) (A) (A) (A)
                 (A) (A) (A) (A) (A) (A) (A) (A)
       Virtual   (A) (A) (A) (A) (A) (A) (A) (A) (A) (A) (A) (A)
                 (A) (A) (A) (A) (A) (A) (A) (A) (A) (A) (A) (A)
                 (A) (A) (A) (A) (A) (A) (A) (A) (A) (A) (A) (A)
                 (A) (A) (A) (A) (A) (A) (A) (A) (A) (A) (A) (A)
                 (A) (A) (A) (A) (A) (A) (A) (A) (A)
 The electronic state is 1-A.
 Alpha  occ. eigenvalues --  -19.32465 -19.27655 -10.45043 -10.35641 -10.31071
 Alpha  occ. eigenvalues --   -1.22365  -1.13512  -0.88087  -0.81419  -0.66542
 Alpha  occ. eigenvalues --   -0.59625  -0.58576  -0.56878  -0.52941  -0.51651
 Alpha  occ. eigenvalues --   -0.49557  -0.46280  -0.44208  -0.39057  -0.36739
 Alpha virt. eigenvalues --    0.05979   0.07222   0.08050   0.10088   0.10214
 Alpha virt. eigenvalues --    0.11176   0.12783   0.13203   0.15375   0.15848
 Alpha virt. eigenvalues --    0.16566   0.19808   0.20696   0.22691   0.24751
 Alpha virt. eigenvalues --    0.26548   0.26590   0.27711   0.30279   0.31330
 Alpha virt. eigenvalues --    0.33544   0.34399   0.35879   0.36315   0.37252
 Alpha virt. eigenvalues --    0.40519   0.41511   0.42475   0.43524   0.46315
 Alpha virt. eigenvalues --    0.55585   0.72525   0.74486   0.75683   0.76002
 Alpha virt. eigenvalues --    0.80089   0.82048   0.82931   0.91691   0.94982
 Alpha virt. eigenvalues --    1.06686   1.09794   1.13090   1.15467   1.18343
 Alpha virt. eigenvalues --    1.21172   1.25388   1.28299   1.29062   1.36968
 Alpha virt. eigenvalues --    1.40306   1.45842   1.48028   1.53004   1.63286
 Alpha virt. eigenvalues --    1.98504   2.00426
          Condensed to atoms (all electrons):
               1          2          3          4          5          6
     1  C    7.365719  -1.025383   0.359301   0.359446   0.358279  -0.611067
     2  C   -1.025383   6.262200  -0.015264  -0.022782  -0.024453   0.253519
     3  H    0.359301  -0.015264   0.459512  -0.021126  -0.021854  -0.001271
     4  H    0.359446  -0.022782  -0.021126   0.461069  -0.023320   0.011111
     5  H    0.358279  -0.024453  -0.021854  -0.023320   0.462794   0.002083
     6  O   -0.611067   0.253519  -0.001271   0.011111   0.002083   8.957633
     7  O   -0.029566   0.257552  -0.003249  -0.005806   0.005364  -0.246895
     8  C   -0.063894  -0.095665  -0.000569   0.000385  -0.000008   0.061658
     9  H    0.000991  -0.004230   0.000052  -0.000006   0.000001  -0.043850
    10  H    0.001319   0.006787  -0.000004   0.000001  -0.000012  -0.062677
    11  H   -0.006047  -0.005810  -0.000011   0.000012   0.000000  -0.027269
               7          8          9         10         11
     1  C   -0.029566  -0.063894   0.000991   0.001319  -0.006047
     2  C    0.257552  -0.095665  -0.004230   0.006787  -0.005810
     3  H   -0.003249  -0.000569   0.000052  -0.000004  -0.000011
     4  H   -0.005806   0.000385  -0.000006   0.000001   0.000012
     5  H    0.005364  -0.000008   0.000001  -0.000012   0.000000
     6  O   -0.246895   0.061658  -0.043850  -0.062677  -0.027269
     7  O    8.495694  -0.031801   0.003140   0.000488   0.002389
     8  C   -0.031801   5.314611   0.386953   0.399261   0.383438
     9  H    0.003140   0.386953   0.500812  -0.026963  -0.032918
    10  H    0.000488   0.399261  -0.026963   0.489900  -0.027512
    11  H    0.002389   0.383438  -0.032918  -0.027512   0.485567
 Mulliken charges:
               1
     1  C   -0.709098
     2  C    0.413531
     3  H    0.244486
     4  H    0.241017
     5  H    0.241125
     6  O   -0.292974
     7  O   -0.447309
     8  C   -0.354368
     9  H    0.216018
    10  H    0.219412
    11  H    0.228161
 Sum of Mulliken charges =   0.00000
 Mulliken charges with hydrogens summed into heavy atoms:
               1
     1  C    0.017530
     2  C    0.413531
     6  O   -0.292974
     7  O   -0.447309
     8  C    0.309222
 Electronic spatial extent (au):  <R**2>=            437.3995
 Charge=              0.0000 electrons
 Dipole moment (field-independent basis, Debye):
    X=             -0.4875    Y=             -1.9730    Z=              0.5987  Tot=              2.1187
 Quadrupole moment (field-independent basis, Debye-Ang):
   XX=            -23.1206   YY=            -36.6857   ZZ=            -29.6198
   XY=             -2.0785   XZ=             -0.3891   YZ=             -0.5501
 Traceless Quadrupole moment (field-independent basis, Debye-Ang):
   XX=              6.6881   YY=             -6.8770   ZZ=              0.1889
   XY=             -2.0785   XZ=             -0.3891   YZ=             -0.5501
 Octapole moment (field-independent basis, Debye-Ang**2):
  XXX=             -7.2547  YYY=             -6.8602  ZZZ=              0.8823  XYY=             -1.7719
  XXY=             -2.2963  XXZ=              0.2336  XZZ=             -0.2991  YZZ=              0.3903
  YYZ=             -0.2767  XYZ=              0.2107
 Hexadecapole moment (field-independent basis, Debye-Ang**3):
 XXXX=           -347.6694 YYYY=           -156.0905 ZZZZ=            -42.7350 XXXY=              7.9793
 XXXZ=             -0.1383 YYYX=             -1.8436 YYYZ=              0.8154 ZZZX=              0.6357
 ZZZY=             -0.5760 XXYY=            -82.9259 XXZZ=            -68.8756 YYZZ=            -30.6730
 XXYZ=             -0.9628 YYXZ=             -0.4820 ZZXY=             -2.3790
 N-N= 1.794268755502D+02 E-N=-9.864925866005D+02  KE= 2.666868051101D+02
 No NMR shielding tensors so no spin-rotation constants.
 Leave Link  601 at Wed May 26 09:01:19 2021, MaxMem=  2147483648 cpu:         0.6
 (Enter /opt/cluster/programs/g09_d.01/g09/l701.exe)
 Compute integral first derivatives.
 ... and contract with generalized density number  0.
 R6Disp: Adding Grimme-D2 dispersion energy 1st derivatives to the gradient.
 Leave Link  701 at Wed May 26 09:01:19 2021, MaxMem=  2147483648 cpu:         0.6
 (Enter /opt/cluster/programs/g09_d.01/g09/l702.exe)
 L702 exits ... SP integral derivatives will be done elsewhere.
 Leave Link  702 at Wed May 26 09:01:19 2021, MaxMem=  2147483648 cpu:         0.2
 (Enter /opt/cluster/programs/g09_d.01/g09/l703.exe)
 Compute integral first derivatives, UseDBF=F ICtDFT=           0.
 Integral derivatives from FoFJK, PRISM(SPDF).
 Calling FoFJK, ICntrl=      2127 FMM=F ISym2X=0 I1Cent= 0 IOpClX= 0 NMat=1 NMatS=1 NMatT=0.
 FoFJK:  IHMeth= 1 ICntrl=    2127 DoSepK=T KAlg= 0 I1Cent=   0 FoldK=F
 IRaf=         1 NMat=   1 IRICut=       1 DoRegI=T DoRafI=F ISym2E= 0.
 FoFCou: FMM=F IPFlag=           0 FMFlag=      100000 FMFlg1=         800
         NFxFlg=           0 DoJE=F BraDBF=F KetDBF=F FulRan=T
         wScrn=  0.000000 ICntrl=    2527 IOpCl=  0 I1Cent=           0 NGrid=           0
         NMat0=    1 NMatS0=      1 NMatT0=    0 NMatD0=    1 NMtDS0=    0 NMtDT0=    0
 Symmetry not used in FoFCou.
 Leave Link  703 at Wed May 26 09:01:20 2021, MaxMem=  2147483648 cpu:         3.7
 (Enter /opt/cluster/programs/g09_d.01/g09/l716.exe)
 Dipole        =-1.91789283D-01-7.76251120D-01 2.35547090D-01
 ***** Axes restored to original set *****
 -------------------------------------------------------------------
 Center     Atomic                   Forces (Hartrees/Bohr)
 Number     Number              X              Y              Z
 -------------------------------------------------------------------
      1        6           0.000595603   -0.000050249   -0.004923456
      2        6          -0.001112817    0.000746184    0.004420527
      3        1          -0.000001545    0.000003140   -0.000007286
      4        1          -0.000004067    0.000014388   -0.000005149
      5        1           0.000002144    0.000014915   -0.000007805
      6        8           0.001126290   -0.002093009    0.005589178
      7        8          -0.000008224    0.000008244    0.000012061
      8        6          -0.000599585    0.001380385   -0.005081914
      9        1           0.000004509   -0.000010369   -0.000002699
     10        1           0.000001649   -0.000011684   -0.000002190
     11        1          -0.000003956   -0.000001944    0.000008732
 -------------------------------------------------------------------
 Cartesian Forces:  Max     0.005589178 RMS     0.001833312
 Leave Link  716 at Wed May 26 09:01:20 2021, MaxMem=  2147483648 cpu:         0.2
 (Enter /opt/cluster/programs/g09_d.01/g09/l103.exe)

 GradGradGradGradGradGradGradGradGradGradGradGradGradGradGradGradGradGrad
 Berny optimization.
 FormGI is forming the generalized inverse of G from B-inverse, IUseBI=4.
 Internal  Forces:  Max     0.008057866 RMS     0.001684671
 Search for a local minimum.
 Step number   1 out of a maximum of   47
 All quantities printed in internal units (Hartrees-Bohrs-Radians)
 RMS Force = .54508D-05 SwitMx=.10000D-02 MixMth= 2
 Mixed Optimization -- En-DIIS/RFO-DIIS
 Second derivative matrix not updated -- first step.
 ITU=  0
     Eigenvalues ---    0.00809   0.00867   0.01321   0.07335   0.07644
     Eigenvalues ---    0.10132   0.10625   0.16000   0.16000   0.16000
     Eigenvalues ---    0.16000   0.16000   0.16000   0.24919   0.25000
     Eigenvalues ---    0.25000   0.32719   0.34236   0.34590   0.34596
     Eigenvalues ---    0.34683   0.34821   0.35144   0.36675   0.51250
     Eigenvalues ---    0.905631000.000001000.000001000.000001000.00000
     Eigenvalues --- 1000.000001000.000001000.000001000.000001000.00000
     Eigenvalues --- 1000.000001000.00000
 RFO step:  Lambda= 0.00000000D+00 EMin= 8.08753205D-03
 Linear search not attempted -- first point.
 Iteration  1 RMS(Cart)=  0.00011962 RMS(Int)=  0.00000001
 Iteration  2 RMS(Cart)=  0.00000001 RMS(Int)=  0.00000000
 Iteration  1 RMS(Cart)=  0.00000000 RMS(Int)=  0.00000000
 ITry= 1 IFail=0 DXMaxC= 2.99D-04 DCOld= 1.00D+10 DXMaxT= 3.00D-01 DXLimC= 3.00D+00 Rises=F
 Variable       Old X    -DE/DX   Delta X   Delta X   Delta X     New X
                                 (Linear)    (Quad)   (Total)
    R1        2.82847   0.00001   0.00000   0.00003   0.00003   2.82851
    R2        2.06934   0.00000   0.00000  -0.00001  -0.00001   2.06933
    R3        2.05966   0.00000   0.00000   0.00000   0.00000   2.05966
    R4        2.06346   0.00000   0.00000  -0.00001  -0.00001   2.06345
    R5        2.58625  -0.00001   0.00000  -0.00003  -0.00003   2.58622
    R6        2.32674   0.00001   0.00000   0.00001   0.00001   2.32675
    R7        2.76339   0.00000   0.00000   0.00000   0.00000   2.76339
    R8        2.06336  -0.00001   0.00000  -0.00002  -0.00002   2.06334
    R9        2.05441   0.00000   0.00000   0.00000   0.00000   2.05441
   R10        2.06192   0.00000   0.00000   0.00000   0.00000   2.06193
    A1        1.89696  -0.00001   0.00000  -0.00003  -0.00003   1.89693
    A2        1.91593   0.00000   0.00000  -0.00001  -0.00001   1.91592
    A3        1.93655   0.00000   0.00000  -0.00003  -0.00003   1.93652
    A4        1.90515   0.00001   0.00000   0.00006   0.00006   1.90521
    A5        1.88099   0.00000   0.00000   0.00001   0.00001   1.88100
    A6        1.92745   0.00000   0.00000   0.00001   0.00001   1.92746
    A7        1.95072   0.00007   0.00000  -0.00001  -0.00001   1.95071
    A8        2.19449   0.00035   0.00000  -0.00001  -0.00001   2.19448
    A9        2.13502  -0.00018   0.00000   0.00000   0.00000   2.13502
   A10        2.04771   0.00002   0.00000   0.00007   0.00007   2.04778
   A11        1.91420  -0.00001   0.00000  -0.00006  -0.00006   1.91414
   A12        1.82875   0.00001   0.00000   0.00005   0.00005   1.82880
   A13        1.92671   0.00000   0.00000   0.00000   0.00000   1.92671
   A14        1.94131   0.00001   0.00000   0.00004   0.00004   1.94135
   A15        1.91337   0.00000   0.00000  -0.00005  -0.00005   1.91332
   A16        1.93814   0.00000   0.00000   0.00002   0.00002   1.93816
    D1       -1.32214  -0.00159   0.00000   0.00017   0.00017  -1.32197
    D2        1.73800   0.00159   0.00000  -0.00009  -0.00009   1.73791
    D3        2.87846  -0.00159   0.00000   0.00013   0.00013   2.87859
    D4       -0.34459   0.00159   0.00000  -0.00013  -0.00013  -0.34472
    D5        0.74316  -0.00159   0.00000   0.00015   0.00015   0.74331
    D6       -2.47988   0.00159   0.00000  -0.00011  -0.00011  -2.48000
    D7        2.78180   0.00806   0.00000   0.00000   0.00000   2.78180
    D8       -0.28155   0.00498   0.00000   0.00025   0.00025  -0.28130
    D9       -0.94558   0.00001   0.00000   0.00016   0.00016  -0.94543
   D10       -3.03082   0.00000   0.00000   0.00011   0.00011  -3.03071
   D11        1.16449   0.00000   0.00000   0.00006   0.00006   1.16455
         Item               Value     Threshold  Converged?
 Maximum Force            0.000017     0.000450     YES
 RMS     Force            0.000005     0.000300     YES
 Maximum Displacement     0.000299     0.001800     YES
 RMS     Displacement     0.000120     0.001200     YES
 Predicted change in Energy=-3.665737D-09
 Optimization completed.
    -- Stationary point found.
                           ----------------------------
                           !   Optimized Parameters   !
                           ! (Angstroms and Degrees)  !
 --------------------------                            --------------------------
 ! Name  Definition              Value          Derivative Info.                !
 --------------------------------------------------------------------------------
 ! R1    R(1,2)                  1.4968         -DE/DX =    0.0                 !
 ! R2    R(1,3)                  1.095          -DE/DX =    0.0                 !
 ! R3    R(1,4)                  1.0899         -DE/DX =    0.0                 !
 ! R4    R(1,5)                  1.0919         -DE/DX =    0.0                 !
 ! R5    R(2,6)                  1.3686         -DE/DX =    0.0                 !
 ! R6    R(2,7)                  1.2313         -DE/DX =    0.0                 !
 ! R7    R(6,8)                  1.4623         -DE/DX =    0.0                 !
 ! R8    R(8,9)                  1.0919         -DE/DX =    0.0                 !
 ! R9    R(8,10)                 1.0871         -DE/DX =    0.0                 !
 ! R10   R(8,11)                 1.0911         -DE/DX =    0.0                 !
 ! A1    A(2,1,3)              108.6881         -DE/DX =    0.0                 !
 ! A2    A(2,1,4)              109.7747         -DE/DX =    0.0                 !
 ! A3    A(2,1,5)              110.956          -DE/DX =    0.0                 !
 ! A4    A(3,1,4)              109.1571         -DE/DX =    0.0                 !
 ! A5    A(3,1,5)              107.7727         -DE/DX =    0.0                 !
 ! A6    A(4,1,5)              110.4347         -DE/DX =    0.0                 !
 ! A7    A(1,2,6)              111.768          -DE/DX =    0.0001              !
 ! A8    A(1,2,7)              125.7348         -DE/DX =    0.0003              !
 ! A9    A(6,2,7)              122.3276         -DE/DX =   -0.0002              !
 ! A10   A(2,6,8)              117.3254         -DE/DX =    0.0                 !
 ! A11   A(6,8,9)              109.6754         -DE/DX =    0.0                 !
 ! A12   A(6,8,10)             104.7799         -DE/DX =    0.0                 !
 ! A13   A(6,8,11)             110.3922         -DE/DX =    0.0                 !
 ! A14   A(9,8,10)             111.2289         -DE/DX =    0.0                 !
 ! A15   A(9,8,11)             109.6282         -DE/DX =    0.0                 !
 ! A16   A(10,8,11)            111.0474         -DE/DX =    0.0                 !
 ! D1    D(3,1,2,6)            -75.7531         -DE/DX =   -0.0016              !
 ! D2    D(3,1,2,7)             99.58           -DE/DX =    0.0016              !
 ! D3    D(4,1,2,6)            164.9234         -DE/DX =   -0.0016              !
 ! D4    D(4,1,2,7)            -19.7435         -DE/DX =    0.0016              !
 ! D5    D(5,1,2,6)             42.5801         -DE/DX =   -0.0016              !
 ! D6    D(5,1,2,7)           -142.0868         -DE/DX =    0.0016              !
 ! D7    D(1,2,6,8)            159.3854         -DE/DX =    0.0081              !
 ! D8    D(7,2,6,8)            -16.1318         -DE/DX =    0.005               !
 ! D9    D(2,6,8,9)            -54.1779         -DE/DX =    0.0                 !
 ! D10   D(2,6,8,10)          -173.653          -DE/DX =    0.0                 !
 ! D11   D(2,6,8,11)            66.7206         -DE/DX =    0.0                 !
 --------------------------------------------------------------------------------
 Lowest energy point so far.  Saving SCF results.
 GradGradGradGradGradGradGradGradGradGradGradGradGradGradGradGradGradGrad

 Largest change from initial coordinates is atom   11       0.000 Angstoms.
 Leave Link  103 at Wed May 26 09:01:20 2021, MaxMem=  2147483648 cpu:         0.1
 (Enter /opt/cluster/programs/g09_d.01/g09/l202.exe)
                          Input orientation:                          
 ---------------------------------------------------------------------
 Center     Atomic      Atomic             Coordinates (Angstroms)
 Number     Number       Type             X           Y           Z
 ---------------------------------------------------------------------
      1          6           0        1.782306   -0.560598    0.083436
      2          6           0        0.486932    0.172462   -0.074462
      3          1           0        1.845395   -0.945089    1.106818
      4          1           0        2.615047    0.119561   -0.095076
      5          1           0        1.833941   -1.413251   -0.596738
      6          8           0       -0.571927   -0.687017   -0.189058
      7          8           0        0.340814    1.393882   -0.021701
      8          6           0       -1.901593   -0.157873    0.111588
      9          1           0       -1.901824    0.292312    1.106345
     10          1           0       -2.559828   -1.022121    0.070472
     11          1           0       -2.189692    0.589722   -0.629121
 ---------------------------------------------------------------------
                    Distance matrix (angstroms):
                    1          2          3          4          5
     1  C    0.000000
     2  C    1.496764   0.000000
     3  H    1.095045   2.118906   0.000000
     4  H    1.089927   2.128872   1.780560   0.000000
     5  H    1.091934   2.145155   1.766751   1.792011   0.000000
     6  O    2.373320   1.368583   2.754876   3.288800   2.545942
     7  O    2.430832   1.231260   3.001350   2.607952   3.231113
     8  C    3.705954   2.418427   3.956022   4.529869   4.003987
     9  H    3.917475   2.667363   3.946240   4.677112   4.445827
    10  H    4.366612   3.275787   4.526139   5.301903   4.461318
    11  H    4.196158   2.765153   4.653070   4.857136   4.494727
                    6          7          8          9         10
     6  O    0.000000
     7  O    2.278430   0.000000
     8  C    1.462325   2.730220   0.000000
     9  H    2.098995   2.741417   1.091883   0.000000
    10  H    2.032585   3.776148   1.087147   1.798259   0.000000
    11  H    2.107340   2.723801   1.091123   1.784142   1.795681
                   11
    11  H    0.000000
 Stoichiometry    C3H6O2
 Framework group  C1[X(C3H6O2)]
 Deg. of freedom    27
 Full point group                 C1      NOp   1
 RotChk:  IX=0 Diff= 1.16D-16
 Largest Abelian subgroup         C1      NOp   1
 Largest concise Abelian subgroup C1      NOp   1
                         Standard orientation:                         
 ---------------------------------------------------------------------
 Center     Atomic      Atomic             Coordinates (Angstroms)
 Number     Number       Type             X           Y           Z
 ---------------------------------------------------------------------
      1          6           0        1.782306   -0.560598    0.083436
      2          6           0        0.486932    0.172462   -0.074462
      3          1           0        1.845395   -0.945089    1.106818
      4          1           0        2.615047    0.119561   -0.095076
      5          1           0        1.833941   -1.413251   -0.596738
      6          8           0       -0.571927   -0.687017   -0.189058
      7          8           0        0.340814    1.393882   -0.021701
      8          6           0       -1.901593   -0.157873    0.111588
      9          1           0       -1.901824    0.292312    1.106345
     10          1           0       -2.559828   -1.022121    0.070472
     11          1           0       -2.189692    0.589722   -0.629121
 ---------------------------------------------------------------------
 Rotational constants (GHZ):      9.8399291      4.0597331      3.0146806
 Leave Link  202 at Wed May 26 09:01:20 2021, MaxMem=  2147483648 cpu:         0.0
 (Enter /opt/cluster/programs/g09_d.01/g09/l9999.exe)
 1\1\GINC-NODE13\FOpt\RwB97XD\6-31+G\C3H6O2\BOITTIER\26-May-2021\0\\#p 
 wB97XD/6-31+G Opt=ModRedun\\O.pdb\\0,1\C,1.782306,-0.560598,0.083436\C
 ,0.486932,0.172462,-0.074462\H,1.845395,-0.945089,1.106818\H,2.615047,
 0.119561,-0.095076\H,1.833941,-1.413251,-0.596738\O,-0.571927,-0.68701
 7,-0.189058\O,0.340814,1.393882,-0.021701\C,-1.901593,-0.157873,0.1115
 88\H,-1.901824,0.292312,1.106345\H,-2.559828,-1.022121,0.070472\H,-2.1
 89692,0.589722,-0.629121\\Version=ES64L-G09RevD.01\State=1-A\HF=-268.2
 194337\RMSD=2.498e-09\RMSF=1.833e-03\Dipole=-0.1917893,-0.7762511,0.23
 55471\Quadrupole=4.9724195,-5.1128659,0.1404464,-1.5452888,-0.2892534,
 -0.4089545\PG=C01 [X(C3H6O2)]\\@


 THE WHOLE OF SCIENCE IS NOTHING MORE THAN A REFINEMENT OF EVERYDAY THINKING.
                                                              -- A. EINSTEIN
 Job cpu time:       0 days  0 hours  0 minutes 28.5 seconds.
 File lengths (MBytes):  RWF=      5 Int=      0 D2E=      0 Chk=      2 Scr=      1
 Normal termination of Gaussian 09 at Wed May 26 09:01:20 2021.
