O.pdb                                                                   
FOpt      RwB97XD                                                     6-31+G              
Number of atoms                            I               11
Info1-9                                    I   N=           9
          22          22           0           0           0         100
           2          18        -802
Charge                                     I                0
Multiplicity                               I                1
Number of electrons                        I               40
Number of alpha electrons                  I               20
Number of beta electrons                   I               20
Number of basis functions                  I               77
Number of independent functions            I               77
Number of point charges in /Mol/           I                0
Number of translation vectors              I                0
Atomic numbers                             I   N=          11
           6           6           1           1           1           8
           8           6           1           1           1
Nuclear charges                            R   N=          11
  6.00000000E+00  6.00000000E+00  1.00000000E+00  1.00000000E+00  1.00000000E+00
  8.00000000E+00  8.00000000E+00  6.00000000E+00  1.00000000E+00  1.00000000E+00
  1.00000000E+00
Current cartesian coordinates              R   N=          33
  3.36807022E+00 -1.05937669E+00  1.57671190E-01  9.20168125E-01  3.25905948E-01
 -1.40712787E-01  3.48729116E+00 -1.78595938E+00  2.09158290E+00  4.94172265E+00
  2.25937546E-01 -1.79667602E-01  3.46564623E+00 -2.67065735E+00 -1.12767139E+00
 -1.08078540E+00 -1.29827398E+00 -3.57267843E-01  6.44045122E-01  2.63405524E+00
 -4.10089468E-02 -3.59348999E+00 -2.98336734E-01  2.10870760E-01 -3.59392651E+00
  5.52389625E-01  2.09068906E+00 -4.83737387E+00 -1.93152876E+00  1.33172780E-01
 -4.13791820E+00  1.11441307E+00 -1.18886639E+00
Force Field                                I                0
Int Atom Types                             I   N=          11
           0           0           0           0           0           0
           0           0           0           0           0
MM charges                                 R   N=          11
  0.00000000E+00  0.00000000E+00  0.00000000E+00  0.00000000E+00  0.00000000E+00
  0.00000000E+00  0.00000000E+00  0.00000000E+00  0.00000000E+00  0.00000000E+00
  0.00000000E+00
Integer atomic weights                     I   N=          11
          12          12           1           1           1          16
          16          12           1           1           1
Real atomic weights                        R   N=          11
  1.20000000E+01  1.20000000E+01  1.00782504E+00  1.00782504E+00  1.00782504E+00
  1.59949146E+01  1.59949146E+01  1.20000000E+01  1.00782504E+00  1.00782504E+00
  1.00782504E+00
Atom fragment info                         I   N=          11
           0           0           0           0           0           0
           0           0           0           0           0
Atom residue num                           I   N=          11
           0           0           0           0           0           0
           0           0           0           0           0
Nuclear spins                              I   N=          11
           0           0           1           1           1           0
           0           0           1           1           1
Nuclear ZEff                               R   N=          11
 -3.60000000E+00 -3.60000000E+00 -1.00000000E+00 -1.00000000E+00 -1.00000000E+00
 -5.60000000E+00 -5.60000000E+00 -3.60000000E+00 -1.00000000E+00 -1.00000000E+00
 -1.00000000E+00
Nuclear ZNuc                               R   N=          11
  6.00000000E+00  6.00000000E+00  1.00000000E+00  1.00000000E+00  1.00000000E+00
  8.00000000E+00  8.00000000E+00  6.00000000E+00  1.00000000E+00  1.00000000E+00
  1.00000000E+00
Nuclear QMom                               R   N=          11
  0.00000000E+00  0.00000000E+00  0.00000000E+00  0.00000000E+00  0.00000000E+00
  0.00000000E+00  0.00000000E+00  0.00000000E+00  0.00000000E+00  0.00000000E+00
  0.00000000E+00
Nuclear GFac                               R   N=          11
  0.00000000E+00  0.00000000E+00  2.79284600E+00  2.79284600E+00  2.79284600E+00
  0.00000000E+00  0.00000000E+00  0.00000000E+00  2.79284600E+00  2.79284600E+00
  2.79284600E+00
MicOpt                                     I   N=          11
          -1          -1          -1          -1          -1          -1
          -1          -1          -1          -1          -1
Number of contracted shells                I               32
Number of primitive shells                 I               79
Pure/Cartesian d shells                    I                1
Pure/Cartesian f shells                    I                0
Highest angular momentum                   I                1
Largest degree of contraction              I                6
Shell types                                I   N=          32
           0          -1          -1          -1           0          -1
          -1          -1           0           0           0           0
           0           0           0          -1          -1          -1
           0          -1          -1          -1           0          -1
          -1          -1           0           0           0           0
           0           0
Number of primitives per shell             I   N=          32
           6           3           1           1           6           3
           1           1           3           1           3           1
           3           1           6           3           1           1
           6           3           1           1           6           3
           1           1           3           1           3           1
           3           1
Shell to atom map                          I   N=          32
           1           1           1           1           2           2
           2           2           3           3           4           4
           5           5           6           6           6           6
           7           7           7           7           8           8
           8           8           9           9          10          10
          11          11
Primitive exponents                        R   N=          79
  3.04752488E+03  4.57369518E+02  1.03948685E+02  2.92101553E+01  9.28666296E+00
  3.16392696E+00  7.86827235E+00  1.88128854E+00  5.44249258E-01  1.68714478E-01
  4.38000000E-02  3.04752488E+03  4.57369518E+02  1.03948685E+02  2.92101553E+01
  9.28666296E+00  3.16392696E+00  7.86827235E+00  1.88128854E+00  5.44249258E-01
  1.68714478E-01  4.38000000E-02  1.87311370E+01  2.82539436E+00  6.40121692E-01
  1.61277759E-01  1.87311370E+01  2.82539436E+00  6.40121692E-01  1.61277759E-01
  1.87311370E+01  2.82539436E+00  6.40121692E-01  1.61277759E-01  5.48467166E+03
  8.25234946E+02  1.88046958E+02  5.29645000E+01  1.68975704E+01  5.79963534E+00
  1.55396162E+01  3.59993359E+00  1.01376175E+00  2.70005823E-01  8.45000000E-02
  5.48467166E+03  8.25234946E+02  1.88046958E+02  5.29645000E+01  1.68975704E+01
  5.79963534E+00  1.55396162E+01  3.59993359E+00  1.01376175E+00  2.70005823E-01
  8.45000000E-02  3.04752488E+03  4.57369518E+02  1.03948685E+02  2.92101553E+01
  9.28666296E+00  3.16392696E+00  7.86827235E+00  1.88128854E+00  5.44249258E-01
  1.68714478E-01  4.38000000E-02  1.87311370E+01  2.82539436E+00  6.40121692E-01
  1.61277759E-01  1.87311370E+01  2.82539436E+00  6.40121692E-01  1.61277759E-01
  1.87311370E+01  2.82539436E+00  6.40121692E-01  1.61277759E-01
Contraction coefficients                   R   N=          79
  1.83473713E-03  1.40373228E-02  6.88426223E-02  2.32184443E-01  4.67941348E-01
  3.62311985E-01 -1.19332420E-01 -1.60854152E-01  1.14345644E+00  1.00000000E+00
  1.00000000E+00  1.83473713E-03  1.40373228E-02  6.88426223E-02  2.32184443E-01
  4.67941348E-01  3.62311985E-01 -1.19332420E-01 -1.60854152E-01  1.14345644E+00
  1.00000000E+00  1.00000000E+00  3.34946043E-02  2.34726953E-01  8.13757326E-01
  1.00000000E+00  3.34946043E-02  2.34726953E-01  8.13757326E-01  1.00000000E+00
  3.34946043E-02  2.34726953E-01  8.13757326E-01  1.00000000E+00  1.83107443E-03
  1.39501722E-02  6.84450781E-02  2.32714336E-01  4.70192898E-01  3.58520853E-01
 -1.10777550E-01 -1.48026263E-01  1.13076702E+00  1.00000000E+00  1.00000000E+00
  1.83107443E-03  1.39501722E-02  6.84450781E-02  2.32714336E-01  4.70192898E-01
  3.58520853E-01 -1.10777550E-01 -1.48026263E-01  1.13076702E+00  1.00000000E+00
  1.00000000E+00  1.83473713E-03  1.40373228E-02  6.88426223E-02  2.32184443E-01
  4.67941348E-01  3.62311985E-01 -1.19332420E-01 -1.60854152E-01  1.14345644E+00
  1.00000000E+00  1.00000000E+00  3.34946043E-02  2.34726953E-01  8.13757326E-01
  1.00000000E+00  3.34946043E-02  2.34726953E-01  8.13757326E-01  1.00000000E+00
  3.34946043E-02  2.34726953E-01  8.13757326E-01  1.00000000E+00
P(S=P) Contraction coefficients            R   N=          79
  0.00000000E+00  0.00000000E+00  0.00000000E+00  0.00000000E+00  0.00000000E+00
  0.00000000E+00  6.89990666E-02  3.16423961E-01  7.44308291E-01  1.00000000E+00
  1.00000000E+00  0.00000000E+00  0.00000000E+00  0.00000000E+00  0.00000000E+00
  0.00000000E+00  0.00000000E+00  6.89990666E-02  3.16423961E-01  7.44308291E-01
  1.00000000E+00  1.00000000E+00  0.00000000E+00  0.00000000E+00  0.00000000E+00
  0.00000000E+00  0.00000000E+00  0.00000000E+00  0.00000000E+00  0.00000000E+00
  0.00000000E+00  0.00000000E+00  0.00000000E+00  0.00000000E+00  0.00000000E+00
  0.00000000E+00  0.00000000E+00  0.00000000E+00  0.00000000E+00  0.00000000E+00
  7.08742682E-02  3.39752839E-01  7.27158577E-01  1.00000000E+00  1.00000000E+00
  0.00000000E+00  0.00000000E+00  0.00000000E+00  0.00000000E+00  0.00000000E+00
  0.00000000E+00  7.08742682E-02  3.39752839E-01  7.27158577E-01  1.00000000E+00
  1.00000000E+00  0.00000000E+00  0.00000000E+00  0.00000000E+00  0.00000000E+00
  0.00000000E+00  0.00000000E+00  6.89990666E-02  3.16423961E-01  7.44308291E-01
  1.00000000E+00  1.00000000E+00  0.00000000E+00  0.00000000E+00  0.00000000E+00
  0.00000000E+00  0.00000000E+00  0.00000000E+00  0.00000000E+00  0.00000000E+00
  0.00000000E+00  0.00000000E+00  0.00000000E+00  0.00000000E+00
Coordinates of each shell                  R   N=          96
  3.36806997E+00 -1.05937675E+00  1.57671190E-01  3.36806997E+00 -1.05937675E+00
  1.57671190E-01  3.36806997E+00 -1.05937675E+00  1.57671190E-01  3.36806997E+00
 -1.05937675E+00  1.57671190E-01  9.20167895E-01  3.25905932E-01 -1.40712787E-01
  9.20167895E-01  3.25905932E-01 -1.40712787E-01  9.20167895E-01  3.25905932E-01
 -1.40712787E-01  9.20167895E-01  3.25905932E-01 -1.40712787E-01  3.48729089E+00
 -1.78595944E+00  2.09158290E+00  3.48729089E+00 -1.78595944E+00  2.09158290E+00
  4.94172242E+00  2.25937459E-01 -1.79667602E-01  4.94172242E+00  2.25937459E-01
 -1.79667602E-01  3.46564595E+00 -2.67065741E+00 -1.12767139E+00  3.46564595E+00
 -2.67065741E+00 -1.12767139E+00 -1.08078566E+00 -1.29827396E+00 -3.57267843E-01
 -1.08078566E+00 -1.29827396E+00 -3.57267843E-01 -1.08078566E+00 -1.29827396E+00
 -3.57267843E-01 -1.08078566E+00 -1.29827396E+00 -3.57267843E-01  6.44044932E-01
  2.63405523E+00 -4.10089468E-02  6.44044932E-01  2.63405523E+00 -4.10089468E-02
  6.44044932E-01  2.63405523E+00 -4.10089468E-02  6.44044932E-01  2.63405523E+00
 -4.10089468E-02 -3.59349023E+00 -2.98336671E-01  2.10870760E-01 -3.59349023E+00
 -2.98336671E-01  2.10870760E-01 -3.59349023E+00 -2.98336671E-01  2.10870760E-01
 -3.59349023E+00 -2.98336671E-01  2.10870760E-01 -3.59392674E+00  5.52389688E-01
  2.09068906E+00 -3.59392674E+00  5.52389688E-01  2.09068906E+00 -4.83737414E+00
 -1.93152868E+00  1.33172780E-01 -4.83737414E+00 -1.93152868E+00  1.33172780E-01
 -4.13791841E+00  1.11441315E+00 -1.18886639E+00 -4.13791841E+00  1.11441315E+00
 -1.18886639E+00
Constraint Structure                       R   N=          33
  3.36806997E+00 -1.05937675E+00  1.57671190E-01  9.20167895E-01  3.25905932E-01
 -1.40712787E-01  3.48729089E+00 -1.78595944E+00  2.09158290E+00  4.94172242E+00
  2.25937459E-01 -1.79667602E-01  3.46564595E+00 -2.67065741E+00 -1.12767139E+00
 -1.08078566E+00 -1.29827396E+00 -3.57267843E-01  6.44044932E-01  2.63405523E+00
 -4.10089468E-02 -3.59349023E+00 -2.98336671E-01  2.10870760E-01 -3.59392674E+00
  5.52389688E-01  2.09068906E+00 -4.83737414E+00 -1.93152868E+00  1.33172780E-01
 -4.13791841E+00  1.11441315E+00 -1.18886639E+00
Num ILSW                                   I              100
ILSW                                       I   N=         100
           0           1           0           0           2           0
           0           0           0           0        4639          -1
           0           0           0           0           2           0
           0           0           0           0           1           0
           1           0           0           0           0           0
           0           0      100000           0          -1           0
           0           0           0           0           0           0
           0           0           0           1           0           0
           0           0           1           0           0           0
           0           0         121          41           0           0
           0           0          58           0           0           0
           0           0           0          11           0           0
           0           0           0           0           0           0
           0           0           0           0           0           0
           0           0           0           0           0           0
           0           0           0           0           0           0
           0           0           0           0
Num RLSW                                   I               41
RLSW                                       R   N=          41
  1.00000000E+00  1.00000000E+00  1.00000000E+00  1.00000000E+00  1.00000000E+00
  0.00000000E+00  2.00000000E-01  2.22036000E-01  0.00000000E+00  7.77964000E-01
  0.00000000E+00  2.00000000E-01  0.00000000E+00  0.00000000E+00  1.00000000E+00
  0.00000000E+00  0.00000000E+00  1.00000000E+00  0.00000000E+00  0.00000000E+00
  0.00000000E+00  0.00000000E+00  1.00000000E+00  0.00000000E+00  0.00000000E+00
  0.00000000E+00  0.00000000E+00  1.00000000E+00  0.00000000E+00  0.00000000E+00
  0.00000000E+00  0.00000000E+00  1.00000000E+00  0.00000000E+00  0.00000000E+00
  0.00000000E+00  0.00000000E+00  0.00000000E+00  1.00000000E+00  1.00000000E+00
  0.00000000E+00
MxBond                                     I                4
NBond                                      I   N=          11
           4           3           1           1           1           2
           1           4           1           1           1
IBond                                      I   N=          44
           2           3           4           5           1           6
           7           0           1           0           0           0
           1           0           0           0           1           0
           0           0           2           8           0           0
           2           0           0           0           6           9
          10          11           8           0           0           0
           8           0           0           0           8           0
           0           0
RBond                                      R   N=          44
  1.00000000E+00  1.00000000E+00  1.00000000E+00  1.00000000E+00  1.00000000E+00
  1.50000000E+00  2.00000000E+00  0.00000000E+00  1.00000000E+00  0.00000000E+00
  0.00000000E+00  0.00000000E+00  1.00000000E+00  0.00000000E+00  0.00000000E+00
  0.00000000E+00  1.00000000E+00  0.00000000E+00  0.00000000E+00  0.00000000E+00
  1.50000000E+00  1.00000000E+00  0.00000000E+00  0.00000000E+00  2.00000000E+00
  0.00000000E+00  0.00000000E+00  0.00000000E+00  1.00000000E+00  1.00000000E+00
  1.00000000E+00  1.00000000E+00  1.00000000E+00  0.00000000E+00  0.00000000E+00
  0.00000000E+00  1.00000000E+00  0.00000000E+00  0.00000000E+00  0.00000000E+00
  1.00000000E+00  0.00000000E+00  0.00000000E+00  0.00000000E+00
Virial Ratio                               R      2.005746923391585E+00
SCF Energy                                 R     -2.682194337486173E+02
Total Energy                               R     -2.682194337486173E+02
RMS Force                                  R      1.833312164581702E-03
RMS Density                                R      2.498439956921744E-09
External E-field                           R   N=          35
  0.00000000E+00  0.00000000E+00  0.00000000E+00  0.00000000E+00  0.00000000E+00
  0.00000000E+00  0.00000000E+00  0.00000000E+00  0.00000000E+00  0.00000000E+00
  0.00000000E+00  0.00000000E+00  0.00000000E+00  0.00000000E+00  0.00000000E+00
  0.00000000E+00  0.00000000E+00  0.00000000E+00  0.00000000E+00  0.00000000E+00
  0.00000000E+00  0.00000000E+00  0.00000000E+00  0.00000000E+00  0.00000000E+00
  0.00000000E+00  0.00000000E+00  0.00000000E+00  0.00000000E+00  0.00000000E+00
  0.00000000E+00  0.00000000E+00  0.00000000E+00  0.00000000E+00  0.00000000E+00
IOpCl                                      I                0
IROHF                                      I                0
Alpha Orbital Energies                     R   N=          77
 -1.93246511E+01 -1.92765509E+01 -1.04504296E+01 -1.03564149E+01 -1.03107126E+01
 -1.22364668E+00 -1.13512125E+00 -8.80869799E-01 -8.14193664E-01 -6.65417715E-01
 -5.96250407E-01 -5.85758912E-01 -5.68781633E-01 -5.29411967E-01 -5.16507225E-01
 -4.95572752E-01 -4.62800183E-01 -4.42076636E-01 -3.90573459E-01 -3.67388262E-01
  5.97910206E-02  7.22175301E-02  8.04952729E-02  1.00879783E-01  1.02139471E-01
  1.11757996E-01  1.27834896E-01  1.32031699E-01  1.53745689E-01  1.58482057E-01
  1.65662552E-01  1.98083426E-01  2.06959788E-01  2.26908551E-01  2.47510789E-01
  2.65476752E-01  2.65896056E-01  2.77114530E-01  3.02786931E-01  3.13303916E-01
  3.35438250E-01  3.43990409E-01  3.58794994E-01  3.63153989E-01  3.72518223E-01
  4.05189569E-01  4.15109545E-01  4.24751924E-01  4.35243447E-01  4.63154914E-01
  5.55845118E-01  7.25254342E-01  7.44864548E-01  7.56831019E-01  7.60022751E-01
  8.00889390E-01  8.20477642E-01  8.29306262E-01  9.16906611E-01  9.49817193E-01
  1.06685524E+00  1.09794412E+00  1.13090142E+00  1.15467453E+00  1.18343340E+00
  1.21172011E+00  1.25388070E+00  1.28298888E+00  1.29061765E+00  1.36967692E+00
  1.40305999E+00  1.45842082E+00  1.48027500E+00  1.53003535E+00  1.63285723E+00
  1.98503721E+00  2.00425922E+00
Alpha MO coefficients                      R   N=        5929
 -2.88413171E-05 -3.81868154E-04  7.78142397E-05 -3.17353660E-05  2.04027080E-06
  1.98168838E-03  1.86509659E-04  1.42109818E-03 -6.94770864E-05  1.58322273E-02
 -3.99716266E-03  9.32587096E-04 -4.00360225E-04  8.61585165E-05  3.31974194E-04
 -3.87565010E-04 -1.58312870E-04 -8.49077370E-06  3.76431687E-03 -4.85648338E-03
 -1.60598337E-03 -3.20429583E-04 -1.95426385E-02 -2.60637240E-03  5.15977793E-03
 -6.57403502E-04  2.95202666E-05 -3.59540519E-04 -1.79382819E-04 -6.13344496E-04
  9.27140073E-05 -3.76474249E-04  9.95237243E-01  2.98840661E-02 -8.48414735E-05
  1.87165417E-03  4.53507080E-04 -2.16711428E-02 -3.26386382E-04 -3.95983065E-03
 -9.09081112E-04  9.65666323E-03  8.67044174E-04  1.23627040E-03  2.31949778E-04
 -3.27369249E-04 -8.64656578E-05 -5.96602076E-05  7.23191651E-05  2.38540589E-05
 -3.26226033E-04  1.08122677E-03  6.24555065E-04 -2.63133312E-06 -1.48537075E-03
  8.54937421E-04  2.13410786E-04  1.69817394E-04 -3.12737043E-05 -1.60125330E-04
  7.00311966E-04 -1.89553429E-04 -1.20622536E-04  4.43361089E-03  1.33740377E-03
 -3.04459331E-04 -3.01300799E-04  1.08093410E-03 -1.88877532E-04  1.33722791E-04
  3.05299848E-04 -3.08356019E-04 -1.28205540E-03 -2.40373945E-04 -1.01745036E-03
 -3.17078469E-04 -1.25223862E-03 -1.33395869E-05 -2.51917544E-04 -1.77961885E-05
 -9.12698067E-05  3.44165542E-06  3.09825318E-03 -1.96925146E-03 -1.18941532E-03
 -5.63252285E-04  6.54751951E-04  2.68194372E-04  1.05275622E-03  3.93203815E-04
  2.41316902E-04  4.14203552E-04  1.71947597E-04 -5.84072252E-05 -2.14353726E-05
  6.79220772E-03 -2.69190605E-03  1.02846706E-02  4.88737863E-04 -7.64977168E-03
  1.38736087E-03 -2.72459303E-03 -6.99884621E-04 -3.67306101E-05 -1.29965854E-04
  1.51579937E-04  1.42491420E-04 -2.38202734E-04 -5.11799553E-04  3.44669706E-04
 -1.15663228E-04 -2.55235362E-04  2.61423886E-06 -2.62114214E-06  4.91179328E-04
  1.69588003E-03 -1.21521338E-03 -5.84539813E-05 -1.50447754E-03  1.38210340E-03
 -4.02999666E-04 -2.40194331E-04  9.95239848E-01  2.98605917E-02  1.66887820E-04
 -2.27781863E-03 -8.14521265E-05 -2.38895026E-02 -3.26124011E-04  5.97789966E-03
  1.99276040E-04  7.06244978E-03 -1.89813953E-04 -3.10356244E-04  1.44918223E-04
 -1.22014433E-05 -1.35458368E-04  1.18743525E-04 -1.08402976E-04 -3.08328112E-05
  2.09580332E-03  1.34527786E-04 -8.34427240E-04 -3.33583713E-04  4.06038685E-03
  1.40914823E-03  4.15464281E-04  2.15300373E-05  4.19583752E-05 -3.31958755E-04
 -1.91701134E-04 -4.84614262E-04 -2.35197240E-05 -3.52748327E-04  7.67292762E-04
 -6.94825416E-04  1.66012279E-04 -2.69316025E-04  1.25587678E-04  6.01151550E-03
 -1.59612395E-03  1.93915316E-03 -9.60283954E-04  4.68017986E-03 -8.32248728E-04
 -8.54907774E-04 -5.77399781E-04  9.95565993E-01  3.70386183E-02 -1.16487821E-03
  5.67192734E-04 -2.42913989E-05 -3.56665874E-02  4.43252297E-04  6.02227313E-04
  8.15689200E-06 -1.65105405E-02  2.43432987E-03  3.96717021E-03  2.20824624E-04
 -1.74595540E-04  4.29389087E-04 -1.41231224E-04 -1.50842728E-03 -8.87777971E-05
 -9.72265929E-04  4.02665392E-05  4.57697654E-04 -1.83721919E-04 -1.96153865E-04
 -4.70172569E-05 -1.70314057E-04 -8.99445075E-05 -1.48515706E-05  1.02951621E-04
  1.19688811E-02  6.95365098E-03  4.02120775E-03  4.12870715E-04 -1.31279491E-04
  3.53537962E-05 -1.18509189E-04  5.10951148E-04  3.77244296E-05  6.76026145E-04
  4.22159629E-04  1.20522150E-04 -4.36065192E-05  8.95427733E-03  7.60555577E-04
 -5.18562086E-03 -3.28813723E-05 -8.13241736E-05 -4.00347791E-04  7.94545103E-05
  4.76665399E-05  2.83152672E-06  1.18603881E-03 -3.81802789E-04  2.69573305E-04
  1.64094423E-05  7.56120274E-03  2.41001559E-03 -7.72133205E-04 -5.49099670E-04
 -4.85755169E-05 -1.52994952E-03 -4.38151131E-05  4.37670399E-04  4.55480951E-05
 -1.83901118E-03 -1.39999741E-04 -5.30522813E-04 -4.09043601E-05  1.82407726E-05
 -1.11200553E-06  4.22534768E-03 -2.17247040E-03  6.00350999E-04 -1.22816371E-04
 -1.38194219E-03 -8.48521166E-04 -2.38884194E-04  7.11081353E-04 -1.29042108E-05
 -2.73966430E-04  1.56773757E-04 -1.53080689E-04  4.76403793E-05 -6.49170907E-04
 -2.53919225E-03  2.98875771E-03 -4.30631160E-04  4.13717487E-03  2.52876349E-03
 -2.39368887E-03 -1.16545810E-03 -1.42636538E-05 -6.84479559E-04 -9.49608053E-05
  1.35822965E-04 -2.19806732E-04  3.93673404E-04  4.72039105E-05  3.76080655E-04
  2.28324286E-07  2.67725894E-06 -4.62179302E-05  1.26137036E-03  2.25203894E-05
 -8.09321643E-05  2.99202943E-04  1.45873929E-02 -8.60700718E-03  3.71747089E-03
  1.67756093E-03  1.11287380E-05  2.64180341E-06  8.76162023E-05  1.07690959E-04
 -1.12444813E-05 -1.39527342E-03  2.44114881E-04  1.36545293E-04  7.54468188E-05
 -1.59548754E-03 -5.17549819E-04  2.17330847E-03  5.78536578E-04  9.95552164E-01
  3.73380705E-02  1.19911323E-03 -4.08427719E-04 -2.55366321E-04 -3.60914633E-02
 -3.45632510E-03  9.42552033E-04  6.97332347E-04 -8.62459880E-03 -2.91540255E-03
  1.19453794E-03  7.46329575E-04 -5.23550109E-04  5.76866517E-03 -4.74445488E-04
  4.94178239E-03 -4.82834411E-04  5.59135074E-03  9.95474112E-01  3.75841973E-02
 -4.46922010E-04  2.08461171E-05  8.31191229E-05 -3.87727713E-02  3.76685024E-03
 -1.41238222E-03 -7.10096914E-05 -1.79351865E-02  3.22988586E-03 -2.30861273E-03
  6.56033874E-04 -7.42675659E-04 -7.80393891E-04 -6.47917175E-04  3.46541203E-04
 -3.63147923E-05  6.66638379E-03  7.49992910E-03 -2.83746823E-03  8.15714864E-04
  9.42568850E-03  7.09121096E-03 -7.09813896E-04 -2.13287464E-04 -5.35921664E-04
  8.04760319E-03 -5.43546435E-04  6.91652542E-03 -5.06318163E-04  7.40548922E-03
 -8.53422324E-06 -2.80335086E-04 -1.99474699E-04 -4.14287540E-05 -1.96742859E-05
  3.29508000E-04  1.05217515E-03  5.91943029E-04  8.90486151E-06  1.81503978E-03
  3.23819317E-03 -3.08929086E-04  3.30428456E-04 -1.71929501E-06 -1.64473116E-04
 -2.65567235E-05  1.13302169E-04  1.76815515E-05  2.03410337E-04 -7.20631851E-04
 -3.81021340E-04 -1.94045364E-04  2.15497693E-03 -5.08286160E-04 -1.28500172E-03
  3.02442950E-04  7.45551462E-06 -4.88341410E-04  2.98887411E-05 -2.92106799E-05
  8.85707385E-05  2.44353332E-03  8.82123521E-04 -9.73864153E-05 -7.26064163E-04
  5.05291874E-03  1.56995431E-03  2.00936198E-05 -2.79343782E-04  1.20761811E-05
 -1.22035118E-04 -1.02000136E-04  2.55506778E-04 -1.83566055E-04 -2.06595324E-04
 -1.70722098E-02  3.19632614E-02 -2.22061196E-02  1.15347906E-02 -2.07232082E-03
  2.87620056E-03  2.75500802E-03 -4.80745226E-03  2.23261801E-03 -6.60066662E-02
  1.74625164E-02 -6.09782832E-03  6.04594835E-05 -1.19029139E-01  2.43565453E-01
 -8.97359289E-02  5.23345456E-02 -3.16753746E-04  3.41578454E-02  3.78356431E-02
 -3.40699566E-02  1.27258252E-03  1.21094742E-01 -2.52581086E-03 -1.57141163E-02
  7.01059290E-03  4.82234713E-03 -1.93759398E-03  4.90274509E-03  9.90618047E-04
  4.83789286E-03  1.93215894E-04 -1.49937347E-01  3.21769739E-01  2.22066253E-02
  9.85096023E-02  2.24366717E-02  3.53296806E-01  5.10382496E-03  6.61509710E-02
  1.53320782E-02 -4.34318938E-02 -1.96522058E-02 -1.43932423E-02 -3.38720376E-03
 -1.12942539E-01  2.45889076E-01  2.99376712E-03 -1.17899505E-01 -5.01867661E-03
  2.44382825E-01 -3.80877167E-03 -5.09055470E-02 -1.66346375E-03  5.64407070E-04
 -6.73950930E-03 -4.61747057E-03 -2.54736102E-03 -4.07915290E-02  7.51787004E-02
  5.46931781E-02 -1.48910861E-02 -1.04889392E-02  2.28929016E-02 -3.90669588E-03
  9.08205482E-03  3.24143087E-03 -3.14878171E-02 -7.80405226E-03 -1.38887732E-03
 -4.65977913E-04  1.21980877E-02  2.73145995E-03  1.15272541E-02  4.12851403E-03
  1.20201188E-02  1.40752299E-03 -4.66891709E-03  8.73060004E-03 -4.40000912E-04
  1.42801935E-02  1.04402553E-04  1.08392829E-04  1.23323579E-02  1.66898937E-02
  3.87475463E-03  1.42291470E-01 -3.48419104E-02  1.16139244E-02 -5.30440434E-03
 -4.50541915E-02  9.43904717E-02  5.22805171E-02  2.25267856E-01  1.44118249E-02
  2.87187425E-02 -2.13646374E-02 -7.51087594E-02 -5.62983169E-03 -9.13972215E-02
 -6.23956127E-02  2.92855613E-02 -4.35185311E-03  1.12821957E-03 -3.75086294E-03
  3.26771848E-03 -5.25483696E-03  3.23906880E-04  9.04511305E-04  1.37536405E-01
 -2.97062276E-01  9.87108586E-03 -5.76339411E-02 -1.97396553E-02 -3.54626977E-01
  1.65548385E-03 -4.61676794E-02 -1.55137636E-02 -1.02608359E-02 -3.08713675E-02
  1.11653212E-03  2.72115234E-03 -1.58352294E-01  3.48260376E-01  2.48053662E-02
 -1.38112086E-01 -5.07596285E-03  3.57168028E-01  1.00529346E-02 -5.74731271E-02
 -1.61661186E-03  1.20519906E-02  1.59877078E-02 -1.05670730E-02 -4.57713252E-04
  4.38105598E-02 -8.67419602E-02 -5.50457514E-02  2.21455426E-02  1.16524719E-02
 -3.11617613E-02  1.27118385E-02  5.06263043E-03 -3.39738955E-04 -4.56933913E-02
 -1.92076130E-02  1.11407644E-03  4.56349064E-03 -1.47399059E-02 -3.61855915E-03
 -1.44467025E-02 -5.69594061E-04 -1.41968688E-02 -2.30291571E-03 -1.48421649E-01
  2.78757169E-01 -5.59376253E-02  1.63907462E-02 -3.77017816E-03  2.83243625E-01
 -1.54539564E-02 -6.40264923E-04  4.23400539E-04  3.88706227E-02 -8.84946710E-03
  1.01083610E-02 -3.10830855E-04 -8.33741217E-02  1.77190620E-01  8.96875608E-02
 -1.60582913E-01  4.15349163E-03  1.36044848E-01  9.62116933E-03 -5.50778984E-03
  2.01636985E-03  1.80735835E-02 -1.38076010E-02 -1.74391681E-02 -8.32660483E-04
  8.78123599E-02  3.26055729E-03  8.00508662E-02  3.17096689E-03  8.71551919E-02
  4.88438541E-03  7.54078120E-03 -1.63125677E-02  1.83643453E-01 -3.73515164E-03
 -9.83340960E-03 -2.26049461E-02  8.00567186E-02 -6.61213784E-03 -5.54906281E-03
  7.07874732E-03 -3.06642175E-02  3.26367690E-03  1.55209613E-03  4.51767816E-02
 -1.02256911E-01  2.34967018E-02  4.72238382E-03  2.53941914E-03 -1.18779758E-01
  1.04781352E-02  4.83904390E-03  4.59842777E-04 -2.41735422E-02 -4.66150299E-03
  1.65079675E-02 -3.32219573E-04  9.39922526E-02 -1.81509176E-01 -3.08823130E-02
  1.80043304E-02  9.10186287E-03 -1.77497476E-01 -3.74384860E-03 -4.71774437E-03
  4.50651453E-04 -5.06323722E-02 -1.81307219E-02  4.80424367E-03  3.40335374E-03
 -5.28871739E-02 -8.40881307E-04 -5.72154266E-02 -1.11230778E-02 -5.29639828E-02
 -9.42583574E-04 -1.15166596E-01  2.16726369E-01  1.63508984E-02  9.80456390E-03
  7.50294350E-03  2.44182575E-01  7.67918856E-03  8.62173687E-03  9.22377572E-04
  1.41288839E-01 -2.69511662E-02  1.49916743E-02 -6.51794876E-03  1.37035231E-02
 -3.51301648E-02  1.68595506E-01  3.79839730E-02  2.84832545E-02 -2.06256218E-02
  4.62670231E-03 -6.88681066E-03  5.65289958E-03 -1.65272987E-01 -3.21300793E-02
  2.88783097E-02  2.37127191E-04  8.05241787E-02  1.13507206E-02  8.43712478E-02
  6.49576754E-03  7.35025833E-02  4.29196925E-03  4.03814201E-02 -9.24427270E-02
 -1.89533391E-01 -4.27236857E-02  2.12240543E-02 -1.35569833E-01 -8.57825218E-02
 -2.59761863E-02  7.37548963E-03 -3.97781267E-02  2.92912348E-02 -2.90428936E-03
 -4.95310461E-03  1.75949957E-03 -5.25335919E-03  3.31804752E-02  1.05614255E-02
  8.55121879E-03 -2.09194360E-03  1.20632260E-02  3.44067268E-03  3.05103134E-03
  1.38003058E-02  8.68936148E-03 -7.41015830E-03 -1.37449419E-03 -1.50333714E-01
  2.93478706E-01 -2.81869122E-02 -9.28098216E-03  5.05707823E-03  3.20850513E-01
 -7.52274563E-03 -3.57425824E-03  2.66449016E-03  5.65174970E-02  1.73851962E-02