L.pdb                                                                   
FOpt      RwB97XD                                                     6-31+G              
Number of atoms                            I                8
Info1-9                                    I   N=           9
          19          19           0           0           0         110
           2          18        -802
Charge                                     I                0
Multiplicity                               I                1
Number of electrons                        I               30
Number of alpha electrons                  I               15
Number of beta electrons                   I               15
Number of basis functions                  I               60
Number of independent functions            I               60
Number of point charges in /Mol/           I                0
Number of translation vectors              I                0
Atomic numbers                             I   N=           8
           6           6           6           8           1           1
           1           1
Nuclear charges                            R   N=           8
  6.00000000E+00  6.00000000E+00  6.00000000E+00  8.00000000E+00  1.00000000E+00
  1.00000000E+00  1.00000000E+00  1.00000000E+00
Current cartesian coordinates              R   N=          24
  3.27616971E+00  2.90994943E-01 -2.63346752E-01  1.08797294E+00 -8.21011539E-01
  3.53023444E-01 -1.29655706E+00  6.26097284E-01  3.72364356E-01 -3.32269048E+00
 -2.34855114E-01 -4.05648418E-01 -1.16886303E+00  2.62001318E+00  9.67075835E-01
  5.00513964E+00 -7.82137131E-01 -5.05169572E-01  3.40657240E+00  2.32230840E+00
 -5.52008881E-01  9.33161293E-01 -2.85782767E+00  5.63043679E-01
Force Field                                I                0
Int Atom Types                             I   N=           8
           0           0           0           0           0           0
           0           0
MM charges                                 R   N=           8
  0.00000000E+00  0.00000000E+00  0.00000000E+00  0.00000000E+00  0.00000000E+00
  0.00000000E+00  0.00000000E+00  0.00000000E+00
Integer atomic weights                     I   N=           8
          12          12          12          16           1           1
           1           1
Real atomic weights                        R   N=           8
  1.20000000E+01  1.20000000E+01  1.20000000E+01  1.59949146E+01  1.00782504E+00
  1.00782504E+00  1.00782504E+00  1.00782504E+00
Atom fragment info                         I   N=           8
           0           0           0           0           0           0
           0           0
Atom residue num                           I   N=           8
           0           0           0           0           0           0
           0           0
Nuclear spins                              I   N=           8
           0           0           0           0           1           1
           1           1
Nuclear ZEff                               R   N=           8
 -3.60000000E+00 -3.60000000E+00 -3.60000000E+00 -5.60000000E+00 -1.00000000E+00
 -1.00000000E+00 -1.00000000E+00 -1.00000000E+00
Nuclear ZNuc                               R   N=           8
  6.00000000E+00  6.00000000E+00  6.00000000E+00  8.00000000E+00  1.00000000E+00
  1.00000000E+00  1.00000000E+00  1.00000000E+00
Nuclear QMom                               R   N=           8
  0.00000000E+00  0.00000000E+00  0.00000000E+00  0.00000000E+00  0.00000000E+00
  0.00000000E+00  0.00000000E+00  0.00000000E+00
Nuclear GFac                               R   N=           8
  0.00000000E+00  0.00000000E+00  0.00000000E+00  0.00000000E+00  2.79284600E+00
  2.79284600E+00  2.79284600E+00  2.79284600E+00
MicOpt                                     I   N=           8
          -1          -1          -1          -1          -1          -1
          -1          -1
Number of contracted shells                I               24
Number of primitive shells                 I               60
Pure/Cartesian d shells                    I                1
Pure/Cartesian f shells                    I                0
Highest angular momentum                   I                1
Largest degree of contraction              I                6
Shell types                                I   N=          24
           0          -1          -1          -1           0          -1
          -1          -1           0          -1          -1          -1
           0          -1          -1          -1           0           0
           0           0           0           0           0           0
Number of primitives per shell             I   N=          24
           6           3           1           1           6           3
           1           1           6           3           1           1
           6           3           1           1           3           1
           3           1           3           1           3           1
Shell to atom map                          I   N=          24
           1           1           1           1           2           2
           2           2           3           3           3           3
           4           4           4           4           5           5
           6           6           7           7           8           8
Primitive exponents                        R   N=          60
  3.04752488E+03  4.57369518E+02  1.03948685E+02  2.92101553E+01  9.28666296E+00
  3.16392696E+00  7.86827235E+00  1.88128854E+00  5.44249258E-01  1.68714478E-01
  4.38000000E-02  3.04752488E+03  4.57369518E+02  1.03948685E+02  2.92101553E+01
  9.28666296E+00  3.16392696E+00  7.86827235E+00  1.88128854E+00  5.44249258E-01
  1.68714478E-01  4.38000000E-02  3.04752488E+03  4.57369518E+02  1.03948685E+02
  2.92101553E+01  9.28666296E+00  3.16392696E+00  7.86827235E+00  1.88128854E+00
  5.44249258E-01  1.68714478E-01  4.38000000E-02  5.48467166E+03  8.25234946E+02
  1.88046958E+02  5.29645000E+01  1.68975704E+01  5.79963534E+00  1.55396162E+01
  3.59993359E+00  1.01376175E+00  2.70005823E-01  8.45000000E-02  1.87311370E+01
  2.82539436E+00  6.40121692E-01  1.61277759E-01  1.87311370E+01  2.82539436E+00
  6.40121692E-01  1.61277759E-01  1.87311370E+01  2.82539436E+00  6.40121692E-01
  1.61277759E-01  1.87311370E+01  2.82539436E+00  6.40121692E-01  1.61277759E-01
Contraction coefficients                   R   N=          60
  1.83473713E-03  1.40373228E-02  6.88426223E-02  2.32184443E-01  4.67941348E-01
  3.62311985E-01 -1.19332420E-01 -1.60854152E-01  1.14345644E+00  1.00000000E+00
  1.00000000E+00  1.83473713E-03  1.40373228E-02  6.88426223E-02  2.32184443E-01
  4.67941348E-01  3.62311985E-01 -1.19332420E-01 -1.60854152E-01  1.14345644E+00
  1.00000000E+00  1.00000000E+00  1.83473713E-03  1.40373228E-02  6.88426223E-02
  2.32184443E-01  4.67941348E-01  3.62311985E-01 -1.19332420E-01 -1.60854152E-01
  1.14345644E+00  1.00000000E+00  1.00000000E+00  1.83107443E-03  1.39501722E-02
  6.84450781E-02  2.32714336E-01  4.70192898E-01  3.58520853E-01 -1.10777550E-01
 -1.48026263E-01  1.13076702E+00  1.00000000E+00  1.00000000E+00  3.34946043E-02
  2.34726953E-01  8.13757326E-01  1.00000000E+00  3.34946043E-02  2.34726953E-01
  8.13757326E-01  1.00000000E+00  3.34946043E-02  2.34726953E-01  8.13757326E-01
  1.00000000E+00  3.34946043E-02  2.34726953E-01  8.13757326E-01  1.00000000E+00
P(S=P) Contraction coefficients            R   N=          60
  0.00000000E+00  0.00000000E+00  0.00000000E+00  0.00000000E+00  0.00000000E+00
  0.00000000E+00  6.89990666E-02  3.16423961E-01  7.44308291E-01  1.00000000E+00
  1.00000000E+00  0.00000000E+00  0.00000000E+00  0.00000000E+00  0.00000000E+00
  0.00000000E+00  0.00000000E+00  6.89990666E-02  3.16423961E-01  7.44308291E-01
  1.00000000E+00  1.00000000E+00  0.00000000E+00  0.00000000E+00  0.00000000E+00
  0.00000000E+00  0.00000000E+00  0.00000000E+00  6.89990666E-02  3.16423961E-01
  7.44308291E-01  1.00000000E+00  1.00000000E+00  0.00000000E+00  0.00000000E+00
  0.00000000E+00  0.00000000E+00  0.00000000E+00  0.00000000E+00  7.08742682E-02
  3.39752839E-01  7.27158577E-01  1.00000000E+00  1.00000000E+00  0.00000000E+00
  0.00000000E+00  0.00000000E+00  0.00000000E+00  0.00000000E+00  0.00000000E+00
  0.00000000E+00  0.00000000E+00  0.00000000E+00  0.00000000E+00  0.00000000E+00
  0.00000000E+00  0.00000000E+00  0.00000000E+00  0.00000000E+00  0.00000000E+00
Coordinates of each shell                  R   N=          72
  3.27616971E+00  2.90994943E-01 -2.63346752E-01  3.27616971E+00  2.90994943E-01
 -2.63346752E-01  3.27616971E+00  2.90994943E-01 -2.63346752E-01  3.27616971E+00
  2.90994943E-01 -2.63346752E-01  1.08797294E+00 -8.21011539E-01  3.53023444E-01
  1.08797294E+00 -8.21011539E-01  3.53023444E-01  1.08797294E+00 -8.21011539E-01
  3.53023444E-01  1.08797294E+00 -8.21011539E-01  3.53023444E-01 -1.29655706E+00
  6.26097284E-01  3.72364356E-01 -1.29655706E+00  6.26097284E-01  3.72364356E-01
 -1.29655706E+00  6.26097284E-01  3.72364356E-01 -1.29655706E+00  6.26097284E-01
  3.72364356E-01 -3.32269048E+00 -2.34855114E-01 -4.05648418E-01 -3.32269048E+00
 -2.34855114E-01 -4.05648418E-01 -3.32269048E+00 -2.34855114E-01 -4.05648418E-01
 -3.32269048E+00 -2.34855114E-01 -4.05648418E-01 -1.16886303E+00  2.62001318E+00
  9.67075835E-01 -1.16886303E+00  2.62001318E+00  9.67075835E-01  5.00513964E+00
 -7.82137131E-01 -5.05169572E-01  5.00513964E+00 -7.82137131E-01 -5.05169572E-01
  3.40657240E+00  2.32230840E+00 -5.52008881E-01  3.40657240E+00  2.32230840E+00
 -5.52008881E-01  9.33161293E-01 -2.85782767E+00  5.63043679E-01  9.33161293E-01
 -2.85782767E+00  5.63043679E-01
Constraint Structure                       R   N=          24
  3.29044046E+00  2.85189419E-01 -2.63767848E-01  1.08660784E+00 -8.14901430E-01
  3.61499066E-01 -1.29646532E+00  6.30646454E-01  3.70488493E-01 -3.33644547E+00
 -2.37633579E-01 -4.04495753E-01 -1.16527677E+00  2.63533030E+00  9.39424561E-01
  5.01089627E+00 -8.01593962E-01 -5.18873317E-01  3.43932820E+00  2.31690391E+00
 -5.46436862E-01  9.23118189E-01 -2.85517827E+00  5.52533371E-01
Num ILSW                                   I              100
ILSW                                       I   N=         100
           0           1           0           0           2           0
           0           0           0           0        4639          -1
           0           0           0           0           2           0
           0           0           0           0           1           0
           1           0           0           0           0           0
           0           0      100000           0          -1           0
           0           0           0           0           0           0
           0           0           0           1           0           0
           0           0           1           0           0           0
           0           0         121          41           0           0
           0           0          58           0           0           0
           0           0           0           8           0           0
           0           0           0           0           0           0
           0           0           0           0           0           0
           0           0           0           0           0           0
           0           0           0           0           0           0
           0           0           0           0
Num RLSW                                   I               41
RLSW                                       R   N=          41
  1.00000000E+00  1.00000000E+00  1.00000000E+00  1.00000000E+00  1.00000000E+00
  0.00000000E+00  2.00000000E-01  2.22036000E-01  0.00000000E+00  7.77964000E-01
  0.00000000E+00  2.00000000E-01  0.00000000E+00  0.00000000E+00  1.00000000E+00
  0.00000000E+00  0.00000000E+00  1.00000000E+00  0.00000000E+00  0.00000000E+00
  0.00000000E+00  0.00000000E+00  1.00000000E+00  0.00000000E+00  0.00000000E+00
  0.00000000E+00  0.00000000E+00  1.00000000E+00  0.00000000E+00  0.00000000E+00
  0.00000000E+00  0.00000000E+00  1.00000000E+00  0.00000000E+00  0.00000000E+00
  0.00000000E+00  0.00000000E+00  0.00000000E+00  1.00000000E+00  1.00000000E+00
  0.00000000E+00
MxBond                                     I                3
NBond                                      I   N=           8
           3           3           3           1           1           1
           1           1
IBond                                      I   N=          24
           2           6           7           1           3           8
           2           4           5           3           0           0
           3           0           0           1           0           0
           1           0           0           2           0           0
RBond                                      R   N=          24
  2.00000000E+00  1.00000000E+00  1.00000000E+00  2.00000000E+00  1.00000000E+00
  1.00000000E+00  1.00000000E+00  2.00000000E+00  1.00000000E+00  2.00000000E+00
  0.00000000E+00  0.00000000E+00  1.00000000E+00  0.00000000E+00  0.00000000E+00
  1.00000000E+00  0.00000000E+00  0.00000000E+00  1.00000000E+00  0.00000000E+00
  0.00000000E+00  1.00000000E+00  0.00000000E+00  0.00000000E+00
Virial Ratio                               R      2.005803232546683E+00
SCF Energy                                 R     -1.917910350891616E+02
Total Energy                               R     -1.917910350891616E+02
RMS Force                                  R      2.673324522247531E-03
RMS Density                                R      8.820587373675526E-09
External E-field                           R   N=          35
  0.00000000E+00  0.00000000E+00  0.00000000E+00  0.00000000E+00  0.00000000E+00
  0.00000000E+00  0.00000000E+00  0.00000000E+00  0.00000000E+00  0.00000000E+00
  0.00000000E+00  0.00000000E+00  0.00000000E+00  0.00000000E+00  0.00000000E+00
  0.00000000E+00  0.00000000E+00  0.00000000E+00  0.00000000E+00  0.00000000E+00
  0.00000000E+00  0.00000000E+00  0.00000000E+00  0.00000000E+00  0.00000000E+00
  0.00000000E+00  0.00000000E+00  0.00000000E+00  0.00000000E+00  0.00000000E+00
  0.00000000E+00  0.00000000E+00  0.00000000E+00  0.00000000E+00  0.00000000E+00
IOpCl                                      I                0
IROHF                                      I                0
Alpha Orbital Energies                     R   N=          60
 -1.92907113E+01 -1.04083449E+01 -1.03363685E+01 -1.03328484E+01 -1.17412343E+00
 -9.18695732E-01 -7.59291606E-01 -6.80961511E-01 -5.86055192E-01 -5.74760726E-01
 -5.23948468E-01 -4.94295884E-01 -4.81239431E-01 -3.81083155E-01 -3.54122330E-01
 -7.16815309E-03  6.90749217E-02  7.79177112E-02  8.89036070E-02  9.08426369E-02
  1.14547354E-01  1.26809864E-01  1.28825753E-01  1.47242860E-01  1.58893614E-01
  1.74203051E-01  1.80503345E-01  2.00779861E-01  2.26303867E-01  2.68476546E-01
  2.82178562E-01  2.89598958E-01  3.08701403E-01  3.32336563E-01  3.54497854E-01
  3.69711790E-01  3.87807491E-01  4.32535890E-01  4.65156403E-01  4.98247782E-01
  7.03773183E-01  7.19094451E-01  7.52065491E-01  7.94953731E-01  8.02558432E-01
  8.50752989E-01  8.82073845E-01  9.58321530E-01  1.01181077E+00  1.06436905E+00
  1.09800192E+00  1.12751613E+00  1.17811725E+00  1.23178150E+00  1.28148303E+00
  1.33958515E+00  1.36664715E+00  1.38801470E+00  1.40582759E+00  1.88791389E+00
Alpha MO coefficients                      R   N=        3600
  2.16315147E-07  1.86361026E-05  1.28548878E-04 -3.36854522E-05 -9.40731845E-05
 -2.09539737E-03 -1.39882623E-04  7.75205692E-04 -2.19178288E-04  6.28460138E-03
 -1.45917003E-03 -8.42072943E-04  1.66783455E-04  2.16150378E-05 -3.09975347E-05
  9.40339354E-05 -1.59388335E-04  1.86039321E-05 -8.04274035E-04  2.65939272E-03
  1.65280475E-03  2.87376610E-04  5.52006217E-03 -4.80683611E-03  4.05891632E-04
  3.03205540E-04  2.05461086E-04  1.29501995E-04 -3.11070234E-05  1.61818573E-04
 -5.41986076E-06  7.28726489E-03 -4.54768616E-03 -4.34283747E-03 -2.15385669E-03
 -1.65493383E-02 -6.99108628E-04  3.48168246E-03  1.25048817E-03  9.95220533E-01
  2.93976743E-02  1.89619981E-03  7.23008276E-04  7.23610113E-04 -2.13106422E-02
 -4.30880296E-03 -1.28729981E-03 -1.53711264E-03  9.01368348E-03  7.95524856E-04
 -8.33855581E-05 -7.41303601E-05 -9.03157972E-05  1.47102115E-03  1.01489092E-04
  5.59189389E-04 -7.04727783E-05 -5.47463236E-05  2.60427146E-04  7.03904495E-04
 -5.83526377E-05 -3.37722417E-04  1.51883311E-04 -3.82743789E-05  2.48331536E-05
  9.66518243E-04 -1.08334392E-03  7.00873097E-05  8.67228754E-05 -1.92463200E-02
  2.97581666E-03  2.83374106E-03 -1.52248505E-03  1.78982946E-03 -4.78646941E-04
  4.69257746E-04 -3.31610755E-04 -5.00644738E-05  4.28030871E-03 -3.29870912E-03
  1.08086132E-03  2.50540642E-04  1.54072783E-03  1.15106827E-02  7.63052512E-04
 -7.25029561E-04  9.95435325E-01  3.61509545E-02 -1.14210777E-03 -6.41486881E-04
 -5.37100783E-04 -3.17507731E-02  7.43387110E-04  2.22665688E-03  1.11019243E-03
  1.52549077E-02  3.69553318E-03 -4.79703451E-03 -2.51318202E-04 -1.26405798E-04
 -5.62770440E-05 -5.35121007E-04 -1.87863643E-04 -1.76789663E-04  1.26714155E-03
  3.14333237E-04 -2.63014200E-04 -9.44149756E-05  1.07915487E-02  5.12877850E-03
  2.34622801E-03  2.10245705E-03 -5.49989549E-04  3.23995604E-03 -1.46511875E-05
  1.03815113E-03 -1.65545159E-04  1.89961830E-05 -1.80616966E-04 -2.57483680E-04
  9.88109584E-01  3.48085778E-02 -3.14849892E-04 -9.76487742E-05  5.50820114E-05
 -2.89633383E-02  2.64636818E-03  1.59305011E-03 -8.03536898E-04  2.28620161E-02
 -6.26431997E-03 -4.10413881E-03  1.76853825E-03  1.19356112E-01  3.10333215E-03
 -1.01572749E-03 -4.89939513E-04  2.52361466E-04  4.40145874E-03  5.20961048E-03
  1.74240891E-03 -1.18979333E-03  1.54622738E-02 -1.33980224E-02  5.88384171E-03
  1.25524297E-03 -2.20099797E-04 -3.93244583E-04 -1.92547016E-04  1.72996419E-05
 -3.52112719E-07  1.06237830E-03  1.28321475E-03 -4.95696623E-04  1.41429674E-04
 -3.77954012E-02 -9.35962783E-03  4.45502660E-03  9.43779976E-05 -1.43305262E-06
 -3.42943019E-06  2.63173318E-05 -1.46287495E-06 -1.86912959E-05  1.22885912E-05
 -3.81960669E-05  9.22290229E-05  1.20390626E-04  2.37077934E-03  1.10005089E-03
  1.36304559E-04  4.06370580E-04 -2.22088875E-04  5.10314374E-04 -7.20750471E-04
  4.23304822E-03 -6.91810487E-04  3.71031152E-03 -2.11221862E-04  5.42337469E-04
 -1.19596977E-01 -5.58283712E-03  8.83535234E-04  4.65966958E-04 -2.52246699E-04
  1.38911074E-02 -5.54395420E-03 -1.07860498E-03  1.22074686E-03 -4.20271142E-02
  9.53449653E-03  3.55417377E-03 -2.48613800E-03  9.88211848E-01  3.62222303E-02
  2.35680672E-04  6.35329767E-04 -3.13094419E-04 -3.58725547E-02 -9.55992891E-04
 -5.52765170E-03  1.56228199E-03  6.96317907E-02  3.58812892E-03  1.21322364E-02
 -3.15355445E-03 -1.72403983E-03 -6.57400669E-04 -4.74302641E-04  3.19784939E-04
 -9.71522902E-06  6.12427581E-03  5.20593432E-03 -1.36310337E-03  1.02430882E-04
 -2.68002016E-02 -6.31247293E-03  2.93068099E-03  1.47756920E-04 -5.01784391E-06
 -1.60773821E-04 -1.06640950E-04 -5.34117968E-05  4.65692518E-06  4.49429665E-04
  3.05009115E-04  5.15232647E-04  1.42590985E-04  2.80889451E-03  7.41672722E-04
  2.84415914E-05  7.23954208E-04 -2.25019114E-04 -2.83710591E-04 -4.40424935E-05
  3.89022779E-04 -2.52457344E-04 -1.08730170E-03 -6.78101479E-04  2.43873072E-03
 -3.91048622E-03  9.10303547E-03 -6.68755304E-03 -6.14405758E-04  1.05287427E-03
  1.39722529E-02  7.87955326E-03 -1.00667637E-02  1.80189032E-03  5.64108568E-02
 -1.12160968E-02 -4.15156939E-03  3.16982660E-03 -1.98896756E-02  3.72145015E-02
 -2.58112862E-02  9.98990105E-03 -3.14203709E-03  1.89129663E-02 -1.73216302E-02
 -1.03960728E-02 -4.87924917E-03 -1.00863361E-01  1.18026656E-03 -1.75663953E-02
  6.18603602E-03 -1.16301269E-01  2.38261796E-01 -1.58519055E-01 -7.44098158E-02
 -6.35507163E-02  3.68353692E-02  5.18406058E-02  3.76615205E-02  2.16254875E-02
  5.77756662E-02 -2.25755595E-03 -7.35952633E-03 -5.58081281E-03 -1.92334664E-01
  4.24332920E-01  1.58209671E-01  6.51921825E-02  6.01277777E-02  4.21730435E-01
  6.57850389E-02  2.39750777E-02  2.52756912E-02 -1.96847985E-03  7.26813550E-03
  2.79957113E-03  2.80882758E-03  2.82267216E-02 -2.12616341E-02  1.36785913E-04
 -1.06627267E-02  2.99407559E-03  2.13577003E-03  5.83156091E-03 -2.94359633E-03
 -1.41489469E-01  2.72682584E-01 -9.72171806E-02 -3.93341370E-02  2.44458793E-02
  2.12642437E-01 -1.49916340E-02  7.01321493E-03  2.50851437E-03  1.63869086E-02
 -5.74440384E-03  4.59461273E-03  8.73845989E-04 -1.61105412E-01  3.14308239E-01
  5.54531947E-02  6.83866644E-02 -2.81167190E-02  2.11393637E-01 -1.96865301E-04
 -1.13412751E-02 -2.83613211E-04 -1.02507680E-01  2.19908387E-02 -3.01298055E-02
 -4.47097308E-04 -5.37920255E-02  1.04880268E-01  1.34838722E-01 -1.48329114E-02
  1.52102087E-02  1.04563485E-01  2.80292364E-02  1.78738991E-03  1.32985454E-04
  8.84926282E-02  2.49557581E-02 -4.77572423E-03  2.74905417E-03  4.05607431E-02
 -9.34756721E-02 -1.83477909E-03 -1.52838222E-02 -8.50582863E-03 -9.67395620E-02
 -2.26681441E-03 -3.24697243E-03 -1.26728338E-03 -7.90811927E-03 -7.34010052E-03
 -3.42570752E-03 -2.56777026E-03  3.27854901E-02  3.10364403E-03  6.84642595E-02
  1.41050540E-02  7.21312623E-02  6.43339723E-03  7.60737323E-02  1.89399607E-03
 -1.32099134E-01  2.64535449E-01  6.42316087E-02 -9.62729719E-03 -1.14485334E-02
  2.53016534E-01  2.94648455E-02 -4.87758600E-03 -5.11636992E-03 -1.34732387E-01
  2.89516921E-02  1.86611761E-02 -8.93835595E-03  5.17164600E-02 -1.05122608E-01
  2.19053461E-01 -2.24794141E-02 -3.60993884E-02 -1.00081599E-01  3.89509124E-02
 -3.50197004E-03 -8.60789363E-03  4.13708466E-02  7.13058984E-02  4.18495460E-03
 -9.54780429E-03  1.17913017E-01 -2.48992236E-01 -1.64674021E-01 -6.92632970E-03
 -4.62784719E-02 -2.62922918E-01 -2.20444102E-02  5.33518075E-04 -8.64365989E-03
  9.48686783E-02  1.43928507E-02 -2.18955985E-02 -2.95187197E-03 -6.74884202E-02
  1.56006600E-01 -5.03382902E-02 -1.09870933E-03 -1.40952899E-02  2.06552284E-01
 -1.13679019E-02  4.80210284E-03 -1.65454878E-03  3.09933543E-02  1.02898737E-02
  4.69392745E-03  5.47821549E-03 -1.06549416E-01 -3.79462765E-02  1.30570955E-01
  4.00245968E-02  1.04373228E-01  3.57747235E-02 -4.03547828E-02 -1.14710198E-02
 -5.18795315E-02  1.02293250E-01  7.47830598E-02  1.39562550E-01 -2.93737382E-02
  1.17234771E-01  1.42795310E-02  4.44973454E-02 -6.56512410E-03 -5.83488032E-02
  1.83272423E-02  6.71965224E-03 -5.49743026E-03  9.43690598E-02 -1.91064109E-01
 -2.78949940E-03  1.80089110E-01 -2.71156342E-03 -2.06337144E-01  3.10980231E-03
  6.39719575E-02 -3.92623538E-03  9.79526485E-02 -1.40569901E-03  1.78001191E-02
 -2.28958885E-03 -8.23163356E-02  1.75646740E-01 -1.68263745E-02  2.35106961E-01
  4.87295146E-02  1.93840728E-01  6.69220969E-03  9.07532007E-02  1.99716533E-02
 -3.70711792E-02 -6.60785153E-03  1.76945678E-02  4.38523231E-04  3.70741728E-02
 -8.68644737E-02  1.28719196E-02  1.14850102E-01  2.92405148E-02 -1.09767652E-01
  4.10995509E-03  4.99028609E-02  1.23309012E-02 -1.20692589E-02 -2.47282847E-03
 -5.79056198E-03 -9.64866972E-05  1.83218292E-01  7.53493770E-02  4.60034911E-02
  2.40045731E-02  1.20384048E-01  5.98279159E-02 -1.68888759E-01 -6.73809287E-02
 -1.00931169E-02  1.88023264E-02 -7.77256908E-03  2.77726148E-01 -5.12578209E-02
  4.30775995E-02 -1.96553780E-02  1.16660117E-01 -1.86832563E-02 -9.25489199E-03
  1.01280931E-02  9.77372820E-03 -1.22787698E-03  1.55533638E-02 -2.72236765E-02
 -2.09535379E-01  1.72693362E-01 -2.15817431E-02 -6.51818096E-02 -5.19241328E-02
  5.36691020E-02 -1.16325853E-02  7.75461826E-03 -1.54937767E-02  4.63009984E-03
 -2.01315886E-03  1.01498255E-02 -2.22079182E-02  1.73476043E-01 -2.70570811E-01
 -7.87864152E-02 -3.76840276E-02  7.36801305E-02 -1.19124744E-01 -3.66159942E-02
 -7.79573234E-03  1.37663493E-02 -1.09159892E-02 -4.40729750E-03 -1.31297101E-02
  2.94710059E-02  5.47956879E-02 -1.85152683E-01 -7.08879954E-02  5.09143006E-02
  3.49713026E-02 -8.83070765E-02 -3.32701183E-02  1.71835009E-02 -1.74782567E-04
  2.68567387E-03  2.18631793E-03 -1.48627742E-01 -7.36296219E-02 -6.86804357E-02
 -3.21693489E-02  1.66641339E-01  9.02915503E-02 -1.01639911E-01 -5.91520478E-02
 -1.27249511E-02  2.29826892E-02  3.57728571E-01 -4.34921360E-04 -8.36139311E-02
  6.40763897E-02  1.26059071E-01 -1.53345705E-02 -2.94116053E-02  4.02986752E-02
  1.39021917E-02 -4.60116107E-03 -1.09747273E-03  3.14497914E-02 -6.60959425E-02
 -2.06904303E-01 -2.01893956E-01  5.56097850E-02 -5.54449022E-02 -4.52540988E-02
 -6.78612448E-02  1.75003477E-02 -4.23855274E-02 -2.62184045E-02 -1.18559997E-02
  3.64896788E-03 -4.75523385E-02  1.17759744E-01 -8.54438236E-02 -1.48375070E-01
  6.88950413E-03  1.48210135E-01 -3.64181145E-02 -8.20795815E-02  1.67769688E-03
  2.06662430E-02  9.34287040E-03 -4.68847334E-03  4.10387935E-04  6.00280693E-02
 -1.33615947E-01  2.21475708E-01  6.45779792E-05  1.12569462E-01 -2.45823747E-01
  7.88234415E-02 -1.69973551E-02  4.53374514E-02 -7.01841581E-02 -1.13352312E-03
  3.41963170E-03 -7.73887607E-04 -2.01286182E-02 -4.05983670E-04  1.96872446E-01
  1.15115931E-01  3.60473688E-02  2.57951540E-02  8.97559111E-02  5.96831035E-02
 -1.09533785E-02  2.77676700E-02 -1.76408159E-01 -9.08584852E-02  2.06698918E-03
  1.74444303E-03 -4.91545951E-02 -3.83444182E-02 -9.98401430E-03 -9.77626977E-02
  1.66533956E-02 -7.34379160E-04 -3.85762718E-03  2.80549772E-03 -2.78138354E-03
  1.49757057E-01  1.01506033E-01 -1.33198192E-01 -2.56325606E-02  4.70722741E-02
  4.30196182E-02 -5.93348364E-02  8.81459165E-02  2.23273425E-02  2.17025897E-02
 -1.26556141E-02 -1.97493382E-02  7.06940499E-02 -2.14897402E-01 -1.10898129E-01
 -2.42723160E-01  4.32979863E-02 -5.30134528E-02 -3.34025225E-02 -1.03085218E-01
  6.35041316E-03  8.39887574E-04 -2.97439995E-03 -1.20009757E-02  6.64272660E-02
 -1.43845985E-01  4.07462897E-01  1.71829519E-01 -7.84312575E-04 -2.73560033E-01
  1.73025177E-01  7.59049791E-02 -2.50899259E-02 -9.15463894E-02  9.33067735E-03
  7.46160610E-03  6.34111312E-03 -9.03680749E-02 -6.91955244E-02 -5.24481724E-02
 -4.53131224E-02 -5.61703384E-02 -4.01096550E-02 -8.66718953E-02 -5.87811783E-02
 -4.49821667E-03  9.96100376E-03 -1.49845751E-01  2.32771996E-01  6.66560921E-02
  2.84017762E-02 -7.95748840E-02  1.13502098E-01  3.79610209E-02  1.70659482E-01
 -5.52263900E-02  6.08037148E-03  9.03698436E-03 -1.37170684E-02  2.64612425E-02
  9.27640886E-02 -1.03663977E-01  9.84583981E-02  4.31597587E-02  1.77232708E-02
 -5.97008108E-02  5.35110367E-02 -1.93814773E-01 -8.83250053E-03 -4.26002688E-02
  1.74220182E-02  1.53116446E-02 -2.20271183E-02 -2.46601215E-01 -5.56929103E-02
  1.77788846E-01 -6.54531505E-02 -8.43520874E-02 -7.49681590E-03  1.09702534E-01
  1.90386116E-02 -1.20521399E-02 -6.54246284E-03  1.91844087E-02  2.27329628E-02
 -4.92810502E-02  5.06818393E-02  7.07639603E-02  3.44870907E-01 -8.89107671E-02
  8.01901106E-03  2.95182933E-02  2.01033900E-01 -1.62082051E-02  1.40654521E-02
  6.44953829E-03  7.18885573E-03 -2.88815725E-02 -2.38008016E-02 -1.74244118E-01
 -1.21651778E-01  1.53499013E-01  1.06269199E-01  9.18826276E-02  6.15934676E-02
 -1.56312632E-02  3.62148316E-02 -1.27671044E-02 -2.20568331E-01  9.31507833E-02
  2.63109778E-02  1.77428862E-02 -1.10258146E-01  4.58387262E-02  1.55294044E-01
 -3.35720762E-02 -3.17792817E-02  1.30530507E-02  9.35458273E-03 -1.23951849E-02
  5.71226084E-02  2.59005488E-01  5.04129707E-02 -7.12655646E-02  2.25706313E-02
  1.37070362E-01  2.62204571E-02 -1.40626024E-01 -4.05258191E-02  8.36774603E-03
  9.75001634E-03 -1.85880144E-02  4.58594570E-02  2.83219156E-02 -1.71063326E-01
  2.03663003E-01  3.52758522E-02  1.32330026E-02 -1.00289628E-01  1.16767281E-01
 -3.70563179E-02 -1.36235330E-02 -1.43990031E-02  2.01422094E-02  4.18936912E-04
  7.80994441E-05  3.83916046E-04 -1.92176130E-01  2.77352481E-01  2.13378590E-03
 -3.70956468E-03 -1.09504908E-01  1.71911033E-01  6.41919415E-03  6.18699843E-03
 -3.39819917E-03  4.03472562E-03 -4.63937212E-02 -2.44637043E-02  9.08056031E-02
  5.54024003E-02 -1.53727512E-01 -1.19231724E-01 -1.93976857E-01 -1.19198134E-01
  1.91001479E-03 -1.94831099E-03  9.34290578E-02  4.80913919E-02  3.65309865E-01
  1.84494356E-03  6.81416595E-02  2.54925586E-02  2.38390112E-01 -1.62039302E-01
  4.91890982E-02  1.49919856E-02  2.84516732E-02 -6.18493550E-03  1.40946788E-02
  4.53300908E-02  5.71799031E-02  3.64491662E-01  1.56335826E-02  3.02493924E-02
  2.78594904E-02  2.45331911E-01  2.60289633E-01  1.96656587E-02  4.68375233E-02
  2.49867225E-02  1.80414448E-03  3.32731460E-03  3.10236215E-03 -2.58374319E-02
 -5.95827938E-02 -3.99568768E-02  3.86626963E-02 -2.73160602E-03 -3.09790012E-02
 -1.08032539E-01 -1.61213651E-02  1.52897745E-02 -1.73830545E-02 -1.21733924E-03
  3.38734241E-03  1.12411714E-01  8.76872078E-02 -2.15500254E-01  2.30795822E-02
  7.76877557E-02  6.72450671E-02 -1.44761778E-01  2.47432599E-02  1.29866843E-02
  4.96021550E-03 -1.69000213E-02 -3.97389610E-02 -3.39795465E-02  8.71060730E-03
  5.33047615E-04 -2.77147537E-03 -3.77591467E-03 -9.30749288E-03 -1.81917136E-02
  6.47544355E-03 -1.20842543E-02  5.83787063E-02 -1.57927686E-03 -3.75004287E-02
 -6.74724285E-02  7.66517794E-02 -2.90883491E-02 -3.78101987E-02 -2.10040790E-01
  4.75852962E-02  2.23229787E-03 -2.58356937E-02 -3.68580916E-02  7.03037592E-02
 -1.92745344E-01  1.12248446E-01  3.89754909E-03  3.01708716E-01 -1.29181870E-01
  1.68286193E-01 -6.53714429E-04  2.06911921E-01  7.15029026E-02  6.43924813E-02
  4.41701902E-03  3.08051437E-04  1.65120553E-02  6.90596225E-02 -1.33302677E-01
 -2.20539459E-02 -7.00171963E-02 -9.81932518E-02  2.19337477E-02 -3.56200802E-03
  1.00412238E-03 -3.64830594E-02 -1.57580668E-02 -1.50405263E-02 -1.23253520E-03
  5.39938612E-03 -2.57936987E-01  5.17449212E-01  1.03305211E-01 -1.40496690E-02
 -1.82199203E-01  3.46248952E-01  6.32598047E-02 -4.33084244E-02 -2.79845861E-02