 Entering Gaussian System, Link 0=/opt/cluster/programs/g09_d.01/g09//g09
 Input=/home/unibas/boittier/RDKit_G2/L.pdb/SCAN_1_2_3_4_S_17_20.0/13_SCAN_1_2_3_4_F/13_SCAN_L.pdb.com
 Output=/scratch/boittier/13_SCAN_L.pdb/13_SCAN_L.pdb.out
 Initial command:
 /opt/cluster/programs/g09_d.01/g09/l1.exe "/scratch/boittier/13_SCAN_L.pdb/Gau-186437.inp" -scrdir="/scratch/boittier/13_SCAN_L.pdb/"
 Entering Link 1 = /opt/cluster/programs/g09_d.01/g09/l1.exe PID=    186438.
  
 Copyright (c) 1988,1990,1992,1993,1995,1998,2003,2009,2013,
            Gaussian, Inc.  All Rights Reserved.
  
 This is part of the Gaussian(R) 09 program.  It is based on
 the Gaussian(R) 03 system (copyright 2003, Gaussian, Inc.),
 the Gaussian(R) 98 system (copyright 1998, Gaussian, Inc.),
 the Gaussian(R) 94 system (copyright 1995, Gaussian, Inc.),
 the Gaussian 92(TM) system (copyright 1992, Gaussian, Inc.),
 the Gaussian 90(TM) system (copyright 1990, Gaussian, Inc.),
 the Gaussian 88(TM) system (copyright 1988, Gaussian, Inc.),
 the Gaussian 86(TM) system (copyright 1986, Carnegie Mellon
 University), and the Gaussian 82(TM) system (copyright 1983,
 Carnegie Mellon University). Gaussian is a federally registered
 trademark of Gaussian, Inc.
  
 This software contains proprietary and confidential information,
 including trade secrets, belonging to Gaussian, Inc.
  
 This software is provided under written license and may be
 used, copied, transmitted, or stored only in accord with that
 written license.
  
 The following legend is applicable only to US Government
 contracts under FAR:
  
                    RESTRICTED RIGHTS LEGEND
  
 Use, reproduction and disclosure by the US Government is
 subject to restrictions as set forth in subparagraphs (a)
 and (c) of the Commercial Computer Software - Restricted
 Rights clause in FAR 52.227-19.
  
 Gaussian, Inc.
 340 Quinnipiac St., Bldg. 40, Wallingford CT 06492
  
  
 ---------------------------------------------------------------
 Warning -- This program may not be used in any manner that
 competes with the business of Gaussian, Inc. or will provide
 assistance to any competitor of Gaussian, Inc.  The licensee
 of this program is prohibited from giving any competitor of
 Gaussian, Inc. access to this program.  By using this program,
 the user acknowledges that Gaussian, Inc. is engaged in the
 business of creating and licensing software in the field of
 computational chemistry and represents and warrants to the
 licensee that it is not a competitor of Gaussian, Inc. and that
 it will not use this program in any manner prohibited above.
 ---------------------------------------------------------------
  

 Cite this work as:
 Gaussian 09, Revision D.01,
 M. J. Frisch, G. W. Trucks, H. B. Schlegel, G. E. Scuseria, 
 M. A. Robb, J. R. Cheeseman, G. Scalmani, V. Barone, B. Mennucci, 
 G. A. Petersson, H. Nakatsuji, M. Caricato, X. Li, H. P. Hratchian, 
 A. F. Izmaylov, J. Bloino, G. Zheng, J. L. Sonnenberg, M. Hada, 
 M. Ehara, K. Toyota, R. Fukuda, J. Hasegawa, M. Ishida, T. Nakajima, 
 Y. Honda, O. Kitao, H. Nakai, T. Vreven, J. A. Montgomery, Jr., 
 J. E. Peralta, F. Ogliaro, M. Bearpark, J. J. Heyd, E. Brothers, 
 K. N. Kudin, V. N. Staroverov, T. Keith, R. Kobayashi, J. Normand, 
 K. Raghavachari, A. Rendell, J. C. Burant, S. S. Iyengar, J. Tomasi, 
 M. Cossi, N. Rega, J. M. Millam, M. Klene, J. E. Knox, J. B. Cross, 
 V. Bakken, C. Adamo, J. Jaramillo, R. Gomperts, R. E. Stratmann, 
 O. Yazyev, A. J. Austin, R. Cammi, C. Pomelli, J. W. Ochterski, 
 R. L. Martin, K. Morokuma, V. G. Zakrzewski, G. A. Voth, 
 P. Salvador, J. J. Dannenberg, S. Dapprich, A. D. Daniels, 
 O. Farkas, J. B. Foresman, J. V. Ortiz, J. Cioslowski, 
 and D. J. Fox, Gaussian, Inc., Wallingford CT, 2013.
 
 ******************************************
 Gaussian 09:  ES64L-G09RevD.01 24-Apr-2013
                12-May-2021 
 ******************************************
 %chk=/home/unibas/boittier/RDKit_G2/L.pdb/SCAN_1_2_3_4_S_17_20.0/13_SCAN_1_2_3_4
 _F/L.pdb.chk
 %nproc=8
 Will use up to    8 processors via shared memory.
 %mem=16GB
 -----------------------------
 #p wB97XD/6-31+G Opt=ModRedun
 -----------------------------
 1/14=-1,18=120,19=15,26=3,38=1/1,3;
 2/9=110,12=2,17=6,18=5,40=1/2;
 3/5=1,6=6,7=10,11=2,16=1,25=1,30=1,71=1,74=-58/1,2,3;
 4//1;
 5/5=2,38=5/2;
 6/7=2,8=2,9=2,10=2,28=1/1;
 7//1,2,3,16;
 1/14=-1,18=20,19=15,26=3/3(2);
 2/9=110/2;
 99//99;
 2/9=110/2;
 3/5=1,6=6,7=10,11=2,16=1,25=1,30=1,71=1,74=-58/1,2,3;
 4/5=5,16=3,69=1/1;
 5/5=2,38=5/2;
 7//1,2,3,16;
 1/14=-1,18=20,19=15,26=3/3(-5);
 2/9=110/2;
 6/7=2,8=2,9=2,10=2,19=2,28=1/1;
 99/9=1/99;
 Leave Link    1 at Wed May 12 11:58:23 2021, MaxMem=  2147483648 cpu:         0.3
 (Enter /opt/cluster/programs/g09_d.01/g09/l101.exe)
 -----
 L.pdb
 -----
 Symbolic Z-matrix:
 Charge =  0 Multiplicity = 1
 C                     1.62887   0.37689   0.06929 
 C                     0.63423  -0.48369  -0.1873 
 C                    -0.76487  -0.3141    0.29389 
 O                    -1.6086    0.42645  -0.23207 
 H                    -1.05868  -0.94775   1.15103 
 H                     2.64531   0.18313  -0.25936 
 H                     1.45893   1.30744   0.6046 
 H                     0.8339   -1.42903  -0.69504 
 
 The following ModRedundant input section has been read:
 D       1       2       3       4 F                                           
 
 NAtoms=      8 NQM=        8 NQMF=       0 NMMI=      0 NMMIF=      0
                NMic=       0 NMicF=      0.
                    Isotopes and Nuclear Properties:
 (Nuclear quadrupole moments (NQMom) in fm**2, nuclear magnetic moments (NMagM)
  in nuclear magnetons)

  Atom         1           2           3           4           5           6           7           8
 IAtWgt=          12          12          12          16           1           1           1           1
 AtmWgt=  12.0000000  12.0000000  12.0000000  15.9949146   1.0078250   1.0078250   1.0078250   1.0078250
 NucSpn=           0           0           0           0           1           1           1           1
 AtZEff=   0.0000000   0.0000000   0.0000000   0.0000000   0.0000000   0.0000000   0.0000000   0.0000000
 NQMom=    0.0000000   0.0000000   0.0000000   0.0000000   0.0000000   0.0000000   0.0000000   0.0000000
 NMagM=    0.0000000   0.0000000   0.0000000   0.0000000   2.7928460   2.7928460   2.7928460   2.7928460
 AtZNuc=   6.0000000   6.0000000   6.0000000   8.0000000   1.0000000   1.0000000   1.0000000   1.0000000
 Leave Link  101 at Wed May 12 11:58:24 2021, MaxMem=  2147483648 cpu:         4.1
 (Enter /opt/cluster/programs/g09_d.01/g09/l103.exe)

 GradGradGradGradGradGradGradGradGradGradGradGradGradGradGradGradGradGrad
 Berny optimization.
 Initialization pass.
                           ----------------------------
                           !    Initial Parameters    !
                           ! (Angstroms and Degrees)  !
 --------------------------                            --------------------------
 ! Name  Definition              Value          Derivative Info.                !
 --------------------------------------------------------------------------------
 ! R1    R(1,2)                  1.34           estimate D2E/DX2                !
 ! R2    R(1,6)                  1.0857         estimate D2E/DX2                !
 ! R3    R(1,7)                  1.0869         estimate D2E/DX2                !
 ! R4    R(2,3)                  1.4892         estimate D2E/DX2                !
 ! R5    R(2,8)                  1.0915         estimate D2E/DX2                !
 ! R6    R(3,4)                  1.2397         estimate D2E/DX2                !
 ! R7    R(3,5)                  1.1057         estimate D2E/DX2                !
 ! A1    A(2,1,6)              121.4881         estimate D2E/DX2                !
 ! A2    A(2,1,7)              121.8756         estimate D2E/DX2                !
 ! A3    A(6,1,7)              116.6323         estimate D2E/DX2                !
 ! A4    A(1,2,3)              124.2163         estimate D2E/DX2                !
 ! A5    A(1,2,8)              120.6311         estimate D2E/DX2                !
 ! A6    A(3,2,8)              114.8848         estimate D2E/DX2                !
 ! A7    A(2,3,4)              124.7734         estimate D2E/DX2                !
 ! A8    A(2,3,5)              115.7774         estimate D2E/DX2                !
 ! A9    A(4,3,5)              119.3646         estimate D2E/DX2                !
 ! D1    D(6,1,2,3)            176.7041         estimate D2E/DX2                !
 ! D2    D(6,1,2,8)              2.9584         estimate D2E/DX2                !
 ! D3    D(7,1,2,3)             -4.0508         estimate D2E/DX2                !
 ! D4    D(7,1,2,8)           -177.7965         estimate D2E/DX2                !
 ! D5    D(1,2,3,4)             80.0009         Frozen                          !
 ! D6    D(1,2,3,5)           -103.378          estimate D2E/DX2                !
 ! D7    D(8,2,3,4)           -105.9304         estimate D2E/DX2                !
 ! D8    D(8,2,3,5)             70.6907         estimate D2E/DX2                !
 --------------------------------------------------------------------------------
 Trust Radius=3.00D-01 FncErr=1.00D-07 GrdErr=1.00D-06
 Number of steps in this run=     34 maximum allowed number of steps=    100.
 GradGradGradGradGradGradGradGradGradGradGradGradGradGradGradGradGradGrad

 Leave Link  103 at Wed May 12 11:58:24 2021, MaxMem=  2147483648 cpu:         0.1
 (Enter /opt/cluster/programs/g09_d.01/g09/l202.exe)
                          Input orientation:                          
 ---------------------------------------------------------------------
 Center     Atomic      Atomic             Coordinates (Angstroms)
 Number     Number       Type             X           Y           Z
 ---------------------------------------------------------------------
      1          6           0        1.628866    0.376891    0.069294
      2          6           0        0.634231   -0.483687   -0.187300
      3          6           0       -0.764870   -0.314102    0.293890
      4          8           0       -1.608602    0.426449   -0.232067
      5          1           0       -1.058684   -0.947745    1.151032
      6          1           0        2.645311    0.183126   -0.259357
      7          1           0        1.458932    1.307442    0.604597
      8          1           0        0.833897   -1.429027   -0.695035
 ---------------------------------------------------------------------
                    Distance matrix (angstroms):
                    1          2          3          4          5
     1  C    0.000000
     2  C    1.340050   0.000000
     3  C    2.501577   1.489223   0.000000
     4  O    3.251842   2.420878   1.239730   0.000000
     5  H    3.185552   2.207361   1.105677   2.025779   0.000000
     6  H    1.085687   2.119970   3.490366   4.260954   4.121607
     7  H    1.086900   2.124941   2.769700   3.299382   3.423865
     8  H    2.116014   1.091480   2.185655   3.102085   2.687277
                    6          7          8
     6  H    0.000000
     7  H    1.848783   0.000000
     8  H    2.463752   3.093214   0.000000
 Stoichiometry    C3H4O
 Framework group  C1[X(C3H4O)]
 Deg. of freedom    18
 Full point group                 C1      NOp   1
 Largest Abelian subgroup         C1      NOp   1
 Largest concise Abelian subgroup C1      NOp   1
                         Standard orientation:                         
 ---------------------------------------------------------------------
 Center     Atomic      Atomic             Coordinates (Angstroms)
 Number     Number       Type             X           Y           Z
 ---------------------------------------------------------------------
      1          6           0       -1.628866   -0.376891    0.069294
      2          6           0       -0.634231    0.483687   -0.187300
      3          6           0        0.764870    0.314102    0.293890
      4          8           0        1.608602   -0.426449   -0.232067
      5          1           0        1.058684    0.947745    1.151032
      6          1           0       -2.645311   -0.183126   -0.259357
      7          1           0       -1.458932   -1.307442    0.604597
      8          1           0       -0.833897    1.429027   -0.695035
 ---------------------------------------------------------------------
 Rotational constants (GHZ):     28.3068660      5.0297867      4.6273448
 Leave Link  202 at Wed May 12 11:58:24 2021, MaxMem=  2147483648 cpu:         0.0
 (Enter /opt/cluster/programs/g09_d.01/g09/l301.exe)
 Standard basis: 6-31+G (6D, 7F)
 Ernie: Thresh=  0.10000D-02 Tol=  0.10000D-05 Strict=F.
 There are    60 symmetry adapted cartesian basis functions of A   symmetry.
 There are    60 symmetry adapted basis functions of A   symmetry.
    60 basis functions,   120 primitive gaussians,    60 cartesian basis functions
    15 alpha electrons       15 beta electrons
       nuclear repulsion energy       102.3612820432 Hartrees.
 IExCor= 4639 DFT=T Ex+Corr=wB97XD ExCW=0 ScaHFX=  1.000000
 ScaDFX=  1.000000  1.000000  1.000000  1.000000 ScalE2=  1.000000  1.000000
 IRadAn=      0 IRanWt=     -1 IRanGd=            0 ICorTp=0 IEmpDi=121
  HFx wShort=  0.000000 wLong=  0.200000 cFull=  0.222036 cShort=  0.000000 cLong=  0.777964
  DFx wShort=  0.000000 wLong=  0.200000 cFull=  0.000000 cShort=  0.000000 cLong=  1.000000
 NAtoms=    8 NActive=    8 NUniq=    8 SFac= 1.00D+00 NAtFMM=   60 NAOKFM=F Big=F
 Integral buffers will be    131072 words long.
 Raffenetti 2 integral format.
 Two-electron integral symmetry is turned on.
 R6Disp:  Grimme-D2 Dispersion energy=       -0.0017833201 Hartrees.
 Nuclear repulsion after empirical dispersion term =      102.3594987230 Hartrees.
 Leave Link  301 at Wed May 12 11:58:24 2021, MaxMem=  2147483648 cpu:         0.3
 (Enter /opt/cluster/programs/g09_d.01/g09/l302.exe)
 NPDir=0 NMtPBC=     1 NCelOv=     1 NCel=       1 NClECP=     1 NCelD=      1
         NCelK=      1 NCelE2=     1 NClLst=     1 CellRange=     0.0.
 One-electron integrals computed using PRISM.
 NBasis=    60 RedAO= T EigKep=  1.29D-04  NBF=    60
 NBsUse=    60 1.00D-06 EigRej= -1.00D+00 NBFU=    60
 Precomputing XC quadrature grid using
 IXCGrd= 4 IRadAn=           0 IRanWt=          -1 IRanGd=           0 AccXCQ= 0.00D+00.
 Generated NRdTot=       0 NPtTot=           0 NUsed=           0 NTot=          32
 NSgBfM=    60    60    60    60    60 MxSgAt=     8 MxSgA2=     8.
 Leave Link  302 at Wed May 12 11:58:24 2021, MaxMem=  2147483648 cpu:         0.8
 (Enter /opt/cluster/programs/g09_d.01/g09/l303.exe)
 DipDrv:  MaxL=1.
 Leave Link  303 at Wed May 12 11:58:24 2021, MaxMem=  2147483648 cpu:         0.2
 (Enter /opt/cluster/programs/g09_d.01/g09/l401.exe)
 ExpMin= 4.38D-02 ExpMax= 5.48D+03 ExpMxC= 8.25D+02 IAcc=2 IRadAn=         4 AccDes= 0.00D+00
 Harris functional with IExCor= 4639 and IRadAn=       4 diagonalized for initial guess.
 HarFok:  IExCor= 4639 AccDes= 0.00D+00 IRadAn=         4 IDoV= 1 UseB2=F ITyADJ=14
 ICtDFT=  3500011 ScaDFX=  1.000000  1.000000  1.000000  1.000000
 FoFCou: FMM=F IPFlag=           0 FMFlag=      100000 FMFlg1=           0
         NFxFlg=           0 DoJE=T BraDBF=F KetDBF=T FulRan=T
         wScrn=  0.000000 ICntrl=     500 IOpCl=  0 I1Cent=   200000004 NGrid=           0
         NMat0=    1 NMatS0=      1 NMatT0=    0 NMatD0=    1 NMtDS0=    0 NMtDT0=    0
 Petite list used in FoFCou.
 Harris En= -183.740674426480    
 JPrj=0 DoOrth=F DoCkMO=F.
 Leave Link  401 at Wed May 12 11:58:24 2021, MaxMem=  2147483648 cpu:         1.0
 (Enter /opt/cluster/programs/g09_d.01/g09/l502.exe)
 Closed shell SCF:
 Using DIIS extrapolation, IDIIS=  1040.
 Integral symmetry usage will be decided dynamically.
 Keep R1 ints in memory in canonical form, NReq=4262490.
 IVT=       30290 IEndB=       30290 NGot=  2147483648 MDV=  2144102629
 LenX=  2144102629 LenY=  2144098588
 Requested convergence on RMS density matrix=1.00D-08 within 128 cycles.
 Requested convergence on MAX density matrix=1.00D-06.
 Requested convergence on             energy=1.00D-06.
 No special actions if energy rises.
 FoFCou: FMM=F IPFlag=           0 FMFlag=           0 FMFlg1=           0
         NFxFlg=           0 DoJE=F BraDBF=F KetDBF=F FulRan=T
         wScrn=  0.000000 ICntrl=     600 IOpCl=  0 I1Cent=           0 NGrid=           0
         NMat0=    1 NMatS0=   1830 NMatT0=    0 NMatD0=    1 NMtDS0=    0 NMtDT0=    0
 Symmetry not used in FoFCou.

 Cycle   1  Pass 1  IDiag  1:
 E= -191.741459394915    
 DIIS: error= 2.03D-02 at cycle   1 NSaved=   1.
 NSaved= 1 IEnMin= 1 EnMin= -191.741459394915     IErMin= 1 ErrMin= 2.03D-02
 ErrMax= 2.03D-02  0.00D+00 EMaxC= 1.00D-01 BMatC= 7.42D-02 BMatP= 7.42D-02
 IDIUse=3 WtCom= 7.97D-01 WtEn= 2.03D-01
 Coeff-Com:  0.100D+01
 Coeff-En:   0.100D+01
 Coeff:      0.100D+01
 Gap=     0.449 Goal=   None    Shift=    0.000
 GapD=    0.449 DampG=2.000 DampE=0.500 DampFc=1.0000 IDamp=-1.
 RMSDP=1.02D-02 MaxDP=1.00D-01              OVMax= 7.47D-02

 Cycle   2  Pass 1  IDiag  1:
 E= -191.756960105368     Delta-E=       -0.015500710453 Rises=F Damp=F
 DIIS: error= 2.05D-02 at cycle   2 NSaved=   2.
 NSaved= 2 IEnMin= 2 EnMin= -191.756960105368     IErMin= 1 ErrMin= 2.03D-02
 ErrMax= 2.05D-02  0.00D+00 EMaxC= 1.00D-01 BMatC= 3.11D-02 BMatP= 7.42D-02
 IDIUse=3 WtCom= 7.95D-01 WtEn= 2.05D-01
 Coeff-Com:  0.370D+00 0.630D+00
 Coeff-En:   0.346D+00 0.654D+00
 Coeff:      0.365D+00 0.635D+00
 Gap=     0.411 Goal=   None    Shift=    0.000
 RMSDP=3.71D-03 MaxDP=4.98D-02 DE=-1.55D-02 OVMax= 6.74D-02

 Cycle   3  Pass 1  IDiag  1:
 E= -191.777163264087     Delta-E=       -0.020203158719 Rises=F Damp=F
 DIIS: error= 8.19D-03 at cycle   3 NSaved=   3.
 NSaved= 3 IEnMin= 3 EnMin= -191.777163264087     IErMin= 3 ErrMin= 8.19D-03
 ErrMax= 8.19D-03  0.00D+00 EMaxC= 1.00D-01 BMatC= 7.34D-03 BMatP= 3.11D-02
 IDIUse=3 WtCom= 9.18D-01 WtEn= 8.19D-02
 Coeff-Com:  0.631D-01 0.334D+00 0.603D+00
 Coeff-En:   0.000D+00 0.142D+00 0.858D+00
 Coeff:      0.579D-01 0.318D+00 0.624D+00
 Gap=     0.374 Goal=   None    Shift=    0.000
 RMSDP=1.63D-03 MaxDP=2.01D-02 DE=-2.02D-02 OVMax= 3.21D-02

 Cycle   4  Pass 1  IDiag  1:
 E= -191.782155395950     Delta-E=       -0.004992131863 Rises=F Damp=F
 DIIS: error= 3.74D-03 at cycle   4 NSaved=   4.
 NSaved= 4 IEnMin= 4 EnMin= -191.782155395950     IErMin= 4 ErrMin= 3.74D-03
 ErrMax= 3.74D-03  0.00D+00 EMaxC= 1.00D-01 BMatC= 8.30D-04 BMatP= 7.34D-03
 IDIUse=3 WtCom= 9.63D-01 WtEn= 3.74D-02
 Coeff-Com: -0.377D-02 0.943D-01 0.327D+00 0.582D+00
 Coeff-En:   0.000D+00 0.000D+00 0.557D-01 0.944D+00
 Coeff:     -0.363D-02 0.908D-01 0.317D+00 0.596D+00
 Gap=     0.369 Goal=   None    Shift=    0.000
 RMSDP=6.15D-04 MaxDP=5.87D-03 DE=-4.99D-03 OVMax= 9.23D-03

 Cycle   5  Pass 1  IDiag  1:
 E= -191.782845298492     Delta-E=       -0.000689902542 Rises=F Damp=F
 DIIS: error= 9.66D-04 at cycle   5 NSaved=   5.
 NSaved= 5 IEnMin= 5 EnMin= -191.782845298492     IErMin= 5 ErrMin= 9.66D-04
 ErrMax= 9.66D-04  0.00D+00 EMaxC= 1.00D-01 BMatC= 2.67D-05 BMatP= 8.30D-04
 IDIUse=3 WtCom= 9.90D-01 WtEn= 9.66D-03
 Coeff-Com: -0.444D-02 0.235D-01 0.110D+00 0.261D+00 0.610D+00
 Coeff-En:   0.000D+00 0.000D+00 0.000D+00 0.000D+00 0.100D+01
 Coeff:     -0.440D-02 0.232D-01 0.109D+00 0.258D+00 0.614D+00
 Gap=     0.369 Goal=   None    Shift=    0.000
 RMSDP=1.60D-04 MaxDP=1.80D-03 DE=-6.90D-04 OVMax= 2.53D-03

 Cycle   6  Pass 1  IDiag  1:
 E= -191.782872295695     Delta-E=       -0.000026997203 Rises=F Damp=F
 DIIS: error= 1.54D-04 at cycle   6 NSaved=   6.
 NSaved= 6 IEnMin= 6 EnMin= -191.782872295695     IErMin= 6 ErrMin= 1.54D-04
 ErrMax= 1.54D-04  0.00D+00 EMaxC= 1.00D-01 BMatC= 1.44D-06 BMatP= 2.67D-05
 IDIUse=3 WtCom= 9.98D-01 WtEn= 1.54D-03
 Coeff-Com: -0.110D-03-0.120D-01-0.306D-01-0.379D-01 0.139D+00 0.941D+00
 Coeff-En:   0.000D+00 0.000D+00 0.000D+00 0.000D+00 0.000D+00 0.100D+01
 Coeff:     -0.110D-03-0.120D-01-0.305D-01-0.379D-01 0.139D+00 0.941D+00
 Gap=     0.369 Goal=   None    Shift=    0.000
 RMSDP=1.32D-04 MaxDP=1.73D-03 DE=-2.70D-05 OVMax= 8.51D-04

 Cycle   7  Pass 1  IDiag  1:
 E= -191.782874774442     Delta-E=       -0.000002478747 Rises=F Damp=F
 DIIS: error= 3.02D-05 at cycle   7 NSaved=   7.
 NSaved= 7 IEnMin= 7 EnMin= -191.782874774442     IErMin= 7 ErrMin= 3.02D-05
 ErrMax= 3.02D-05  0.00D+00 EMaxC= 1.00D-01 BMatC= 8.87D-08 BMatP= 1.44D-06
 IDIUse=1 WtCom= 1.00D+00 WtEn= 0.00D+00
 Coeff-Com:  0.275D-03-0.463D-02-0.153D-01-0.235D-01-0.601D-03 0.252D+00
 Coeff-Com:  0.791D+00
 Coeff:      0.275D-03-0.463D-02-0.153D-01-0.235D-01-0.601D-03 0.252D+00
 Coeff:      0.791D+00
 Gap=     0.369 Goal=   None    Shift=    0.000
 RMSDP=2.16D-05 MaxDP=2.86D-04 DE=-2.48D-06 OVMax= 1.70D-04

 Cycle   8  Pass 1  IDiag  1:
 E= -191.782874930769     Delta-E=       -0.000000156327 Rises=F Damp=F
 DIIS: error= 1.04D-05 at cycle   8 NSaved=   8.
 NSaved= 8 IEnMin= 8 EnMin= -191.782874930769     IErMin= 8 ErrMin= 1.04D-05
 ErrMax= 1.04D-05  0.00D+00 EMaxC= 1.00D-01 BMatC= 6.47D-09 BMatP= 8.87D-08
 IDIUse=1 WtCom= 1.00D+00 WtEn= 0.00D+00
 Coeff-Com:  0.447D-05 0.106D-02 0.225D-02 0.367D-02-0.173D-01-0.878D-01
 Coeff-Com:  0.355D-01 0.106D+01
 Coeff:      0.447D-05 0.106D-02 0.225D-02 0.367D-02-0.173D-01-0.878D-01
 Coeff:      0.355D-01 0.106D+01
 Gap=     0.369 Goal=   None    Shift=    0.000
 RMSDP=8.37D-06 MaxDP=1.09D-04 DE=-1.56D-07 OVMax= 9.80D-05

 Cycle   9  Pass 1  IDiag  1:
 E= -191.782874950923     Delta-E=       -0.000000020154 Rises=F Damp=F
 DIIS: error= 3.08D-06 at cycle   9 NSaved=   9.
 NSaved= 9 IEnMin= 9 EnMin= -191.782874950923     IErMin= 9 ErrMin= 3.08D-06
 ErrMax= 3.08D-06  0.00D+00 EMaxC= 1.00D-01 BMatC= 2.45D-10 BMatP= 6.47D-09
 IDIUse=1 WtCom= 1.00D+00 WtEn= 0.00D+00
 Coeff-Com: -0.172D-04 0.208D-03 0.784D-03 0.133D-02 0.219D-02-0.658D-02
 Coeff-Com: -0.600D-01-0.105D+00 0.117D+01
 Coeff:     -0.172D-04 0.208D-03 0.784D-03 0.133D-02 0.219D-02-0.658D-02
 Coeff:     -0.600D-01-0.105D+00 0.117D+01
 Gap=     0.369 Goal=   None    Shift=    0.000
 RMSDP=1.66D-06 MaxDP=1.54D-05 DE=-2.02D-08 OVMax= 3.15D-05

 Cycle  10  Pass 1  IDiag  1:
 E= -191.782874952472     Delta-E=       -0.000000001549 Rises=F Damp=F
 DIIS: error= 1.11D-06 at cycle  10 NSaved=  10.
 NSaved=10 IEnMin=10 EnMin= -191.782874952472     IErMin=10 ErrMin= 1.11D-06
 ErrMax= 1.11D-06  0.00D+00 EMaxC= 1.00D-01 BMatC= 2.08D-11 BMatP= 2.45D-10
 IDIUse=1 WtCom= 1.00D+00 WtEn= 0.00D+00
 Coeff-Com:  0.489D-05-0.110D-03-0.358D-03-0.556D-03 0.129D-03 0.651D-02
 Coeff-Com:  0.163D-01-0.150D-01-0.388D+00 0.138D+01
 Coeff:      0.489D-05-0.110D-03-0.358D-03-0.556D-03 0.129D-03 0.651D-02
 Coeff:      0.163D-01-0.150D-01-0.388D+00 0.138D+01
 Gap=     0.369 Goal=   None    Shift=    0.000
 RMSDP=5.93D-07 MaxDP=5.94D-06 DE=-1.55D-09 OVMax= 1.40D-05

 Cycle  11  Pass 1  IDiag  1:
 E= -191.782874952645     Delta-E=       -0.000000000173 Rises=F Damp=F
 DIIS: error= 3.49D-07 at cycle  11 NSaved=  11.
 NSaved=11 IEnMin=11 EnMin= -191.782874952645     IErMin=11 ErrMin= 3.49D-07
 ErrMax= 3.49D-07  0.00D+00 EMaxC= 1.00D-01 BMatC= 2.26D-12 BMatP= 2.08D-11
 IDIUse=1 WtCom= 1.00D+00 WtEn= 0.00D+00
 Coeff-Com: -0.935D-06 0.304D-04 0.925D-04 0.112D-03-0.196D-03-0.253D-02
 Coeff-Com: -0.234D-02 0.154D-01 0.753D-01-0.610D+00 0.152D+01
 Coeff:     -0.935D-06 0.304D-04 0.925D-04 0.112D-03-0.196D-03-0.253D-02
 Coeff:     -0.234D-02 0.154D-01 0.753D-01-0.610D+00 0.152D+01
 Gap=     0.369 Goal=   None    Shift=    0.000
 RMSDP=1.81D-07 MaxDP=1.54D-06 DE=-1.73D-10 OVMax= 6.24D-06

 Cycle  12  Pass 1  IDiag  1:
 E= -191.782874952666     Delta-E=       -0.000000000021 Rises=F Damp=F
 DIIS: error= 9.31D-08 at cycle  12 NSaved=  12.
 NSaved=12 IEnMin=12 EnMin= -191.782874952666     IErMin=12 ErrMin= 9.31D-08
 ErrMax= 9.31D-08  0.00D+00 EMaxC= 1.00D-01 BMatC= 1.55D-13 BMatP= 2.26D-12
 IDIUse=1 WtCom= 1.00D+00 WtEn= 0.00D+00
 Coeff-Com: -0.113D-06 0.267D-06 0.517D-05 0.142D-04 0.598D-04 0.253D-03
 Coeff-Com: -0.742D-03-0.376D-02 0.115D-01 0.712D-01-0.474D+00 0.140D+01
 Coeff:     -0.113D-06 0.267D-06 0.517D-05 0.142D-04 0.598D-04 0.253D-03
 Coeff:     -0.742D-03-0.376D-02 0.115D-01 0.712D-01-0.474D+00 0.140D+01
 Gap=     0.369 Goal=   None    Shift=    0.000
 RMSDP=4.44D-08 MaxDP=4.15D-07 DE=-2.10D-11 OVMax= 1.68D-06

 Cycle  13  Pass 1  IDiag  1:
 E= -191.782874952668     Delta-E=       -0.000000000002 Rises=F Damp=F
 DIIS: error= 1.63D-08 at cycle  13 NSaved=  13.
 NSaved=13 IEnMin=13 EnMin= -191.782874952668     IErMin=13 ErrMin= 1.63D-08
 ErrMax= 1.63D-08  0.00D+00 EMaxC= 1.00D-01 BMatC= 1.06D-14 BMatP= 1.55D-13
 IDIUse=1 WtCom= 1.00D+00 WtEn= 0.00D+00
 Coeff-Com:  0.811D-07-0.198D-05-0.729D-05-0.864D-05-0.602D-06 0.112D-03
 Coeff-Com:  0.312D-03-0.290D-03-0.695D-02 0.245D-01 0.361D-02-0.353D+00
 Coeff-Com:  0.133D+01
 Coeff:      0.811D-07-0.198D-05-0.729D-05-0.864D-05-0.602D-06 0.112D-03
 Coeff:      0.312D-03-0.290D-03-0.695D-02 0.245D-01 0.361D-02-0.353D+00
 Coeff:      0.133D+01
 Gap=     0.369 Goal=   None    Shift=    0.000
 RMSDP=1.37D-08 MaxDP=1.12D-07 DE=-1.53D-12 OVMax= 3.54D-07

 Cycle  14  Pass 1  IDiag  1:
 E= -191.782874952667     Delta-E=        0.000000000001 Rises=F Damp=F
 DIIS: error= 2.24D-09 at cycle  14 NSaved=  14.
 NSaved=14 IEnMin=13 EnMin= -191.782874952668     IErMin=14 ErrMin= 2.24D-09
 ErrMax= 2.24D-09  0.00D+00 EMaxC= 1.00D-01 BMatC= 4.01D-16 BMatP= 1.06D-14
 IDIUse=1 WtCom= 1.00D+00 WtEn= 0.00D+00
 Coeff-Com: -0.868D-08 0.266D-06 0.761D-06 0.743D-06-0.432D-05-0.304D-04
 Coeff-Com: -0.192D-04 0.232D-03 0.514D-03-0.765D-02 0.247D-01-0.211D-01
 Coeff-Com: -0.183D+00 0.119D+01
 Coeff:     -0.868D-08 0.266D-06 0.761D-06 0.743D-06-0.432D-05-0.304D-04
 Coeff:     -0.192D-04 0.232D-03 0.514D-03-0.765D-02 0.247D-01-0.211D-01
 Coeff:     -0.183D+00 0.119D+01
 Gap=     0.369 Goal=   None    Shift=    0.000
 RMSDP=1.96D-09 MaxDP=1.55D-08 DE= 7.39D-13 OVMax= 3.49D-08

 SCF Done:  E(RwB97XD) =  -191.782874953     A.U. after   14 cycles
            NFock= 14  Conv=0.20D-08     -V/T= 2.0061
 KE= 1.906266037209D+02 PE=-6.520852597460D+02 EE= 1.673162823494D+02
 Leave Link  502 at Wed May 12 11:58:26 2021, MaxMem=  2147483648 cpu:         9.3
 (Enter /opt/cluster/programs/g09_d.01/g09/l601.exe)
 Copying SCF densities to generalized density rwf, IOpCl= 0 IROHF=0.

 **********************************************************************

            Population analysis using the SCF density.

 **********************************************************************

 Orbital symmetries:
       Occupied  (A) (A) (A) (A) (A) (A) (A) (A) (A) (A) (A) (A)
                 (A) (A) (A)
       Virtual   (A) (A) (A) (A) (A) (A) (A) (A) (A) (A) (A) (A)
                 (A) (A) (A) (A) (A) (A) (A) (A) (A) (A) (A) (A)
                 (A) (A) (A) (A) (A) (A) (A) (A) (A) (A) (A) (A)
                 (A) (A) (A) (A) (A) (A) (A) (A) (A)
 The electronic state is 1-A.
 Alpha  occ. eigenvalues --  -19.29711 -10.41367 -10.33330 -10.32626  -1.17564
 Alpha  occ. eigenvalues --   -0.90976  -0.76682  -0.66265  -0.60477  -0.55807
 Alpha  occ. eigenvalues --   -0.54042  -0.48868  -0.46809  -0.37753  -0.35496
 Alpha virt. eigenvalues --    0.01394   0.04377   0.07575   0.08410   0.09413
 Alpha virt. eigenvalues --    0.11025   0.12441   0.13400   0.14681   0.16640
 Alpha virt. eigenvalues --    0.17151   0.17771   0.19440   0.22427   0.27244
 Alpha virt. eigenvalues --    0.28384   0.29706   0.31114   0.32964   0.33393
 Alpha virt. eigenvalues --    0.37100   0.38944   0.45109   0.45520   0.50158
 Alpha virt. eigenvalues --    0.69484   0.72142   0.75897   0.77655   0.80807
 Alpha virt. eigenvalues --    0.85036   0.89511   0.90514   1.01673   1.05144
 Alpha virt. eigenvalues --    1.09838   1.11803   1.13445   1.23530   1.27083
 Alpha virt. eigenvalues --    1.31322   1.31771   1.38626   1.47001   1.89047
          Condensed to atoms (all electrons):
               1          2          3          4          5          6
     1  C    5.077762   0.509029   0.013383  -0.007762   0.001868   0.375970
     2  C    0.509029   5.326068   0.231502  -0.121437  -0.086910  -0.028359
     3  C    0.013383   0.231502   5.073466   0.309417   0.349225   0.005791
     4  O   -0.007762  -0.121437   0.309417   8.269745  -0.071946  -0.000194
     5  H    0.001868  -0.086910   0.349225  -0.071946   0.621396  -0.000139
     6  H    0.375970  -0.028359   0.005791  -0.000194  -0.000139   0.471687
     7  H    0.393031  -0.056378   0.007469   0.000746   0.000139  -0.022976
     8  H    0.025610   0.323960  -0.032032   0.002912   0.001430  -0.004364
               7          8
     1  C    0.393031   0.025610
     2  C   -0.056378   0.323960
     3  C    0.007469  -0.032032
     4  O    0.000746   0.002912
     5  H    0.000139   0.001430
     6  H   -0.022976  -0.004364
     7  H    0.466417   0.002530
     8  H    0.002530   0.450433
 Mulliken charges:
               1
     1  C   -0.388892
     2  C   -0.097474
     3  C    0.041779
     4  O   -0.381480
     5  H    0.184939
     6  H    0.202585
     7  H    0.209022
     8  H    0.229520
 Sum of Mulliken charges =   0.00000
 Mulliken charges with hydrogens summed into heavy atoms:
               1
     1  C    0.022716
     2  C    0.132046
     3  C    0.226718
     4  O   -0.381480
 Electronic spatial extent (au):  <R**2>=            290.3695
 Charge=              0.0000 electrons
 Dipole moment (field-independent basis, Debye):
    X=             -2.5866    Y=              1.6725    Z=              1.1015  Tot=              3.2713
 Quadrupole moment (field-independent basis, Debye-Ang):
   XX=            -26.6224   YY=            -22.8193   ZZ=            -24.5781
   XY=              2.9446   XZ=              2.1000   YZ=             -1.6238
 Traceless Quadrupole moment (field-independent basis, Debye-Ang):
   XX=             -1.9491   YY=              1.8540   ZZ=              0.0952
   XY=              2.9446   XZ=              2.1000   YZ=             -1.6238
 Octapole moment (field-independent basis, Debye-Ang**2):
  XXX=            -10.8876  YYY=             -0.0210  ZZZ=              0.5696  XYY=              0.2892
  XXY=              2.3007  XXZ=              0.0876  XZZ=              3.4262  YZZ=              0.6322
  YYZ=              0.2600  XYZ=              1.6841
 Hexadecapole moment (field-independent basis, Debye-Ang**3):
 XXXX=           -273.7332 YYYY=            -61.7878 ZZZZ=            -42.3874 XXXY=              6.6906
 XXXZ=              6.1818 YYYX=             -0.4958 YYYZ=             -3.7464 ZZZX=              0.6790
 ZZZY=             -0.8765 XXYY=            -56.4700 XXZZ=            -54.0026 YYZZ=            -16.6700
 XXYZ=             -2.5730 YYXZ=              0.6586 ZZXY=              0.4842
 N-N= 1.023594987230D+02 E-N=-6.520852597649D+02  KE= 1.906266037209D+02
 No NMR shielding tensors so no spin-rotation constants.
 Leave Link  601 at Wed May 12 11:58:26 2021, MaxMem=  2147483648 cpu:         0.6
 (Enter /opt/cluster/programs/g09_d.01/g09/l701.exe)
 Compute integral first derivatives.
 ... and contract with generalized density number  0.
 R6Disp: Adding Grimme-D2 dispersion energy 1st derivatives to the gradient.
 Leave Link  701 at Wed May 12 11:58:26 2021, MaxMem=  2147483648 cpu:         0.6
 (Enter /opt/cluster/programs/g09_d.01/g09/l702.exe)
 L702 exits ... SP integral derivatives will be done elsewhere.
 Leave Link  702 at Wed May 12 11:58:26 2021, MaxMem=  2147483648 cpu:         0.2
 (Enter /opt/cluster/programs/g09_d.01/g09/l703.exe)
 Compute integral first derivatives, UseDBF=F ICtDFT=           0.
 Integral derivatives from FoFJK, PRISM(SPDF).
 Calling FoFJK, ICntrl=      2127 FMM=F ISym2X=0 I1Cent= 0 IOpClX= 0 NMat=1 NMatS=1 NMatT=0.
 FoFJK:  IHMeth= 1 ICntrl=    2127 DoSepK=T KAlg= 0 I1Cent=   0 FoldK=F
 IRaf=         1 NMat=   1 IRICut=       1 DoRegI=T DoRafI=F ISym2E= 0.
 FoFCou: FMM=F IPFlag=           0 FMFlag=      100000 FMFlg1=         800
         NFxFlg=           0 DoJE=F BraDBF=F KetDBF=F FulRan=T
         wScrn=  0.000000 ICntrl=    2527 IOpCl=  0 I1Cent=           0 NGrid=           0
         NMat0=    1 NMatS0=      1 NMatT0=    0 NMatD0=    1 NMtDS0=    0 NMtDT0=    0
 Symmetry not used in FoFCou.
 Leave Link  703 at Wed May 12 11:58:26 2021, MaxMem=  2147483648 cpu:         2.5
 (Enter /opt/cluster/programs/g09_d.01/g09/l716.exe)
 Dipole        =-1.01764725D+00 6.58031290D-01 4.33352358D-01
 ***** Axes restored to original set *****
 -------------------------------------------------------------------
 Center     Atomic                   Forces (Hartrees/Bohr)
 Number     Number              X              Y              Z
 -------------------------------------------------------------------
      1        6          -0.004270370   -0.000450436   -0.003510237
      2        6           0.004781876    0.000610790    0.006346882
      3        6          -0.007234363    0.000620538   -0.007183974
      4        8           0.007743790   -0.002381759    0.005876186
      5        1           0.000417837    0.001307761   -0.001341895
      6        1          -0.000781880   -0.000351459    0.000015371
      7        1          -0.000403403   -0.000436901   -0.000314519
      8        1          -0.000253486    0.001081465    0.000112186
 -------------------------------------------------------------------
 Cartesian Forces:  Max     0.007743790 RMS     0.003564301
 Leave Link  716 at Wed May 12 11:58:26 2021, MaxMem=  2147483648 cpu:         0.2
 (Enter /opt/cluster/programs/g09_d.01/g09/l103.exe)

 GradGradGradGradGradGradGradGradGradGradGradGradGradGradGradGradGradGrad
 Berny optimization.
 FormGI is forming the generalized inverse of G from B-inverse, IUseBI=4.
 Internal  Forces:  Max     0.009183915 RMS     0.002626239
 Search for a local minimum.
 Step number   1 out of a maximum of   34
 All quantities printed in internal units (Hartrees-Bohrs-Radians)
 RMS Force = .23619D-02 SwitMx=.10000D-02 MixMth= 1
 Mixed Optimization -- RFO/linear search
 Second derivative matrix not updated -- first step.
 ITU=  0
     Eigenvalues ---    0.00916   0.01767   0.02882   0.02882   0.15947
     Eigenvalues ---    0.16000   0.16000   0.16000   0.22005   0.22014
     Eigenvalues ---    0.33062   0.33535   0.34642   0.35173   0.35316
     Eigenvalues ---    0.57194   0.871501000.000001000.000001000.00000
     Eigenvalues --- 1000.000001000.000001000.000001000.00000
 RFO step:  Lambda=-2.09042801D-04 EMin= 9.15689492D-03
 Linear search not attempted -- first point.
 Iteration  1 RMS(Cart)=  0.01072470 RMS(Int)=  0.00005344
 Iteration  2 RMS(Cart)=  0.00005180 RMS(Int)=  0.00001123
 Iteration  3 RMS(Cart)=  0.00000000 RMS(Int)=  0.00001123
 Iteration  1 RMS(Cart)=  0.00000003 RMS(Int)=  0.00000003
 ITry= 1 IFail=0 DXMaxC= 2.45D-02 DCOld= 1.00D+10 DXMaxT= 3.00D-01 DXLimC= 3.00D+00 Rises=F
 Variable       Old X    -DE/DX   Delta X   Delta X   Delta X     New X
                                 (Linear)    (Quad)   (Total)
    R1        2.53233  -0.00557   0.00000  -0.00974  -0.00974   2.52259
    R2        2.05165  -0.00068   0.00000  -0.00191  -0.00191   2.04974
    R3        2.05394  -0.00046   0.00000  -0.00132  -0.00132   2.05263
    R4        2.81422  -0.00178   0.00000  -0.00531  -0.00531   2.80892
    R5        2.06260  -0.00104   0.00000  -0.00299  -0.00299   2.05961
    R6        2.34275  -0.00918   0.00000  -0.01054  -0.01054   2.33221
    R7        2.08943  -0.00190   0.00000  -0.00575  -0.00575   2.08367
    A1        2.12037  -0.00040   0.00000  -0.00250  -0.00251   2.11786
    A2        2.12713  -0.00028   0.00000  -0.00175  -0.00175   2.12538
    A3        2.03562   0.00068   0.00000   0.00422   0.00422   2.03984
    A4        2.16798  -0.00118   0.00000  -0.00538  -0.00539   2.16260
    A5        2.10541   0.00076   0.00000   0.00299   0.00297   2.10838
    A6        2.00512   0.00059   0.00000   0.00325   0.00323   2.00835
    A7        2.17771  -0.00083   0.00000  -0.00388  -0.00391   2.17380
    A8        2.02070   0.00068   0.00000   0.00337   0.00334   2.02404
    A9        2.08331   0.00034   0.00000   0.00123   0.00120   2.08450
    D1        3.08407   0.00102   0.00000   0.00406   0.00406   3.08813
    D2        0.05163  -0.00108   0.00000  -0.00613  -0.00613   0.04550
    D3       -0.07070   0.00094   0.00000   0.00135   0.00135  -0.06935
    D4       -3.10313  -0.00116   0.00000  -0.00883  -0.00883  -3.11197
    D5        1.39628  -0.00480   0.00000   0.00000   0.00000   1.39628
    D6       -1.80429  -0.00083   0.00000   0.01444   0.01444  -1.78984
    D7       -1.84883  -0.00279   0.00000   0.00968   0.00968  -1.83915
    D8        1.23379   0.00118   0.00000   0.02413   0.02413   1.25791
         Item               Value     Threshold  Converged?
 Maximum Force            0.009184     0.000450     NO 
 RMS     Force            0.002362     0.000300     NO 
 Maximum Displacement     0.024498     0.001800     NO 
 RMS     Displacement     0.010736     0.001200     NO 
 Predicted change in Energy=-1.046537D-04
 Lowest energy point so far.  Saving SCF results.
 GradGradGradGradGradGradGradGradGradGradGradGradGradGradGradGradGradGrad

 Leave Link  103 at Wed May 12 11:58:26 2021, MaxMem=  2147483648 cpu:         0.0
 (Enter /opt/cluster/programs/g09_d.01/g09/l202.exe)
                          Input orientation:                          
 ---------------------------------------------------------------------
 Center     Atomic      Atomic             Coordinates (Angstroms)
 Number     Number       Type             X           Y           Z
 ---------------------------------------------------------------------
      1          6           0        1.623028    0.373652    0.071138
      2          6           0        0.635637   -0.486631   -0.187558
      3          6           0       -0.760486   -0.315415    0.293015
      4          8           0       -1.596405    0.423927   -0.234006
      5          1           0       -1.053069   -0.934781    1.157063
      6          1           0        2.638448    0.183049   -0.259189
      7          1           0        1.447246    1.301630    0.607602
      8          1           0        0.834683   -1.426083   -0.703011
 ---------------------------------------------------------------------
                    Distance matrix (angstroms):
                    1          2          3          4          5
     1  C    0.000000
     2  C    1.334897   0.000000
     3  C    2.491020   1.486414   0.000000
     4  O    3.234252   2.411076   1.234155   0.000000
     5  H    3.170603   2.204671   1.102632   2.019004   0.000000
     6  H    1.084676   2.113020   3.479389   4.241772   4.108845
     7  H    1.086203   2.118695   2.754611   3.277572   3.399267
     8  H    2.111832   1.089899   2.184082   3.090742   2.695340
                    6          7          8
     6  H    0.000000
     7  H    1.849733   0.000000
     8  H    2.457610   3.087613   0.000000
 Stoichiometry    C3H4O
 Framework group  C1[X(C3H4O)]
 Deg. of freedom    18
 Full point group                 C1      NOp   1
 RotChk:  IX=0 Diff= 6.15D-03
 Largest Abelian subgroup         C1      NOp   1
 Largest concise Abelian subgroup C1      NOp   1
                         Standard orientation:                         
 ---------------------------------------------------------------------
 Center     Atomic      Atomic             Coordinates (Angstroms)
 Number     Number       Type             X           Y           Z
 ---------------------------------------------------------------------
      1          6           0       -1.619951   -0.376935    0.069232
      2          6           0       -0.633069    0.485142   -0.185399
      3          6           0        0.762988    0.312859    0.294985
      4          8           0        1.599634   -0.423634   -0.234863
      5          1           0        1.054797    0.928734    1.161786
      6          1           0       -2.635377   -0.185639   -0.260675
      7          1           0       -1.443722   -1.307072    0.601796
      8          1           0       -0.832579    1.426647   -0.696911
 ---------------------------------------------------------------------
 Rotational constants (GHZ):     28.3505183      5.0763979      4.6715932
 Leave Link  202 at Wed May 12 11:58:26 2021, MaxMem=  2147483648 cpu:         0.0
 (Enter /opt/cluster/programs/g09_d.01/g09/l301.exe)
 Standard basis: 6-31+G (6D, 7F)
 Ernie: Thresh=  0.10000D-02 Tol=  0.10000D-05 Strict=F.
 There are    60 symmetry adapted cartesian basis functions of A   symmetry.
 There are    60 symmetry adapted basis functions of A   symmetry.
    60 basis functions,   120 primitive gaussians,    60 cartesian basis functions
    15 alpha electrons       15 beta electrons
       nuclear repulsion energy       102.7226896655 Hartrees.
 IExCor= 4639 DFT=T Ex+Corr=wB97XD ExCW=0 ScaHFX=  1.000000
 ScaDFX=  1.000000  1.000000  1.000000  1.000000 ScalE2=  1.000000  1.000000
 IRadAn=      0 IRanWt=     -1 IRanGd=            0 ICorTp=0 IEmpDi=121
  HFx wShort=  0.000000 wLong=  0.200000 cFull=  0.222036 cShort=  0.000000 cLong=  0.777964
  DFx wShort=  0.000000 wLong=  0.200000 cFull=  0.000000 cShort=  0.000000 cLong=  1.000000
 NAtoms=    8 NActive=    8 NUniq=    8 SFac= 1.00D+00 NAtFMM=   60 NAOKFM=F Big=F
 Integral buffers will be    131072 words long.
 Raffenetti 2 integral format.
 Two-electron integral symmetry is turned on.
 R6Disp:  Grimme-D2 Dispersion energy=       -0.0017851200 Hartrees.
 Nuclear repulsion after empirical dispersion term =      102.7209045454 Hartrees.
 Leave Link  301 at Wed May 12 11:58:26 2021, MaxMem=  2147483648 cpu:         0.3
 (Enter /opt/cluster/programs/g09_d.01/g09/l302.exe)
 NPDir=0 NMtPBC=     1 NCelOv=     1 NCel=       1 NClECP=     1 NCelD=      1
         NCelK=      1 NCelE2=     1 NClLst=     1 CellRange=     0.0.
 One-electron integrals computed using PRISM.
 NBasis=    60 RedAO= T EigKep=  1.27D-04  NBF=    60
 NBsUse=    60 1.00D-06 EigRej= -1.00D+00 NBFU=    60
 Precomputing XC quadrature grid using
 IXCGrd= 4 IRadAn=           0 IRanWt=          -1 IRanGd=           0 AccXCQ= 0.00D+00.
 Generated NRdTot=       0 NPtTot=           0 NUsed=           0 NTot=          32
 NSgBfM=    60    60    60    60    60 MxSgAt=     8 MxSgA2=     8.
 Leave Link  302 at Wed May 12 11:58:26 2021, MaxMem=  2147483648 cpu:         0.8
 (Enter /opt/cluster/programs/g09_d.01/g09/l303.exe)
 DipDrv:  MaxL=1.
 Leave Link  303 at Wed May 12 11:58:26 2021, MaxMem=  2147483648 cpu:         0.2
 (Enter /opt/cluster/programs/g09_d.01/g09/l401.exe)
 Initial guess from the checkpoint file:  "/home/unibas/boittier/RDKit_G2/L.pdb/SCAN_1_2_3_4_S_17_20.0/13_SCAN_1_2_3_4_F/L.pdb.chk"
 B after Tr=     0.000000    0.000000    0.000000
         Rot=    0.999997   -0.002302   -0.000300   -0.000214 Ang=  -0.27 deg.
 Guess basis will be translated and rotated to current coordinates.
 JPrj=2 DoOrth=T DoCkMO=T.
 Generating alternative initial guess.
 ExpMin= 4.38D-02 ExpMax= 5.48D+03 ExpMxC= 8.25D+02 IAcc=2 IRadAn=         4 AccDes= 0.00D+00
 Harris functional with IExCor= 4639 and IRadAn=       4 diagonalized for initial guess.
 HarFok:  IExCor= 4639 AccDes= 0.00D+00 IRadAn=         4 IDoV= 1 UseB2=F ITyADJ=14
 ICtDFT=  3500011 ScaDFX=  1.000000  1.000000  1.000000  1.000000
 FoFCou: FMM=F IPFlag=           0 FMFlag=      100000 FMFlg1=           0
         NFxFlg=           0 DoJE=T BraDBF=F KetDBF=T FulRan=T
         wScrn=  0.000000 ICntrl=     500 IOpCl=  0 I1Cent=   200000004 NGrid=           0
         NMat0=    1 NMatS0=      1 NMatT0=    0 NMatD0=    1 NMtDS0=    0 NMtDT0=    0
 Petite list used in FoFCou.
 Harris En= -183.738238246631    
 Leave Link  401 at Wed May 12 11:58:27 2021, MaxMem=  2147483648 cpu:         1.4
 (Enter /opt/cluster/programs/g09_d.01/g09/l502.exe)
 Closed shell SCF:
 Using DIIS extrapolation, IDIIS=  1040.
 Integral symmetry usage will be decided dynamically.
 Keep R1 ints in memory in canonical form, NReq=4262490.
 IVT=       30290 IEndB=       30290 NGot=  2147483648 MDV=  2144102629
 LenX=  2144102629 LenY=  2144098588
 Requested convergence on RMS density matrix=1.00D-08 within 128 cycles.
 Requested convergence on MAX density matrix=1.00D-06.
 Requested convergence on             energy=1.00D-06.
 No special actions if energy rises.
 FoFCou: FMM=F IPFlag=           0 FMFlag=           0 FMFlg1=           0
         NFxFlg=           0 DoJE=F BraDBF=F KetDBF=F FulRan=T
         wScrn=  0.000000 ICntrl=     600 IOpCl=  0 I1Cent=           0 NGrid=           0
         NMat0=    1 NMatS0=   1830 NMatT0=    0 NMatD0=    1 NMtDS0=    0 NMtDT0=    0
 Symmetry not used in FoFCou.

 Cycle   1  Pass 1  IDiag  1:
 E= -191.782904558836    
 DIIS: error= 6.47D-04 at cycle   1 NSaved=   1.
 NSaved= 1 IEnMin= 1 EnMin= -191.782904558836     IErMin= 1 ErrMin= 6.47D-04
 ErrMax= 6.47D-04  0.00D+00 EMaxC= 1.00D-01 BMatC= 3.90D-05 BMatP= 3.90D-05
 IDIUse=3 WtCom= 9.94D-01 WtEn= 6.47D-03
 Coeff-Com:  0.100D+01
 Coeff-En:   0.100D+01
 Coeff:      0.100D+01
 Gap=     0.606 Goal=   None    Shift=    0.000
 RMSDP=2.40D-04 MaxDP=2.21D-03              OVMax= 2.63D-03

 Cycle   2  Pass 1  IDiag  1:
 E= -191.782967681871     Delta-E=       -0.000063123034 Rises=F Damp=F
 DIIS: error= 1.77D-04 at cycle   2 NSaved=   2.
 NSaved= 2 IEnMin= 2 EnMin= -191.782967681871     IErMin= 2 ErrMin= 1.77D-04
 ErrMax= 1.77D-04  0.00D+00 EMaxC= 1.00D-01 BMatC= 3.64D-06 BMatP= 3.90D-05
 IDIUse=3 WtCom= 9.98D-01 WtEn= 1.77D-03
 Coeff-Com:  0.554D-01 0.945D+00
 Coeff-En:   0.000D+00 0.100D+01
 Coeff:      0.553D-01 0.945D+00
 Gap=     0.370 Goal=   None    Shift=    0.000
 RMSDP=7.54D-05 MaxDP=6.64D-04 DE=-6.31D-05 OVMax= 1.35D-03

 Cycle   3  Pass 1  IDiag  1:
 E= -191.782973897449     Delta-E=       -0.000006215578 Rises=F Damp=F
 DIIS: error= 1.15D-04 at cycle   3 NSaved=   3.
 NSaved= 3 IEnMin= 3 EnMin= -191.782973897449     IErMin= 3 ErrMin= 1.15D-04
 ErrMax= 1.15D-04  0.00D+00 EMaxC= 1.00D-01 BMatC= 1.74D-06 BMatP= 3.64D-06
 IDIUse=3 WtCom= 9.99D-01 WtEn= 1.15D-03
 Coeff-Com: -0.620D-01 0.380D+00 0.682D+00
 Coeff-En:   0.000D+00 0.000D+00 0.100D+01
 Coeff:     -0.619D-01 0.380D+00 0.682D+00
 Gap=     0.370 Goal=   None    Shift=    0.000
 RMSDP=3.53D-05 MaxDP=3.59D-04 DE=-6.22D-06 OVMax= 6.77D-04

 Cycle   4  Pass 1  IDiag  1:
 E= -191.782975992226     Delta-E=       -0.000002094777 Rises=F Damp=F
 DIIS: error= 7.23D-05 at cycle   4 NSaved=   4.
 NSaved= 4 IEnMin= 4 EnMin= -191.782975992226     IErMin= 4 ErrMin= 7.23D-05
 ErrMax= 7.23D-05  0.00D+00 EMaxC= 1.00D-01 BMatC= 5.52D-07 BMatP= 1.74D-06
 IDIUse=1 WtCom= 1.00D+00 WtEn= 0.00D+00
 Coeff-Com: -0.458D-01 0.103D+00 0.390D+00 0.553D+00
 Coeff:     -0.458D-01 0.103D+00 0.390D+00 0.553D+00
 Gap=     0.370 Goal=   None    Shift=    0.000
 RMSDP=1.46D-05 MaxDP=2.31D-04 DE=-2.09D-06 OVMax= 3.69D-04

 Cycle   5  Pass 1  IDiag  1:
 E= -191.782976669450     Delta-E=       -0.000000677224 Rises=F Damp=F
 DIIS: error= 4.47D-05 at cycle   5 NSaved=   5.
 NSaved= 5 IEnMin= 5 EnMin= -191.782976669450     IErMin= 5 ErrMin= 4.47D-05
 ErrMax= 4.47D-05  0.00D+00 EMaxC= 1.00D-01 BMatC= 3.60D-08 BMatP= 5.52D-07
 IDIUse=1 WtCom= 1.00D+00 WtEn= 0.00D+00
 Coeff-Com:  0.151D-01-0.959D-01-0.163D+00 0.828D-02 0.124D+01
 Coeff:      0.151D-01-0.959D-01-0.163D+00 0.828D-02 0.124D+01
 Gap=     0.370 Goal=   None    Shift=    0.000
 RMSDP=1.50D-05 MaxDP=9.60D-05 DE=-6.77D-07 OVMax= 5.31D-04

 Cycle   6  Pass 1  IDiag  1:
 E= -191.782976908025     Delta-E=       -0.000000238575 Rises=F Damp=F
 DIIS: error= 1.40D-05 at cycle   6 NSaved=   6.
 NSaved= 6 IEnMin= 6 EnMin= -191.782976908025     IErMin= 6 ErrMin= 1.40D-05
 ErrMax= 1.40D-05  0.00D+00 EMaxC= 1.00D-01 BMatC= 6.78D-09 BMatP= 3.60D-08
 IDIUse=1 WtCom= 1.00D+00 WtEn= 0.00D+00
 Coeff-Com:  0.847D-02-0.362D-01-0.837D-01-0.583D-01 0.356D+00 0.813D+00
 Coeff:      0.847D-02-0.362D-01-0.837D-01-0.583D-01 0.356D+00 0.813D+00
 Gap=     0.370 Goal=   None    Shift=    0.000
 RMSDP=4.40D-06 MaxDP=4.66D-05 DE=-2.39D-07 OVMax= 1.64D-04

 Cycle   7  Pass 1  IDiag  1:
 E= -191.782976937248     Delta-E=       -0.000000029223 Rises=F Damp=F
 DIIS: error= 7.10D-06 at cycle   7 NSaved=   7.
 NSaved= 7 IEnMin= 7 EnMin= -191.782976937248     IErMin= 7 ErrMin= 7.10D-06
 ErrMax= 7.10D-06  0.00D+00 EMaxC= 1.00D-01 BMatC= 1.88D-09 BMatP= 6.78D-09
 IDIUse=1 WtCom= 1.00D+00 WtEn= 0.00D+00
 Coeff-Com: -0.226D-02 0.214D-01 0.275D-01-0.276D-01-0.319D+00 0.299D+00
 Coeff-Com:  0.100D+01
 Coeff:     -0.226D-02 0.214D-01 0.275D-01-0.276D-01-0.319D+00 0.299D+00
 Coeff:      0.100D+01
 Gap=     0.370 Goal=   None    Shift=    0.000
 RMSDP=3.23D-06 MaxDP=3.23D-05 DE=-2.92D-08 OVMax= 1.31D-04

 Cycle   8  Pass 1  IDiag  1:
 E= -191.782976947337     Delta-E=       -0.000000010089 Rises=F Damp=F
 DIIS: error= 1.97D-06 at cycle   8 NSaved=   8.
 NSaved= 8 IEnMin= 8 EnMin= -191.782976947337     IErMin= 8 ErrMin= 1.97D-06
 ErrMax= 1.97D-06  0.00D+00 EMaxC= 1.00D-01 BMatC= 1.17D-10 BMatP= 1.88D-09
 IDIUse=1 WtCom= 1.00D+00 WtEn= 0.00D+00
 Coeff-Com: -0.115D-02 0.599D-02 0.113D-01 0.568D-02-0.734D-01-0.419D-01
 Coeff-Com:  0.820D-01 0.101D+01
 Coeff:     -0.115D-02 0.599D-02 0.113D-01 0.568D-02-0.734D-01-0.419D-01
 Coeff:      0.820D-01 0.101D+01
 Gap=     0.370 Goal=   None    Shift=    0.000
 RMSDP=7.93D-07 MaxDP=8.03D-06 DE=-1.01D-08 OVMax= 3.09D-05

 Cycle   9  Pass 1  IDiag  1:
 E= -191.782976948011     Delta-E=       -0.000000000675 Rises=F Damp=F
 DIIS: error= 5.93D-07 at cycle   9 NSaved=   9.
 NSaved= 9 IEnMin= 9 EnMin= -191.782976948011     IErMin= 9 ErrMin= 5.93D-07
 ErrMax= 5.93D-07  0.00D+00 EMaxC= 1.00D-01 BMatC= 2.43D-11 BMatP= 1.17D-10
 IDIUse=1 WtCom= 1.00D+00 WtEn= 0.00D+00
 Coeff-Com:  0.180D-03-0.264D-02-0.247D-02 0.699D-02 0.427D-01-0.646D-01
 Coeff-Com: -0.178D+00 0.283D+00 0.915D+00
 Coeff:      0.180D-03-0.264D-02-0.247D-02 0.699D-02 0.427D-01-0.646D-01
 Coeff:     -0.178D+00 0.283D+00 0.915D+00
 Gap=     0.370 Goal=   None    Shift=    0.000
 RMSDP=2.88D-07 MaxDP=2.02D-06 DE=-6.75D-10 OVMax= 9.82D-06

 Cycle  10  Pass 1  IDiag  1:
 E= -191.782976948098     Delta-E=       -0.000000000086 Rises=F Damp=F
 DIIS: error= 1.82D-07 at cycle  10 NSaved=  10.
 NSaved=10 IEnMin=10 EnMin= -191.782976948098     IErMin=10 ErrMin= 1.82D-07
 ErrMax= 1.82D-07  0.00D+00 EMaxC= 1.00D-01 BMatC= 7.39D-13 BMatP= 2.43D-11
 IDIUse=1 WtCom= 1.00D+00 WtEn= 0.00D+00
 Coeff-Com:  0.409D-04 0.541D-04-0.246D-03-0.202D-02-0.193D-02 0.133D-01
 Coeff-Com:  0.250D-01-0.112D+00-0.165D+00 0.124D+01
 Coeff:      0.409D-04 0.541D-04-0.246D-03-0.202D-02-0.193D-02 0.133D-01
 Coeff:      0.250D-01-0.112D+00-0.165D+00 0.124D+01
 Gap=     0.370 Goal=   None    Shift=    0.000
 RMSDP=8.59D-08 MaxDP=6.04D-07 DE=-8.64D-11 OVMax= 2.03D-06

 Cycle  11  Pass 1  IDiag  1:
 E= -191.782976948103     Delta-E=       -0.000000000005 Rises=F Damp=F
 DIIS: error= 2.45D-08 at cycle  11 NSaved=  11.
 NSaved=11 IEnMin=11 EnMin= -191.782976948103     IErMin=11 ErrMin= 2.45D-08
 ErrMax= 2.45D-08  0.00D+00 EMaxC= 1.00D-01 BMatC= 2.92D-14 BMatP= 7.39D-13
 IDIUse=1 WtCom= 1.00D+00 WtEn= 0.00D+00
 Coeff-Com: -0.129D-04 0.102D-03 0.129D-03 0.421D-04-0.164D-02 0.120D-02
 Coeff-Com:  0.377D-02 0.452D-02-0.238D-01-0.173D+00 0.119D+01
 Coeff:     -0.129D-04 0.102D-03 0.129D-03 0.421D-04-0.164D-02 0.120D-02
 Coeff:      0.377D-02 0.452D-02-0.238D-01-0.173D+00 0.119D+01
 Gap=     0.370 Goal=   None    Shift=    0.000
 RMSDP=2.60D-08 MaxDP=2.43D-07 DE=-4.77D-12 OVMax= 3.97D-07

 Cycle  12  Pass 1  IDiag  1:
 E= -191.782976948104     Delta-E=       -0.000000000001 Rises=F Damp=F
 DIIS: error= 4.62D-09 at cycle  12 NSaved=  12.
 NSaved=12 IEnMin=12 EnMin= -191.782976948104     IErMin=12 ErrMin= 4.62D-09
 ErrMax= 4.62D-09  0.00D+00 EMaxC= 1.00D-01 BMatC= 1.01D-15 BMatP= 2.92D-14
 IDIUse=1 WtCom= 1.00D+00 WtEn= 0.00D+00
 Coeff-Com:  0.778D-06-0.202D-04-0.142D-04 0.653D-04 0.394D-03-0.771D-03
 Coeff-Com: -0.179D-02 0.388D-02 0.111D-01-0.118D-01-0.271D+00 0.127D+01
 Coeff:      0.778D-06-0.202D-04-0.142D-04 0.653D-04 0.394D-03-0.771D-03
 Coeff:     -0.179D-02 0.388D-02 0.111D-01-0.118D-01-0.271D+00 0.127D+01
 Gap=     0.370 Goal=   None    Shift=    0.000
 RMSDP=6.05D-09 MaxDP=6.36D-08 DE=-1.14D-12 OVMax= 7.98D-08

 SCF Done:  E(RwB97XD) =  -191.782976948     A.U. after   12 cycles
            NFock= 12  Conv=0.61D-08     -V/T= 2.0058
 KE= 1.906777561418D+02 PE=-6.528468530002D+02 EE= 1.676652153648D+02
 Leave Link  502 at Wed May 12 11:58:28 2021, MaxMem=  2147483648 cpu:         8.1
 (Enter /opt/cluster/programs/g09_d.01/g09/l701.exe)
 Compute integral first derivatives.
 ... and contract with generalized density number  0.
 R6Disp: Adding Grimme-D2 dispersion energy 1st derivatives to the gradient.
 Leave Link  701 at Wed May 12 11:58:28 2021, MaxMem=  2147483648 cpu:         0.6
 (Enter /opt/cluster/programs/g09_d.01/g09/l702.exe)
 L702 exits ... SP integral derivatives will be done elsewhere.
 Leave Link  702 at Wed May 12 11:58:28 2021, MaxMem=  2147483648 cpu:         0.2
 (Enter /opt/cluster/programs/g09_d.01/g09/l703.exe)
 Compute integral first derivatives, UseDBF=F ICtDFT=           0.
 Integral derivatives from FoFJK, PRISM(SPDF).
 Calling FoFJK, ICntrl=      2127 FMM=F ISym2X=0 I1Cent= 0 IOpClX= 0 NMat=1 NMatS=1 NMatT=0.
 FoFJK:  IHMeth= 1 ICntrl=    2127 DoSepK=T KAlg= 0 I1Cent=   0 FoldK=F
 IRaf=         1 NMat=   1 IRICut=       1 DoRegI=T DoRafI=F ISym2E= 0.
 FoFCou: FMM=F IPFlag=           0 FMFlag=      100000 FMFlg1=         800
         NFxFlg=           0 DoJE=F BraDBF=F KetDBF=F FulRan=T
         wScrn=  0.000000 ICntrl=    2527 IOpCl=  0 I1Cent=           0 NGrid=           0
         NMat0=    1 NMatS0=      1 NMatT0=    0 NMatD0=    1 NMtDS0=    0 NMtDT0=    0
 Symmetry not used in FoFCou.
 Leave Link  703 at Wed May 12 11:58:28 2021, MaxMem=  2147483648 cpu:         2.5
 (Enter /opt/cluster/programs/g09_d.01/g09/l716.exe)
 Dipole        =-1.00405256D+00 6.51254067D-01 4.33839794D-01
 ***** Axes restored to original set *****
 -------------------------------------------------------------------
 Center     Atomic                   Forces (Hartrees/Bohr)
 Number     Number              X              Y              Z
 -------------------------------------------------------------------
      1        6          -0.000281092    0.002518674   -0.002782948
      2        6           0.001654781   -0.002762376    0.004908647
      3        6          -0.002970007   -0.001817311   -0.004337606
      4        8           0.001507406    0.002223149    0.002223812
      5        1          -0.000051049   -0.000304279    0.000042382
      6        1           0.000065432    0.000060739   -0.000005896
      7        1           0.000031099    0.000002317    0.000074518
      8        1           0.000043430    0.000079086   -0.000122908
 -------------------------------------------------------------------
 Cartesian Forces:  Max     0.004908647 RMS     0.001956448
 Leave Link  716 at Wed May 12 11:58:28 2021, MaxMem=  2147483648 cpu:         0.2
 (Enter /opt/cluster/programs/g09_d.01/g09/l103.exe)

 GradGradGradGradGradGradGradGradGradGradGradGradGradGradGradGradGradGrad
 Berny optimization.
 Using GEDIIS/GDIIS optimizer.
 FormGI is forming the generalized inverse of G from B-inverse, IUseBI=4.
 Internal  Forces:  Max     0.004216021 RMS     0.001143623
 Search for a local minimum.
 Step number   2 out of a maximum of   34
 All quantities printed in internal units (Hartrees-Bohrs-Radians)
 RMS Force = .33931D-03 SwitMx=.10000D-02 MixMth= 2
 Mixed Optimization -- En-DIIS/RFO-DIIS
 Update second derivatives using D2CorX and points    1    2
 DE= -1.02D-04 DEPred=-1.05D-04 R= 9.75D-01
 TightC=F SS=  1.41D+00  RLast= 3.75D-02 DXNew= 5.0454D-01 1.1237D-01
 Trust test= 9.75D-01 RLast= 3.75D-02 DXMaxT set to 3.00D-01
 ITU=  1  0
 Use linear search instead of GDIIS.
     Eigenvalues ---    0.00984   0.01669   0.02882   0.02899   0.15923
     Eigenvalues ---    0.15988   0.16000   0.16099   0.20977   0.22039
     Eigenvalues ---    0.33017   0.34408   0.34938   0.35214   0.35512
     Eigenvalues ---    0.62594   0.809091000.000001000.000001000.00000
     Eigenvalues --- 1000.000001000.000001000.000001000.00000
 RFO step:  Lambda=-2.17867335D-05 EMin= 9.83596001D-03
 Quartic linear search produced a step of -0.03517.
 Iteration  1 RMS(Cart)=  0.00631500 RMS(Int)=  0.00007065
 Iteration  2 RMS(Cart)=  0.00006127 RMS(Int)=  0.00003728
 Iteration  3 RMS(Cart)=  0.00000000 RMS(Int)=  0.00003728
 Iteration  1 RMS(Cart)=  0.00000074 RMS(Int)=  0.00000059
 ITry= 1 IFail=0 DXMaxC= 1.31D-02 DCOld= 1.00D+10 DXMaxT= 3.00D-01 DXLimC= 3.00D+00 Rises=F
 Variable       Old X    -DE/DX   Delta X   Delta X   Delta X     New X
                                 (Linear)    (Quad)   (Total)
    R1        2.52259   0.00101   0.00034   0.00033   0.00067   2.52326
    R2        2.04974   0.00005   0.00007  -0.00013  -0.00006   2.04968
    R3        2.05263   0.00004   0.00005  -0.00009  -0.00004   2.05259
    R4        2.80892   0.00076   0.00019   0.00144   0.00163   2.81054
    R5        2.05961   0.00000   0.00011  -0.00043  -0.00032   2.05929
    R6        2.33221  -0.00064   0.00037  -0.00218  -0.00181   2.33040
    R7        2.08367   0.00021   0.00020  -0.00019   0.00002   2.08369
    A1        2.11786   0.00009   0.00009   0.00017   0.00025   2.11812
    A2        2.12538  -0.00002   0.00006  -0.00035  -0.00029   2.12509
    A3        2.03984  -0.00007  -0.00015   0.00021   0.00006   2.03990
    A4        2.16260  -0.00042   0.00019  -0.00253  -0.00237   2.16023
    A5        2.10838   0.00029  -0.00010   0.00138   0.00125   2.10964
    A6        2.00835   0.00027  -0.00011   0.00227   0.00213   2.01048
    A7        2.17380  -0.00006   0.00014  -0.00123  -0.00120   2.17260
    A8        2.02404   0.00000  -0.00012  -0.00022  -0.00044   2.02359
    A9        2.08450   0.00017  -0.00004   0.00045   0.00031   2.08481
    D1        3.08813   0.00098  -0.00014   0.00754   0.00740   3.09552
    D2        0.04550  -0.00095   0.00022  -0.00698  -0.00677   0.03874
    D3       -0.06935   0.00105  -0.00005   0.00942   0.00937  -0.05997
    D4       -3.11197  -0.00089   0.00031  -0.00510  -0.00479  -3.11676
    D5        1.39628  -0.00422   0.00000   0.00000   0.00000   1.39628
    D6       -1.78984  -0.00114  -0.00051  -0.02643  -0.02693  -1.81678
    D7       -1.83915  -0.00238  -0.00034   0.01374   0.01340  -1.82575
    D8        1.25791   0.00070  -0.00085  -0.01268  -0.01353   1.24438
         Item               Value     Threshold  Converged?
 Maximum Force            0.001005     0.000450     NO 
 RMS     Force            0.000339     0.000300     NO 
 Maximum Displacement     0.013146     0.001800     NO 
 RMS     Displacement     0.006322     0.001200     NO 
 Predicted change in Energy=-1.109237D-05
 Lowest energy point so far.  Saving SCF results.
 GradGradGradGradGradGradGradGradGradGradGradGradGradGradGradGradGradGrad

 Leave Link  103 at Wed May 12 11:58:28 2021, MaxMem=  2147483648 cpu:         0.0
 (Enter /opt/cluster/programs/g09_d.01/g09/l202.exe)
                          Input orientation:                          
 ---------------------------------------------------------------------
 Center     Atomic      Atomic             Coordinates (Angstroms)
 Number     Number       Type             X           Y           Z
 ---------------------------------------------------------------------
      1          6           0        1.623992    0.374629    0.070193
      2          6           0        0.636982   -0.488623   -0.181808
      3          6           0       -0.759368   -0.311102    0.298484
      4          8           0       -1.593010    0.424474   -0.235126
      5          1           0       -1.059902   -0.941738    1.151594
      6          1           0        2.638419    0.185347   -0.263814
      7          1           0        1.448670    1.302881    0.606292
      8          1           0        0.833299   -1.426521   -0.700760
 ---------------------------------------------------------------------
                    Distance matrix (angstroms):
                    1          2          3          4          5
     1  C    0.000000
     2  C    1.335251   0.000000
     3  C    2.490532   1.487275   0.000000
     4  O    3.231842   2.410280   1.233195   0.000000
     5  H    3.178920   2.205150   1.102641   2.018348   0.000000
     6  H    1.084643   2.113459   3.479597   4.238277   4.117192
     7  H    1.086182   2.118826   2.752293   3.275881   3.410073
     8  H    2.112748   1.089727   2.186147   3.087066   2.692664
                    6          7          8
     6  H    0.000000
     7  H    1.849721   0.000000
     8  H    2.459166   3.088155   0.000000
 Stoichiometry    C3H4O
 Framework group  C1[X(C3H4O)]
 Deg. of freedom    18
 Full point group                 C1      NOp   1
 RotChk:  IX=0 Diff= 8.27D-03
 Largest Abelian subgroup         C1      NOp   1
 Largest concise Abelian subgroup C1      NOp   1
                         Standard orientation:                         
 ---------------------------------------------------------------------
 Center     Atomic      Atomic             Coordinates (Angstroms)
 Number     Number       Type             X           Y           Z
 ---------------------------------------------------------------------
      1          6           0       -1.619597   -0.376534    0.069559
      2          6           0       -0.633025    0.486842   -0.183728
      3          6           0        0.763387    0.310808    0.296931
      4          8           0        1.597450   -0.425162   -0.235475
      5          1           0        1.063533    0.942934    1.149074
      6          1           0       -2.634101   -0.188309   -0.264809
      7          1           0       -1.443821   -1.303855    0.607119
      8          1           0       -0.829803    1.423826   -0.704157
 ---------------------------------------------------------------------
 Rotational constants (GHZ):     28.2998160      5.0818758      4.6748842
 Leave Link  202 at Wed May 12 11:58:28 2021, MaxMem=  2147483648 cpu:         0.0
 (Enter /opt/cluster/programs/g09_d.01/g09/l301.exe)
 Standard basis: 6-31+G (6D, 7F)
 Ernie: Thresh=  0.10000D-02 Tol=  0.10000D-05 Strict=F.
 There are    60 symmetry adapted cartesian basis functions of A   symmetry.
 There are    60 symmetry adapted basis functions of A   symmetry.
    60 basis functions,   120 primitive gaussians,    60 cartesian basis functions
    15 alpha electrons       15 beta electrons
       nuclear repulsion energy       102.7375472746 Hartrees.
 IExCor= 4639 DFT=T Ex+Corr=wB97XD ExCW=0 ScaHFX=  1.000000
 ScaDFX=  1.000000  1.000000  1.000000  1.000000 ScalE2=  1.000000  1.000000
 IRadAn=      0 IRanWt=     -1 IRanGd=            0 ICorTp=0 IEmpDi=121
  HFx wShort=  0.000000 wLong=  0.200000 cFull=  0.222036 cShort=  0.000000 cLong=  0.777964
  DFx wShort=  0.000000 wLong=  0.200000 cFull=  0.000000 cShort=  0.000000 cLong=  1.000000
 NAtoms=    8 NActive=    8 NUniq=    8 SFac= 1.00D+00 NAtFMM=   60 NAOKFM=F Big=F
 Integral buffers will be    131072 words long.
 Raffenetti 2 integral format.
 Two-electron integral symmetry is turned on.
 R6Disp:  Grimme-D2 Dispersion energy=       -0.0017843157 Hartrees.
 Nuclear repulsion after empirical dispersion term =      102.7357629588 Hartrees.
 Leave Link  301 at Wed May 12 11:58:28 2021, MaxMem=  2147483648 cpu:         0.3
 (Enter /opt/cluster/programs/g09_d.01/g09/l302.exe)
 NPDir=0 NMtPBC=     1 NCelOv=     1 NCel=       1 NClECP=     1 NCelD=      1
         NCelK=      1 NCelE2=     1 NClLst=     1 CellRange=     0.0.
 One-electron integrals computed using PRISM.
 NBasis=    60 RedAO= T EigKep=  1.28D-04  NBF=    60
 NBsUse=    60 1.00D-06 EigRej= -1.00D+00 NBFU=    60
 Precomputing XC quadrature grid using
 IXCGrd= 4 IRadAn=           0 IRanWt=          -1 IRanGd=           0 AccXCQ= 0.00D+00.
 Generated NRdTot=       0 NPtTot=           0 NUsed=           0 NTot=          32
 NSgBfM=    60    60    60    60    60 MxSgAt=     8 MxSgA2=     8.
 Leave Link  302 at Wed May 12 11:58:28 2021, MaxMem=  2147483648 cpu:         0.8
 (Enter /opt/cluster/programs/g09_d.01/g09/l303.exe)
 DipDrv:  MaxL=1.
 Leave Link  303 at Wed May 12 11:58:29 2021, MaxMem=  2147483648 cpu:         0.2
 (Enter /opt/cluster/programs/g09_d.01/g09/l401.exe)
 Initial guess from the checkpoint file:  "/home/unibas/boittier/RDKit_G2/L.pdb/SCAN_1_2_3_4_S_17_20.0/13_SCAN_1_2_3_4_F/L.pdb.chk"
 B after Tr=     0.000000    0.000000    0.000000
         Rot=    0.999999    0.001496   -0.000225    0.000315 Ang=   0.18 deg.
 Guess basis will be translated and rotated to current coordinates.
 JPrj=2 DoOrth=T DoCkMO=T.
 Leave Link  401 at Wed May 12 11:58:29 2021, MaxMem=  2147483648 cpu:         0.6
 (Enter /opt/cluster/programs/g09_d.01/g09/l502.exe)
 Closed shell SCF:
 Using DIIS extrapolation, IDIIS=  1040.
 Integral symmetry usage will be decided dynamically.
 Keep R1 ints in memory in canonical form, NReq=4262490.
 IVT=       30290 IEndB=       30290 NGot=  2147483648 MDV=  2144102629
 LenX=  2144102629 LenY=  2144098588
 Requested convergence on RMS density matrix=1.00D-08 within 128 cycles.
 Requested convergence on MAX density matrix=1.00D-06.
 Requested convergence on             energy=1.00D-06.
 No special actions if energy rises.
 FoFCou: FMM=F IPFlag=           0 FMFlag=           0 FMFlg1=           0
         NFxFlg=           0 DoJE=F BraDBF=F KetDBF=F FulRan=T
         wScrn=  0.000000 ICntrl=     600 IOpCl=  0 I1Cent=           0 NGrid=           0
         NMat0=    1 NMatS0=   1830 NMatT0=    0 NMatD0=    1 NMtDS0=    0 NMtDT0=    0
 Symmetry not used in FoFCou.

 Cycle   1  Pass 1  IDiag  1:
 E= -191.782915136866    
 DIIS: error= 3.60D-04 at cycle   1 NSaved=   1.
 NSaved= 1 IEnMin= 1 EnMin= -191.782915136866     IErMin= 1 ErrMin= 3.60D-04
 ErrMax= 3.60D-04  0.00D+00 EMaxC= 1.00D-01 BMatC= 1.96D-05 BMatP= 1.96D-05
 IDIUse=3 WtCom= 9.96D-01 WtEn= 3.60D-03
 Coeff-Com:  0.100D+01
 Coeff-En:   0.100D+01
 Coeff:      0.100D+01
 Gap=     0.607 Goal=   None    Shift=    0.000
 RMSDP=2.33D-04 MaxDP=3.13D-03              OVMax= 2.19D-03

 Cycle   2  Pass 1  IDiag  1:
 E= -191.782957968348     Delta-E=       -0.000042831482 Rises=F Damp=F
 DIIS: error= 1.59D-04 at cycle   2 NSaved=   2.
 NSaved= 2 IEnMin= 2 EnMin= -191.782957968348     IErMin= 2 ErrMin= 1.59D-04
 ErrMax= 1.59D-04  0.00D+00 EMaxC= 1.00D-01 BMatC= 1.16D-06 BMatP= 1.96D-05
 IDIUse=3 WtCom= 9.98D-01 WtEn= 1.59D-03
 Coeff-Com: -0.197D+00 0.120D+01
 Coeff-En:   0.000D+00 0.100D+01
 Coeff:     -0.197D+00 0.120D+01
 Gap=     0.370 Goal=   None    Shift=    0.000
 RMSDP=5.59D-05 MaxDP=4.74D-04 DE=-4.28D-05 OVMax= 1.42D-03

 Cycle   3  Pass 1  IDiag  1:
 E= -191.782962142107     Delta-E=       -0.000004173758 Rises=F Damp=F
 DIIS: error= 7.65D-05 at cycle   3 NSaved=   3.
 NSaved= 3 IEnMin= 3 EnMin= -191.782962142107     IErMin= 3 ErrMin= 7.65D-05
 ErrMax= 7.65D-05  0.00D+00 EMaxC= 1.00D-01 BMatC= 4.96D-07 BMatP= 1.16D-06
 IDIUse=1 WtCom= 1.00D+00 WtEn= 0.00D+00
 Coeff-Com: -0.114D+00 0.547D+00 0.567D+00
 Coeff:     -0.114D+00 0.547D+00 0.567D+00
 Gap=     0.370 Goal=   None    Shift=    0.000
 RMSDP=1.66D-05 MaxDP=2.25D-04 DE=-4.17D-06 OVMax= 3.84D-04

 Cycle   4  Pass 1  IDiag  1:
 E= -191.782962737626     Delta-E=       -0.000000595520 Rises=F Damp=F
 DIIS: error= 5.22D-05 at cycle   4 NSaved=   4.
 NSaved= 4 IEnMin= 4 EnMin= -191.782962737626     IErMin= 4 ErrMin= 5.22D-05
 ErrMax= 5.22D-05  0.00D+00 EMaxC= 1.00D-01 BMatC= 1.14D-07 BMatP= 4.96D-07
 IDIUse=1 WtCom= 1.00D+00 WtEn= 0.00D+00
 Coeff-Com:  0.255D-01-0.221D+00 0.273D+00 0.922D+00
 Coeff:      0.255D-01-0.221D+00 0.273D+00 0.922D+00
 Gap=     0.370 Goal=   None    Shift=    0.000
 RMSDP=1.67D-05 MaxDP=1.69D-04 DE=-5.96D-07 OVMax= 5.38D-04

 Cycle   5  Pass 1  IDiag  1:
 E= -191.782963087371     Delta-E=       -0.000000349745 Rises=F Damp=F
 DIIS: error= 2.22D-05 at cycle   5 NSaved=   5.
 NSaved= 5 IEnMin= 5 EnMin= -191.782963087371     IErMin= 5 ErrMin= 2.22D-05
 ErrMax= 2.22D-05  0.00D+00 EMaxC= 1.00D-01 BMatC= 8.31D-09 BMatP= 1.14D-07
 IDIUse=1 WtCom= 1.00D+00 WtEn= 0.00D+00
 Coeff-Com:  0.116D-01-0.487D-01-0.103D+00-0.753D-01 0.122D+01
 Coeff:      0.116D-01-0.487D-01-0.103D+00-0.753D-01 0.122D+01
 Gap=     0.370 Goal=   None    Shift=    0.000
 RMSDP=8.50D-06 MaxDP=7.30D-05 DE=-3.50D-07 OVMax= 3.21D-04

 Cycle   6  Pass 1  IDiag  1:
 E= -191.782963157590     Delta-E=       -0.000000070219 Rises=F Damp=F
 DIIS: error= 7.91D-06 at cycle   6 NSaved=   6.
 NSaved= 6 IEnMin= 6 EnMin= -191.782963157590     IErMin= 6 ErrMin= 7.91D-06
 ErrMax= 7.91D-06  0.00D+00 EMaxC= 1.00D-01 BMatC= 2.24D-09 BMatP= 8.31D-09
 IDIUse=1 WtCom= 1.00D+00 WtEn= 0.00D+00
 Coeff-Com: -0.103D-02 0.259D-01-0.855D-01-0.208D+00 0.413D+00 0.856D+00
 Coeff:     -0.103D-02 0.259D-01-0.855D-01-0.208D+00 0.413D+00 0.856D+00
 Gap=     0.370 Goal=   None    Shift=    0.000
 RMSDP=3.15D-06 MaxDP=2.81D-05 DE=-7.02D-08 OVMax= 1.26D-04

 Cycle   7  Pass 1  IDiag  1:
 E= -191.782963168604     Delta-E=       -0.000000011014 Rises=F Damp=F
 DIIS: error= 2.57D-06 at cycle   7 NSaved=   7.
 NSaved= 7 IEnMin= 7 EnMin= -191.782963168604     IErMin= 7 ErrMin= 2.57D-06
 ErrMax= 2.57D-06  0.00D+00 EMaxC= 1.00D-01 BMatC= 3.11D-10 BMatP= 2.24D-09
 IDIUse=1 WtCom= 1.00D+00 WtEn= 0.00D+00
 Coeff-Com: -0.222D-02 0.159D-01-0.712D-02-0.485D-01-0.818D-01 0.221D+00
 Coeff-Com:  0.903D+00
 Coeff:     -0.222D-02 0.159D-01-0.712D-02-0.485D-01-0.818D-01 0.221D+00
 Coeff:      0.903D+00
 Gap=     0.370 Goal=   None    Shift=    0.000
 RMSDP=1.22D-06 MaxDP=1.14D-05 DE=-1.10D-08 OVMax= 4.38D-05

 Cycle   8  Pass 1  IDiag  1:
 E= -191.782963169929     Delta-E=       -0.000000001326 Rises=F Damp=F
 DIIS: error= 1.23D-06 at cycle   8 NSaved=   8.
 NSaved= 8 IEnMin= 8 EnMin= -191.782963169929     IErMin= 8 ErrMin= 1.23D-06
 ErrMax= 1.23D-06  0.00D+00 EMaxC= 1.00D-01 BMatC= 6.30D-11 BMatP= 3.11D-10
 IDIUse=1 WtCom= 1.00D+00 WtEn= 0.00D+00
 Coeff-Com: -0.492D-03 0.132D-03 0.147D-01 0.244D-01-0.111D+00-0.904D-01
 Coeff-Com:  0.336D+00 0.827D+00
 Coeff:     -0.492D-03 0.132D-03 0.147D-01 0.244D-01-0.111D+00-0.904D-01
 Coeff:      0.336D+00 0.827D+00
 Gap=     0.370 Goal=   None    Shift=    0.000
 RMSDP=4.76D-07 MaxDP=4.19D-06 DE=-1.33D-09 OVMax= 1.36D-05

 Cycle   9  Pass 1  IDiag  1:
 E= -191.782963170096     Delta-E=       -0.000000000167 Rises=F Damp=F
 DIIS: error= 2.17D-07 at cycle   9 NSaved=   9.
 NSaved= 9 IEnMin= 9 EnMin= -191.782963170096     IErMin= 9 ErrMin= 2.17D-07
 ErrMax= 2.17D-07  0.00D+00 EMaxC= 1.00D-01 BMatC= 1.85D-12 BMatP= 6.30D-11
 IDIUse=1 WtCom= 1.00D+00 WtEn= 0.00D+00
 Coeff-Com:  0.153D-03-0.124D-02 0.111D-02 0.451D-02 0.345D-02-0.202D-01
 Coeff-Com: -0.626D-01 0.276D-01 0.105D+01
 Coeff:      0.153D-03-0.124D-02 0.111D-02 0.451D-02 0.345D-02-0.202D-01
 Coeff:     -0.626D-01 0.276D-01 0.105D+01
 Gap=     0.370 Goal=   None    Shift=    0.000
 RMSDP=1.36D-07 MaxDP=1.68D-06 DE=-1.67D-10 OVMax= 2.32D-06

 Cycle  10  Pass 1  IDiag  1:
 E= -191.782963170102     Delta-E=       -0.000000000006 Rises=F Damp=F
 DIIS: error= 5.41D-08 at cycle  10 NSaved=  10.
 NSaved=10 IEnMin=10 EnMin= -191.782963170102     IErMin=10 ErrMin= 5.41D-08
 ErrMax= 5.41D-08  0.00D+00 EMaxC= 1.00D-01 BMatC= 2.21D-13 BMatP= 1.85D-12
 IDIUse=1 WtCom= 1.00D+00 WtEn= 0.00D+00
 Coeff-Com:  0.726D-04-0.302D-03-0.817D-03-0.836D-03 0.923D-02 0.203D-02
 Coeff-Com: -0.380D-01-0.602D-01 0.242D+00 0.847D+00
 Coeff:      0.726D-04-0.302D-03-0.817D-03-0.836D-03 0.923D-02 0.203D-02
 Coeff:     -0.380D-01-0.602D-01 0.242D+00 0.847D+00
 Gap=     0.370 Goal=   None    Shift=    0.000
 RMSDP=2.55D-08 MaxDP=1.66D-07 DE=-5.74D-12 OVMax= 5.24D-07

 Cycle  11  Pass 1  IDiag  1:
 E= -191.782963170104     Delta-E=       -0.000000000002 Rises=F Damp=F
 DIIS: error= 1.61D-08 at cycle  11 NSaved=  11.
 NSaved=11 IEnMin=11 EnMin= -191.782963170104     IErMin=11 ErrMin= 1.61D-08
 ErrMax= 1.61D-08  0.00D+00 EMaxC= 1.00D-01 BMatC= 1.57D-14 BMatP= 2.21D-13
 IDIUse=1 WtCom= 1.00D+00 WtEn= 0.00D+00
 Coeff-Com: -0.818D-05 0.940D-04-0.206D-03-0.481D-03 0.415D-03 0.202D-02
 Coeff-Com:  0.410D-02-0.103D-01-0.863D-01 0.755D-01 0.102D+01
 Coeff:     -0.818D-05 0.940D-04-0.206D-03-0.481D-03 0.415D-03 0.202D-02
 Coeff:      0.410D-02-0.103D-01-0.863D-01 0.755D-01 0.102D+01
 Gap=     0.370 Goal=   None    Shift=    0.000
 RMSDP=1.51D-08 MaxDP=1.82D-07 DE=-2.27D-12 OVMax= 2.17D-07

 Cycle  12  Pass 1  IDiag  1:
 E= -191.782963170103     Delta-E=        0.000000000001 Rises=F Damp=F
 DIIS: error= 3.92D-09 at cycle  12 NSaved=  12.
 NSaved=12 IEnMin=11 EnMin= -191.782963170104     IErMin=12 ErrMin= 3.92D-09
 ErrMax= 3.92D-09  0.00D+00 EMaxC= 1.00D-01 BMatC= 5.63D-16 BMatP= 1.57D-14
 IDIUse=1 WtCom= 1.00D+00 WtEn= 0.00D+00
 Coeff-Com: -0.178D-05-0.441D-05 0.794D-04 0.159D-03-0.580D-03-0.521D-03
 Coeff-Com:  0.119D-02 0.531D-02 0.423D-02-0.576D-01-0.216D+00 0.126D+01
 Coeff:     -0.178D-05-0.441D-05 0.794D-04 0.159D-03-0.580D-03-0.521D-03
 Coeff:      0.119D-02 0.531D-02 0.423D-02-0.576D-01-0.216D+00 0.126D+01
 Gap=     0.370 Goal=   None    Shift=    0.000
 RMSDP=5.57D-09 MaxDP=7.19D-08 DE= 9.09D-13 OVMax= 6.26D-08

 SCF Done:  E(RwB97XD) =  -191.782963170     A.U. after   12 cycles
            NFock= 12  Conv=0.56D-08     -V/T= 2.0058
 KE= 1.906793920094D+02 PE=-6.528782813494D+02 EE= 1.676801632111D+02
 Leave Link  502 at Wed May 12 11:58:30 2021, MaxMem=  2147483648 cpu:         8.1
 (Enter /opt/cluster/programs/g09_d.01/g09/l701.exe)
 Compute integral first derivatives.
 ... and contract with generalized density number  0.
 R6Disp: Adding Grimme-D2 dispersion energy 1st derivatives to the gradient.
 Leave Link  701 at Wed May 12 11:58:30 2021, MaxMem=  2147483648 cpu:         0.6
 (Enter /opt/cluster/programs/g09_d.01/g09/l702.exe)
 L702 exits ... SP integral derivatives will be done elsewhere.
 Leave Link  702 at Wed May 12 11:58:32 2021, MaxMem=  2147483648 cpu:         0.2
 (Enter /opt/cluster/programs/g09_d.01/g09/l703.exe)
 Compute integral first derivatives, UseDBF=F ICtDFT=           0.
 Integral derivatives from FoFJK, PRISM(SPDF).
 Calling FoFJK, ICntrl=      2127 FMM=F ISym2X=0 I1Cent= 0 IOpClX= 0 NMat=1 NMatS=1 NMatT=0.
 FoFJK:  IHMeth= 1 ICntrl=    2127 DoSepK=T KAlg= 0 I1Cent=   0 FoldK=F
 IRaf=         1 NMat=   1 IRICut=       1 DoRegI=T DoRafI=F ISym2E= 0.
 FoFCou: FMM=F IPFlag=           0 FMFlag=      100000 FMFlg1=         800
         NFxFlg=           0 DoJE=F BraDBF=F KetDBF=F FulRan=T
         wScrn=  0.000000 ICntrl=    2527 IOpCl=  0 I1Cent=           0 NGrid=           0
         NMat0=    1 NMatS0=      1 NMatT0=    0 NMatD0=    1 NMtDS0=    0 NMtDT0=    0
 Symmetry not used in FoFCou.
 Leave Link  703 at Wed May 12 11:58:32 2021, MaxMem=  2147483648 cpu:         2.5
 (Enter /opt/cluster/programs/g09_d.01/g09/l716.exe)
 Dipole        =-9.98719076D-01 6.52575835D-01 4.28461268D-01
 ***** Axes restored to original set *****
 -------------------------------------------------------------------
 Center     Atomic                   Forces (Hartrees/Bohr)
 Number     Number              X              Y              Z
 -------------------------------------------------------------------
      1        6          -0.000312928    0.001902148   -0.002699410
      2        6           0.001725709   -0.000793045    0.005123686
      3        6          -0.002459663   -0.005404627   -0.005630314
      4        8           0.000789495    0.003857836    0.002263033
      5        1           0.000193627    0.000477892    0.000732452
      6        1           0.000113396    0.000071137   -0.000016666
      7        1           0.000025940    0.000019003    0.000037023
      8        1          -0.000075576   -0.000130345    0.000190196
 -------------------------------------------------------------------
 Cartesian Forces:  Max     0.005630314 RMS     0.002321384
 Leave Link  716 at Wed May 12 11:58:32 2021, MaxMem=  2147483648 cpu:         0.2
 (Enter /opt/cluster/programs/g09_d.01/g09/l103.exe)

 GradGradGradGradGradGradGradGradGradGradGradGradGradGradGradGradGradGrad
 Berny optimization.
 Using GEDIIS/GDIIS optimizer.
 FormGI is forming the generalized inverse of G from B-inverse, IUseBI=4.
 Internal  Forces:  Max     0.005074138 RMS     0.001365021
 Search for a local minimum.
 Step number   3 out of a maximum of   34
 All quantities printed in internal units (Hartrees-Bohrs-Radians)
 RMS Force = .36555D-03 SwitMx=.10000D-02 MixMth= 2
 Mixed Optimization -- En-DIIS/RFO-DIIS
 Swapping is turned off.
 Update second derivatives using D2CorX and points    1    2    3
 DE=  1.38D-05 DEPred=-1.11D-05 R=-1.24D+00
 Trust test=-1.24D+00 RLast= 3.63D-02 DXMaxT set to 1.50D-01
 ITU= -1  1  0
     Eigenvalues ---    0.01151   0.02875   0.02882   0.04624   0.15774
     Eigenvalues ---    0.15992   0.16061   0.16101   0.18471   0.22079
     Eigenvalues ---    0.32580   0.34142   0.34955   0.35216   0.35640
     Eigenvalues ---    0.63300   0.693301000.000001000.000001000.00000
     Eigenvalues --- 1000.000001000.000001000.000001000.00000
 En-DIIS/RFO-DIIS IScMMF=        0 using points:     3    2
 RFO step:  Lambda=-1.06946305D-05.
 NNeg= 0 NP= 2 Switch=  2.50D-03 Rises=F DC= -1.38D-05 SmlDif=  1.00D-05
 RMS Error=  0.1254547168D-02 NUsed= 2 EDIIS=F
 DidBck=T Rises=F RFO-DIIS coefs:    0.31859    0.68141
 Iteration  1 RMS(Cart)=  0.00628938 RMS(Int)=  0.00005828
 Iteration  2 RMS(Cart)=  0.00004914 RMS(Int)=  0.00000543
 Iteration  3 RMS(Cart)=  0.00000000 RMS(Int)=  0.00000543
 Iteration  1 RMS(Cart)=  0.00000025 RMS(Int)=  0.00000020
 ITry= 1 IFail=0 DXMaxC= 1.70D-02 DCOld= 1.00D+10 DXMaxT= 1.50D-01 DXLimC= 3.00D+00 Rises=F
 Variable       Old X    -DE/DX   Delta X   Delta X   Delta X     New X
                                 (Linear)    (Quad)   (Total)
    R1        2.52326   0.00066  -0.00046   0.00106   0.00061   2.52386
    R2        2.04968   0.00010   0.00004   0.00005   0.00009   2.04977
    R3        2.05259   0.00003   0.00003   0.00001   0.00003   2.05262
    R4        2.81054   0.00041  -0.00111   0.00190   0.00079   2.81133
    R5        2.05929   0.00001   0.00022  -0.00025  -0.00003   2.05925
    R6        2.33040   0.00079   0.00124  -0.00126  -0.00002   2.33038
    R7        2.08369   0.00024  -0.00001   0.00030   0.00028   2.08397
    A1        2.11812   0.00011  -0.00017   0.00046   0.00029   2.11841
    A2        2.12509  -0.00003   0.00020  -0.00030  -0.00010   2.12499
    A3        2.03990  -0.00008  -0.00004  -0.00014  -0.00018   2.03972
    A4        2.16023   0.00021   0.00161  -0.00197  -0.00034   2.15989
    A5        2.10964   0.00015  -0.00086   0.00100   0.00016   2.10980
    A6        2.01048  -0.00026  -0.00145   0.00133  -0.00011   2.01038
    A7        2.17260   0.00010   0.00081  -0.00066   0.00015   2.17276
    A8        2.02359   0.00011   0.00030   0.00012   0.00042   2.02401
    A9        2.08481   0.00010  -0.00021   0.00080   0.00059   2.08540
    D1        3.09552   0.00082  -0.00504   0.00318  -0.00186   3.09366
    D2        0.03874  -0.00079   0.00461  -0.00224   0.00237   0.04111
    D3       -0.05997   0.00085  -0.00639   0.00533  -0.00106  -0.06103
    D4       -3.11676  -0.00076   0.00326  -0.00008   0.00318  -3.11358
    D5        1.39628  -0.00507   0.00000   0.00000   0.00000   1.39628
    D6       -1.81678   0.00002   0.01835   0.00425   0.02260  -1.79418
    D7       -1.82575  -0.00353  -0.00913   0.00513  -0.00400  -1.82975
    D8        1.24438   0.00156   0.00922   0.00938   0.01860   1.26298
         Item               Value     Threshold  Converged?
 Maximum Force            0.000992     0.000450     NO 
 RMS     Force            0.000366     0.000300     NO 
 Maximum Displacement     0.016996     0.001800     NO 
 RMS     Displacement     0.006292     0.001200     NO 
 Predicted change in Energy=-1.885022D-05
[...]
 Coeff:      0.115D+01
 Gap=     0.370 Goal=   None    Shift=    0.000
 RMSDP=4.45D-08 MaxDP=3.56D-07 DE=-2.09D-11 OVMax= 1.14D-06

 Cycle   8  Pass 1  IDiag  1:
 E= -191.782983452774     Delta-E=       -0.000000000002 Rises=F Damp=F
 DIIS: error= 2.07D-08 at cycle   8 NSaved=   8.
 NSaved= 8 IEnMin= 8 EnMin= -191.782983452774     IErMin= 8 ErrMin= 2.07D-08
 ErrMax= 2.07D-08  0.00D+00 EMaxC= 1.00D-01 BMatC= 2.02D-14 BMatP= 4.11D-13
 IDIUse=1 WtCom= 1.00D+00 WtEn= 0.00D+00
 Coeff-Com: -0.203D-03 0.813D-03 0.125D-02 0.475D-02-0.714D-02-0.230D-01
 Coeff-Com: -0.152D+00 0.118D+01
 Coeff:     -0.203D-03 0.813D-03 0.125D-02 0.475D-02-0.714D-02-0.230D-01
 Coeff:     -0.152D+00 0.118D+01
 Gap=     0.370 Goal=   None    Shift=    0.000
 RMSDP=1.30D-08 MaxDP=1.20D-07 DE=-1.88D-12 OVMax= 2.91D-07

 Cycle   9  Pass 1  IDiag  1:
 E= -191.782983452774     Delta-E=        0.000000000000 Rises=F Damp=F
 DIIS: error= 8.53D-09 at cycle   9 NSaved=   9.
 NSaved= 9 IEnMin= 8 EnMin= -191.782983452774     IErMin= 9 ErrMin= 8.53D-09
 ErrMax= 8.53D-09  0.00D+00 EMaxC= 1.00D-01 BMatC= 2.50D-15 BMatP= 2.02D-14
 IDIUse=1 WtCom= 1.00D+00 WtEn= 0.00D+00
 Coeff-Com: -0.132D-04-0.222D-03-0.140D-03 0.113D-02 0.759D-02 0.251D-04
 Coeff-Com: -0.885D-01 0.820D-01 0.998D+00
 Coeff:     -0.132D-04-0.222D-03-0.140D-03 0.113D-02 0.759D-02 0.251D-04
 Coeff:     -0.885D-01 0.820D-01 0.998D+00
 Gap=     0.370 Goal=   None    Shift=    0.000
 RMSDP=4.59D-09 MaxDP=5.22D-08 DE= 0.00D+00 OVMax= 9.86D-08

 SCF Done:  E(RwB97XD) =  -191.782983453     A.U. after    9 cycles
            NFock=  9  Conv=0.46D-08     -V/T= 2.0058
 KE= 1.906742937509D+02 PE=-6.528143364532D+02 EE= 1.676511322102D+02
 Leave Link  502 at Wed May 12 11:58:35 2021, MaxMem=  2147483648 cpu:         6.3
 (Enter /opt/cluster/programs/g09_d.01/g09/l701.exe)
 Compute integral first derivatives.
 ... and contract with generalized density number  0.
 R6Disp: Adding Grimme-D2 dispersion energy 1st derivatives to the gradient.
 Leave Link  701 at Wed May 12 11:58:35 2021, MaxMem=  2147483648 cpu:         0.5
 (Enter /opt/cluster/programs/g09_d.01/g09/l702.exe)
 L702 exits ... SP integral derivatives will be done elsewhere.
 Leave Link  702 at Wed May 12 11:58:35 2021, MaxMem=  2147483648 cpu:         0.2
 (Enter /opt/cluster/programs/g09_d.01/g09/l703.exe)
 Compute integral first derivatives, UseDBF=F ICtDFT=           0.
 Integral derivatives from FoFJK, PRISM(SPDF).
 Calling FoFJK, ICntrl=      2127 FMM=F ISym2X=0 I1Cent= 0 IOpClX= 0 NMat=1 NMatS=1 NMatT=0.
 FoFJK:  IHMeth= 1 ICntrl=    2127 DoSepK=T KAlg= 0 I1Cent=   0 FoldK=F
 IRaf=         1 NMat=   1 IRICut=       1 DoRegI=T DoRafI=F ISym2E= 0.
 FoFCou: FMM=F IPFlag=           0 FMFlag=      100000 FMFlg1=         800
         NFxFlg=           0 DoJE=F BraDBF=F KetDBF=F FulRan=T
         wScrn=  0.000000 ICntrl=    2527 IOpCl=  0 I1Cent=           0 NGrid=           0
         NMat0=    1 NMatS0=      1 NMatT0=    0 NMatD0=    1 NMtDS0=    0 NMtDT0=    0
 Symmetry not used in FoFCou.
 Leave Link  703 at Wed May 12 11:58:35 2021, MaxMem=  2147483648 cpu:         2.5
 (Enter /opt/cluster/programs/g09_d.01/g09/l716.exe)
 Dipole        =-9.99672192D-01 6.49871143D-01 4.33479671D-01
 ***** Axes restored to original set *****
 -------------------------------------------------------------------
 Center     Atomic                   Forces (Hartrees/Bohr)
 Number     Number              X              Y              Z
 -------------------------------------------------------------------
      1        6          -0.000767078    0.001681950   -0.002765792
      2        6           0.001619981   -0.001263737    0.005078675
      3        6          -0.001886566   -0.003207286   -0.004394788
      4        8           0.001021168    0.002757977    0.002069975
      5        1          -0.000003490    0.000023126    0.000005087
      6        1           0.000005279    0.000001163   -0.000001735
      7        1           0.000003330    0.000010425   -0.000017243
      8        1           0.000007375   -0.000003619    0.000025821
 -------------------------------------------------------------------
 Cartesian Forces:  Max     0.005078675 RMS     0.001905879
 Leave Link  716 at Wed May 12 11:58:35 2021, MaxMem=  2147483648 cpu:         0.2
 (Enter /opt/cluster/programs/g09_d.01/g09/l103.exe)

 GradGradGradGradGradGradGradGradGradGradGradGradGradGradGradGradGradGrad
 Berny optimization.
 Using GEDIIS/GDIIS optimizer.
 FormGI is forming the generalized inverse of G from B-inverse, IUseBI=4.
 Internal  Forces:  Max     0.004284209 RMS     0.001112240
 Search for a local minimum.
 Step number   5 out of a maximum of   34
 All quantities printed in internal units (Hartrees-Bohrs-Radians)
 RMS Force = .21164D-04 SwitMx=.10000D-02 MixMth= 2
 Mixed Optimization -- En-DIIS/RFO-DIIS
 Swapping is turned off.
 Update second derivatives using D2CorX and points    1    2    3    4    5
 DE= -4.17D-07 DEPred=-4.13D-07 R= 1.01D+00
 Trust test= 1.01D+00 RLast= 1.78D-03 DXMaxT set to 1.50D-01
 ITU=  0  1 -1  1  0
     Eigenvalues ---    0.01311   0.02888   0.03030   0.04710   0.15142
     Eigenvalues ---    0.15929   0.16088   0.16131   0.17104   0.22086
     Eigenvalues ---    0.32645   0.34041   0.35075   0.35241   0.35729
     Eigenvalues ---    0.64847   0.807061000.000001000.000001000.00000
     Eigenvalues --- 1000.000001000.000001000.000001000.00000
 En-DIIS/RFO-DIIS IScMMF=        0 using points:     5    4    3    2
 RFO step:  Lambda=-9.57604052D-07.
 NNeg= 0 NP= 4 Switch=  2.50D-03 Rises=F DC= -1.38D-05 SmlDif=  1.00D-05
 RMS Error=  0.5486831327D-04 NUsed= 4 EDIIS=F
 DidBck=F Rises=F RFO-DIIS coefs:    1.11194   -0.08910   -0.00581   -0.01703
 Iteration  1 RMS(Cart)=  0.00020844 RMS(Int)=  0.00000058
 Iteration  2 RMS(Cart)=  0.00000004 RMS(Int)=  0.00000058
 Iteration  1 RMS(Cart)=  0.00000040 RMS(Int)=  0.00000032
 ITry= 1 IFail=0 DXMaxC= 4.13D-04 DCOld= 1.00D+10 DXMaxT= 1.50D-01 DXLimC= 3.00D+00 Rises=F
 Variable       Old X    -DE/DX   Delta X   Delta X   Delta X     New X
                                 (Linear)    (Quad)   (Total)
    R1        2.52414   0.00000   0.00006  -0.00003   0.00002   2.52416
    R2        2.04989   0.00000   0.00001   0.00000   0.00002   2.04991
    R3        2.05271   0.00000   0.00001   0.00000   0.00001   2.05272
    R4        2.81190   0.00001   0.00011  -0.00001   0.00010   2.81199
    R5        2.05934  -0.00001   0.00000  -0.00004  -0.00003   2.05931
    R6        2.33108   0.00007   0.00005   0.00005   0.00009   2.33118
    R7        2.08437  -0.00001   0.00005  -0.00007  -0.00002   2.08435
    A1        2.11855   0.00001   0.00003   0.00002   0.00005   2.11860
    A2        2.12505   0.00000   0.00000   0.00001   0.00001   2.12506
    A3        2.03951  -0.00001  -0.00003  -0.00003  -0.00006   2.03945
    A4        2.15957  -0.00002  -0.00008  -0.00023  -0.00031   2.15926
    A5        2.10978   0.00014   0.00002   0.00007   0.00009   2.10987
    A6        2.01068  -0.00001   0.00007   0.00015   0.00021   2.01089
    A7        2.17262   0.00003  -0.00003  -0.00008  -0.00011   2.17251
    A8        2.02396   0.00007   0.00000   0.00013   0.00012   2.02408
    A9        2.08558   0.00005   0.00004  -0.00005  -0.00001   2.08557
    D1        3.09370   0.00086   0.00009  -0.00030  -0.00021   3.09349
    D2        0.04155  -0.00087  -0.00001  -0.00014  -0.00015   0.04140
    D3       -0.06181   0.00087   0.00005   0.00014   0.00019  -0.06162
    D4       -3.11396  -0.00086  -0.00005   0.00030   0.00025  -3.11371
    D5        1.39628  -0.00428   0.00000   0.00000   0.00000   1.39628
    D6       -1.79452  -0.00082   0.00002   0.00003   0.00005  -1.79447
    D7       -1.83015  -0.00264   0.00009  -0.00016  -0.00006  -1.83021
    D8        1.26225   0.00082   0.00011  -0.00012  -0.00001   1.26223
         Item               Value     Threshold  Converged?
 Maximum Force            0.000071     0.000450     YES
 RMS     Force            0.000021     0.000300     YES
 Maximum Displacement     0.000413     0.001800     YES
 RMS     Displacement     0.000208     0.001200     YES
 Predicted change in Energy=-2.218508D-08
 Optimization completed.
    -- Stationary point found.
                           ----------------------------
                           !   Optimized Parameters   !
                           ! (Angstroms and Degrees)  !
 --------------------------                            --------------------------
 ! Name  Definition              Value          Derivative Info.                !
 --------------------------------------------------------------------------------
 ! R1    R(1,2)                  1.3357         -DE/DX =    0.0                 !
 ! R2    R(1,6)                  1.0848         -DE/DX =    0.0                 !
 ! R3    R(1,7)                  1.0862         -DE/DX =    0.0                 !
 ! R4    R(2,3)                  1.488          -DE/DX =    0.0                 !
 ! R5    R(2,8)                  1.0898         -DE/DX =    0.0                 !
 ! R6    R(3,4)                  1.2336         -DE/DX =    0.0001              !
 ! R7    R(3,5)                  1.103          -DE/DX =    0.0                 !
 ! A1    A(2,1,6)              121.384          -DE/DX =    0.0                 !
 ! A2    A(2,1,7)              121.7564         -DE/DX =    0.0                 !
 ! A3    A(6,1,7)              116.8551         -DE/DX =    0.0                 !
 ! A4    A(1,2,3)              123.7344         -DE/DX =    0.0                 !
 ! A5    A(1,2,8)              120.8816         -DE/DX =    0.0001              !
 ! A6    A(3,2,8)              115.2032         -DE/DX =    0.0                 !
 ! A7    A(2,3,4)              124.4818         -DE/DX =    0.0                 !
 ! A8    A(2,3,5)              115.9644         -DE/DX =    0.0001              !
 ! A9    A(4,3,5)              119.4948         -DE/DX =    0.0                 !
 ! D1    D(6,1,2,3)            177.2559         -DE/DX =    0.0009              !
 ! D2    D(6,1,2,8)              2.3808         -DE/DX =   -0.0009              !
 ! D3    D(7,1,2,3)             -3.5417         -DE/DX =    0.0009              !
 ! D4    D(7,1,2,8)           -178.4168         -DE/DX =   -0.0009              !
 ! D5    D(1,2,3,4)             80.0008         -DE/DX =   -0.0043              !
 ! D6    D(1,2,3,5)           -102.8181         -DE/DX =   -0.0008              !
 ! D7    D(8,2,3,4)           -104.8596         -DE/DX =   -0.0026              !
 ! D8    D(8,2,3,5)             72.3214         -DE/DX =    0.0008              !
 --------------------------------------------------------------------------------
 Lowest energy point so far.  Saving SCF results.
 GradGradGradGradGradGradGradGradGradGradGradGradGradGradGradGradGradGrad

 Largest change from initial coordinates is atom    5       0.007 Angstoms.
 Leave Link  103 at Wed May 12 11:58:35 2021, MaxMem=  2147483648 cpu:         0.0
 (Enter /opt/cluster/programs/g09_d.01/g09/l202.exe)
                          Input orientation:                          
 ---------------------------------------------------------------------
 Center     Atomic      Atomic             Coordinates (Angstroms)
 Number     Number       Type             X           Y           Z
 ---------------------------------------------------------------------
      1          6           0        1.623143    0.373561    0.070921
      2          6           0        0.636656   -0.489558   -0.185990
      3          6           0       -0.760652   -0.314389    0.294603
      4          8           0       -1.594424    0.423607   -0.236286
      5          1           0       -1.055207   -0.933154    1.158883
      6          1           0        2.638565    0.186169   -0.261490
      7          1           0        1.446301    1.300038    0.609719
      8          1           0        0.834700   -1.426927   -0.705305
 ---------------------------------------------------------------------
                    Distance matrix (angstroms):
                    1          2          3          4          5
     1  C    0.000000
     2  C    1.335715   0.000000
     3  C    2.491141   1.487993   0.000000
     4  O    3.232587   2.411249   1.233555   0.000000
     5  H    3.172495   2.206323   1.103002   2.019419   0.000000
     6  H    1.084756   2.114225   3.480585   4.239718   4.112700
     7  H    1.086249   2.119277   2.752510   3.275647   3.397980
     8  H    2.113274   1.089757   2.186939   3.089515   2.700140
                    6          7          8
     6  H    0.000000
     7  H    1.849650   0.000000
     8  H    2.460281   3.088638   0.000000
 Stoichiometry    C3H4O
 Framework group  C1[X(C3H4O)]
 Deg. of freedom    18
 Full point group                 C1      NOp   1
 RotChk:  IX=0 Diff= 6.95D-16
 Largest Abelian subgroup         C1      NOp   1
 Largest concise Abelian subgroup C1      NOp   1
                         Standard orientation:                         
 ---------------------------------------------------------------------
 Center     Atomic      Atomic             Coordinates (Angstroms)
 Number     Number       Type             X           Y           Z
 ---------------------------------------------------------------------
      1          6           0       -1.619423   -0.377327    0.069085
      2          6           0       -0.633471    0.487413   -0.184407
      3          6           0        0.763685    0.311789    0.296461
      4          8           0        1.598368   -0.423806   -0.236328
      5          1           0        1.057223    0.927963    1.162936
      6          1           0       -2.634794   -0.189660   -0.263330
      7          1           0       -1.442167   -1.305417    0.604963
      8          1           0       -0.831949    1.426314   -0.700779
 ---------------------------------------------------------------------
 Rotational constants (GHZ):     28.2733854      5.0784036      4.6736974
 Leave Link  202 at Wed May 12 11:58:35 2021, MaxMem=  2147483648 cpu:         0.0
 (Enter /opt/cluster/programs/g09_d.01/g09/l601.exe)
 Copying SCF densities to generalized density rwf, IOpCl= 0 IROHF=0.

 **********************************************************************

            Population analysis using the SCF density.

 **********************************************************************

 Orbital symmetries:
       Occupied  (A) (A) (A) (A) (A) (A) (A) (A) (A) (A) (A) (A)
                 (A) (A) (A)
       Virtual   (A) (A) (A) (A) (A) (A) (A) (A) (A) (A) (A) (A)
                 (A) (A) (A) (A) (A) (A) (A) (A) (A) (A) (A) (A)
                 (A) (A) (A) (A) (A) (A) (A) (A) (A) (A) (A) (A)
                 (A) (A) (A) (A) (A) (A) (A) (A) (A)
 The electronic state is 1-A.
 Alpha  occ. eigenvalues --  -19.29674 -10.41252 -10.33167 -10.32487  -1.17927
 Alpha  occ. eigenvalues --   -0.91047  -0.76592  -0.66315  -0.60577  -0.55863
 Alpha  occ. eigenvalues --   -0.54094  -0.48884  -0.46951  -0.37796  -0.35452
 Alpha virt. eigenvalues --    0.01587   0.04467   0.07577   0.08435   0.09401
 Alpha virt. eigenvalues --    0.11039   0.12453   0.13411   0.14685   0.16637
 Alpha virt. eigenvalues --    0.17191   0.17771   0.19422   0.22436   0.27410
 Alpha virt. eigenvalues --    0.28468   0.29789   0.31109   0.33048   0.33387
 Alpha virt. eigenvalues --    0.37169   0.39067   0.45317   0.45640   0.50416
 Alpha virt. eigenvalues --    0.69526   0.72147   0.75950   0.77897   0.80869
 Alpha virt. eigenvalues --    0.85268   0.89847   0.90380   1.01752   1.05294
 Alpha virt. eigenvalues --    1.10018   1.11935   1.13564   1.23299   1.27248
 Alpha virt. eigenvalues --    1.31266   1.31977   1.38662   1.47359   1.89343
          Condensed to atoms (all electrons):
               1          2          3          4          5          6
     1  C    5.074248   0.511315   0.014481  -0.007833   0.001470   0.377477
     2  C    0.511315   5.326216   0.233297  -0.123245  -0.089156  -0.029577
     3  C    0.014481   0.233297   5.070536   0.306887   0.352196   0.005730
     4  O   -0.007833  -0.123245   0.306887   8.274265  -0.073297  -0.000194
     5  H    0.001470  -0.089156   0.352196  -0.073297   0.623102  -0.000144
     6  H    0.377477  -0.029577   0.005730  -0.000194  -0.000144   0.471439
     7  H    0.393139  -0.056634   0.007511   0.000698   0.000153  -0.022718
     8  H    0.025576   0.324390  -0.031558   0.002874   0.001407  -0.004412
               7          8
     1  C    0.393139   0.025576
     2  C   -0.056634   0.324390
     3  C    0.007511  -0.031558
     4  O    0.000698   0.002874
     5  H    0.000153   0.001407
     6  H   -0.022718  -0.004412
     7  H    0.466567   0.002552
     8  H    0.002552   0.448856
 Mulliken charges:
               1
     1  C   -0.389874
     2  C   -0.096607
     3  C    0.040920
     4  O   -0.380155
     5  H    0.184269
     6  H    0.202398
     7  H    0.208733
     8  H    0.230315
 Sum of Mulliken charges =   0.00000
 Mulliken charges with hydrogens summed into heavy atoms:
               1
     1  C    0.021257
     2  C    0.133709
     3  C    0.225189
     4  O   -0.380155
 Electronic spatial extent (au):  <R**2>=            288.2946
 Charge=              0.0000 electrons
 Dipole moment (field-independent basis, Debye):
    X=             -2.5409    Y=              1.6518    Z=              1.1018  Tot=              3.2247
 Quadrupole moment (field-independent basis, Debye-Ang):
   XX=            -26.5982   YY=            -22.8179   ZZ=            -24.5406
   XY=              2.9146   XZ=              2.1427   YZ=             -1.6434
 Traceless Quadrupole moment (field-independent basis, Debye-Ang):
   XX=             -1.9460   YY=              1.8343   ZZ=              0.1116
   XY=              2.9146   XZ=              2.1427   YZ=             -1.6434
 Octapole moment (field-independent basis, Debye-Ang**2):
  XXX=            -10.5102  YYY=             -0.0684  ZZZ=              0.5457  XYY=              0.3228
  XXY=              2.2887  XXZ=              0.0577  XZZ=              3.3977  YZZ=              0.6411
  YYZ=              0.2058  XYZ=              1.6448
 Hexadecapole moment (field-independent basis, Debye-Ang**3):
 XXXX=           -271.0823 YYYY=            -61.5868 ZZZZ=            -42.5346 XXXY=              6.6168
 XXXZ=              6.3204 YYYX=             -0.5334 YYYZ=             -3.7762 ZZZX=              0.7512
 ZZZY=             -0.9074 XXYY=            -56.0269 XXZZ=            -53.5268 YYZZ=            -16.6629
 XXYZ=             -2.5488 YYXZ=              0.6555 ZZXY=              0.4594
 N-N= 1.027059270393D+02 E-N=-6.528143366237D+02  KE= 1.906742937509D+02
 No NMR shielding tensors so no spin-rotation constants.
 Leave Link  601 at Wed May 12 11:58:36 2021, MaxMem=  2147483648 cpu:         0.5
 (Enter /opt/cluster/programs/g09_d.01/g09/l9999.exe)
 1\1\GINC-NODE20\FOpt\RwB97XD\6-31+G\C3H4O1\BOITTIER\12-May-2021\0\\#p 
 wB97XD/6-31+G Opt=ModRedun\\L.pdb\\0,1\C,1.6231426371,0.3735611723,0.0
 709207882\C,0.6366561664,-0.4895582425,-0.1859901331\C,-0.7606517763,-
 0.314389295,0.294602855\O,-1.5944241942,0.4236072763,-0.2362860398\H,-
 1.0552072229,-0.9331543118,1.1588828516\H,2.6385651972,0.186169428,-0.
 2614901981\H,1.4463005553,1.3000383027,0.6097193522\H,0.8346996375,-1.
 4269273301,-0.705305476\\Version=ES64L-G09RevD.01\State=1-A\HF=-191.78
 29835\RMSD=4.588e-09\RMSF=1.906e-03\Dipole=0.9988903,-0.6520814,0.4319
 602\Quadrupole=-1.4414013,1.3523282,0.0890731,2.1736165,-1.58591,1.228
 5538\PG=C01 [X(C3H4O1)]\\@


 HE WHO LOVES TO READ, AND KNOWS HOW TO REFLECT,
 HAS LAID BY A PERPETUAL FEAST FOR HIS OLD AGE.
 -- UNCLE ESEK, "SCRIBNER'S MONTHLY", SEPT. 1880
 Job cpu time:       0 days  0 hours  1 minutes 14.7 seconds.
 File lengths (MBytes):  RWF=      5 Int=      0 D2E=      0 Chk=      2 Scr=      1
 Normal termination of Gaussian 09 at Wed May 12 11:58:36 2021.
