L.pdb                                                                   
FOpt      RwB97XD                                                     6-31+G              
Number of atoms                            I                8
Info1-9                                    I   N=           9
          19          19           0           0           0         110
           2          18        -802
Charge                                     I                0
Multiplicity                               I                1
Number of electrons                        I               30
Number of alpha electrons                  I               15
Number of beta electrons                   I               15
Number of basis functions                  I               60
Number of independent functions            I               60
Number of point charges in /Mol/           I                0
Number of translation vectors              I                0
Atomic numbers                             I   N=           8
           6           6           6           8           1           1
           1           1
Nuclear charges                            R   N=           8
  6.00000000E+00  6.00000000E+00  6.00000000E+00  8.00000000E+00  1.00000000E+00
  1.00000000E+00  1.00000000E+00  1.00000000E+00
Current cartesian coordinates              R   N=          24
 -3.06026637E+00 -7.13044683E-01  1.30551127E-01 -1.19708710E+00  9.21076317E-01
 -3.48478581E-01  1.44315556E+00  5.89195228E-01  5.60230064E-01  3.02047768E+00
 -8.00876637E-01 -4.46594639E-01  1.99786163E+00  1.75359511E+00  2.19762981E+00
 -4.97903858E+00 -3.58405361E-01 -4.97621505E-01 -2.72530120E+00 -2.46688148E+00
  1.14321394E+00 -1.57215581E+00  2.69534366E+00 -1.32428080E+00
Force Field                                I                0
Int Atom Types                             I   N=           8
           0           0           0           0           0           0
           0           0
MM charges                                 R   N=           8
  0.00000000E+00  0.00000000E+00  0.00000000E+00  0.00000000E+00  0.00000000E+00
  0.00000000E+00  0.00000000E+00  0.00000000E+00
Integer atomic weights                     I   N=           8
          12          12          12          16           1           1
           1           1
Real atomic weights                        R   N=           8
  1.20000000E+01  1.20000000E+01  1.20000000E+01  1.59949146E+01  1.00782504E+00
  1.00782504E+00  1.00782504E+00  1.00782504E+00
Atom fragment info                         I   N=           8
           0           0           0           0           0           0
           0           0
Atom residue num                           I   N=           8
           0           0           0           0           0           0
           0           0
Nuclear spins                              I   N=           8
           0           0           0           0           1           1
           1           1
Nuclear ZEff                               R   N=           8
 -3.60000000E+00 -3.60000000E+00 -3.60000000E+00 -5.60000000E+00 -1.00000000E+00
 -1.00000000E+00 -1.00000000E+00 -1.00000000E+00
Nuclear ZNuc                               R   N=           8
  6.00000000E+00  6.00000000E+00  6.00000000E+00  8.00000000E+00  1.00000000E+00
  1.00000000E+00  1.00000000E+00  1.00000000E+00
Nuclear QMom                               R   N=           8
  0.00000000E+00  0.00000000E+00  0.00000000E+00  0.00000000E+00  0.00000000E+00
  0.00000000E+00  0.00000000E+00  0.00000000E+00
Nuclear GFac                               R   N=           8
  0.00000000E+00  0.00000000E+00  0.00000000E+00  0.00000000E+00  2.79284600E+00
  2.79284600E+00  2.79284600E+00  2.79284600E+00
MicOpt                                     I   N=           8
          -1          -1          -1          -1          -1          -1
          -1          -1
Number of contracted shells                I               24
Number of primitive shells                 I               60
Pure/Cartesian d shells                    I                1
Pure/Cartesian f shells                    I                0
Highest angular momentum                   I                1
Largest degree of contraction              I                6
Shell types                                I   N=          24
           0          -1          -1          -1           0          -1
          -1          -1           0          -1          -1          -1
           0          -1          -1          -1           0           0
           0           0           0           0           0           0
Number of primitives per shell             I   N=          24
           6           3           1           1           6           3
           1           1           6           3           1           1
           6           3           1           1           3           1
           3           1           3           1           3           1
Shell to atom map                          I   N=          24
           1           1           1           1           2           2
           2           2           3           3           3           3
           4           4           4           4           5           5
           6           6           7           7           8           8
Primitive exponents                        R   N=          60
  3.04752488E+03  4.57369518E+02  1.03948685E+02  2.92101553E+01  9.28666296E+00
  3.16392696E+00  7.86827235E+00  1.88128854E+00  5.44249258E-01  1.68714478E-01
  4.38000000E-02  3.04752488E+03  4.57369518E+02  1.03948685E+02  2.92101553E+01
  9.28666296E+00  3.16392696E+00  7.86827235E+00  1.88128854E+00  5.44249258E-01
  1.68714478E-01  4.38000000E-02  3.04752488E+03  4.57369518E+02  1.03948685E+02
  2.92101553E+01  9.28666296E+00  3.16392696E+00  7.86827235E+00  1.88128854E+00
  5.44249258E-01  1.68714478E-01  4.38000000E-02  5.48467166E+03  8.25234946E+02
  1.88046958E+02  5.29645000E+01  1.68975704E+01  5.79963534E+00  1.55396162E+01
  3.59993359E+00  1.01376175E+00  2.70005823E-01  8.45000000E-02  1.87311370E+01
  2.82539436E+00  6.40121692E-01  1.61277759E-01  1.87311370E+01  2.82539436E+00
  6.40121692E-01  1.61277759E-01  1.87311370E+01  2.82539436E+00  6.40121692E-01
  1.61277759E-01  1.87311370E+01  2.82539436E+00  6.40121692E-01  1.61277759E-01
Contraction coefficients                   R   N=          60
  1.83473713E-03  1.40373228E-02  6.88426223E-02  2.32184443E-01  4.67941348E-01
  3.62311985E-01 -1.19332420E-01 -1.60854152E-01  1.14345644E+00  1.00000000E+00
  1.00000000E+00  1.83473713E-03  1.40373228E-02  6.88426223E-02  2.32184443E-01
  4.67941348E-01  3.62311985E-01 -1.19332420E-01 -1.60854152E-01  1.14345644E+00
  1.00000000E+00  1.00000000E+00  1.83473713E-03  1.40373228E-02  6.88426223E-02
  2.32184443E-01  4.67941348E-01  3.62311985E-01 -1.19332420E-01 -1.60854152E-01
  1.14345644E+00  1.00000000E+00  1.00000000E+00  1.83107443E-03  1.39501722E-02
  6.84450781E-02  2.32714336E-01  4.70192898E-01  3.58520853E-01 -1.10777550E-01
 -1.48026263E-01  1.13076702E+00  1.00000000E+00  1.00000000E+00  3.34946043E-02
  2.34726953E-01  8.13757326E-01  1.00000000E+00  3.34946043E-02  2.34726953E-01
  8.13757326E-01  1.00000000E+00  3.34946043E-02  2.34726953E-01  8.13757326E-01
  1.00000000E+00  3.34946043E-02  2.34726953E-01  8.13757326E-01  1.00000000E+00
P(S=P) Contraction coefficients            R   N=          60
  0.00000000E+00  0.00000000E+00  0.00000000E+00  0.00000000E+00  0.00000000E+00
  0.00000000E+00  6.89990666E-02  3.16423961E-01  7.44308291E-01  1.00000000E+00
  1.00000000E+00  0.00000000E+00  0.00000000E+00  0.00000000E+00  0.00000000E+00
  0.00000000E+00  0.00000000E+00  6.89990666E-02  3.16423961E-01  7.44308291E-01
  1.00000000E+00  1.00000000E+00  0.00000000E+00  0.00000000E+00  0.00000000E+00
  0.00000000E+00  0.00000000E+00  0.00000000E+00  6.89990666E-02  3.16423961E-01
  7.44308291E-01  1.00000000E+00  1.00000000E+00  0.00000000E+00  0.00000000E+00
  0.00000000E+00  0.00000000E+00  0.00000000E+00  0.00000000E+00  7.08742682E-02
  3.39752839E-01  7.27158577E-01  1.00000000E+00  1.00000000E+00  0.00000000E+00
  0.00000000E+00  0.00000000E+00  0.00000000E+00  0.00000000E+00  0.00000000E+00
  0.00000000E+00  0.00000000E+00  0.00000000E+00  0.00000000E+00  0.00000000E+00
  0.00000000E+00  0.00000000E+00  0.00000000E+00  0.00000000E+00  0.00000000E+00
Coordinates of each shell                  R   N=          72
 -3.06026637E+00 -7.13044683E-01  1.30551127E-01 -3.06026637E+00 -7.13044683E-01
  1.30551127E-01 -3.06026637E+00 -7.13044683E-01  1.30551127E-01 -3.06026637E+00
 -7.13044683E-01  1.30551127E-01 -1.19708710E+00  9.21076317E-01 -3.48478581E-01
 -1.19708710E+00  9.21076317E-01 -3.48478581E-01 -1.19708710E+00  9.21076317E-01
 -3.48478581E-01 -1.19708710E+00  9.21076317E-01 -3.48478581E-01  1.44315556E+00
  5.89195228E-01  5.60230064E-01  1.44315556E+00  5.89195228E-01  5.60230064E-01
  1.44315556E+00  5.89195228E-01  5.60230064E-01  1.44315556E+00  5.89195228E-01
  5.60230064E-01  3.02047768E+00 -8.00876637E-01 -4.46594639E-01  3.02047768E+00
 -8.00876637E-01 -4.46594639E-01  3.02047768E+00 -8.00876637E-01 -4.46594639E-01
  3.02047768E+00 -8.00876637E-01 -4.46594639E-01  1.99786163E+00  1.75359511E+00
  2.19762981E+00  1.99786163E+00  1.75359511E+00  2.19762981E+00 -4.97903858E+00
 -3.58405361E-01 -4.97621505E-01 -4.97903858E+00 -3.58405361E-01 -4.97621505E-01
 -2.72530120E+00 -2.46688148E+00  1.14321394E+00 -2.72530120E+00 -2.46688148E+00
  1.14321394E+00 -1.57215581E+00  2.69534366E+00 -1.32428080E+00 -1.57215581E+00
  2.69534366E+00 -1.32428080E+00
Constraint Structure                       R   N=          24
 -3.07811050E+00 -7.12220864E-01  1.30946368E-01 -1.19852280E+00  9.14035928E-01
 -3.53946020E-01  1.44539494E+00  5.93566801E-01  5.55371298E-01  3.03981739E+00
 -8.05871729E-01 -4.38543389E-01  2.00062289E+00  1.79097855E+00  2.17513494E+00
 -4.99891319E+00 -3.46058137E-01 -4.90114016E-01 -2.75698173E+00 -2.47070740E+00
  1.14252244E+00 -1.57583691E+00  2.70046962E+00 -1.31342612E+00
Num ILSW                                   I              100
ILSW                                       I   N=         100
           0           1           0           0           2           0
           0           0           0           0        4639          -1
           0           0           0           0           2           0
           0           0           0           0           1           0
           1           0           0           0           0           0
           0           0      100000           0          -1           0
           0           0           0           0           0           0
           0           0           0           1           0           0
           0           0           1           0           0           0
           0           0         121          41           0           0
           0           0          58           0           0           0
           0           0           0           8           0           0
           0           0           0           0           0           0
           0           0           0           0           0           0
           0           0           0           0           0           0
           0           0           0           0           0           0
           0           0           0           0
Num RLSW                                   I               41
RLSW                                       R   N=          41
  1.00000000E+00  1.00000000E+00  1.00000000E+00  1.00000000E+00  1.00000000E+00
  0.00000000E+00  2.00000000E-01  2.22036000E-01  0.00000000E+00  7.77964000E-01
  0.00000000E+00  2.00000000E-01  0.00000000E+00  0.00000000E+00  1.00000000E+00
  0.00000000E+00  0.00000000E+00  1.00000000E+00  0.00000000E+00  0.00000000E+00
  0.00000000E+00  0.00000000E+00  1.00000000E+00  0.00000000E+00  0.00000000E+00
  0.00000000E+00  0.00000000E+00  1.00000000E+00  0.00000000E+00  0.00000000E+00
  0.00000000E+00  0.00000000E+00  1.00000000E+00  0.00000000E+00  0.00000000E+00
  0.00000000E+00  0.00000000E+00  0.00000000E+00  1.00000000E+00  1.00000000E+00
  0.00000000E+00
MxBond                                     I                3
NBond                                      I   N=           8
           3           3           3           1           1           1
           1           1
IBond                                      I   N=          24
           2           6           7           1           3           8
           2           4           5           3           0           0
           3           0           0           1           0           0
           1           0           0           2           0           0
RBond                                      R   N=          24
  2.00000000E+00  1.00000000E+00  1.00000000E+00  2.00000000E+00  1.00000000E+00
  1.00000000E+00  1.00000000E+00  2.00000000E+00  1.00000000E+00  2.00000000E+00
  0.00000000E+00  0.00000000E+00  1.00000000E+00  0.00000000E+00  0.00000000E+00
  1.00000000E+00  0.00000000E+00  0.00000000E+00  1.00000000E+00  0.00000000E+00
  0.00000000E+00  1.00000000E+00  0.00000000E+00  0.00000000E+00
Virial Ratio                               R      2.005814573533242E+00
SCF Energy                                 R     -1.917829834527740E+02
Total Energy                               R     -1.917829834527740E+02
RMS Force                                  R      1.905879314333879E-03
RMS Density                                R      4.588075143868118E-09
External E-field                           R   N=          35
  0.00000000E+00  0.00000000E+00  0.00000000E+00  0.00000000E+00  0.00000000E+00
  0.00000000E+00  0.00000000E+00  0.00000000E+00  0.00000000E+00  0.00000000E+00
  0.00000000E+00  0.00000000E+00  0.00000000E+00  0.00000000E+00  0.00000000E+00
  0.00000000E+00  0.00000000E+00  0.00000000E+00  0.00000000E+00  0.00000000E+00
  0.00000000E+00  0.00000000E+00  0.00000000E+00  0.00000000E+00  0.00000000E+00
  0.00000000E+00  0.00000000E+00  0.00000000E+00  0.00000000E+00  0.00000000E+00
  0.00000000E+00  0.00000000E+00  0.00000000E+00  0.00000000E+00  0.00000000E+00
IOpCl                                      I                0
IROHF                                      I                0
Alpha Orbital Energies                     R   N=          60
 -1.92967392E+01 -1.04125211E+01 -1.03316651E+01 -1.03248658E+01 -1.17926507E+00
 -9.10474665E-01 -7.65924359E-01 -6.63147666E-01 -6.05765252E-01 -5.58627505E-01
 -5.40938984E-01 -4.88843365E-01 -4.69512701E-01 -3.77957154E-01 -3.54519487E-01
  1.58676564E-02  4.46705864E-02  7.57712147E-02  8.43541426E-02  9.40102287E-02
  1.10389868E-01  1.24527905E-01  1.34112824E-01  1.46847195E-01  1.66369646E-01
  1.71909857E-01  1.77713526E-01  1.94223370E-01  2.24357166E-01  2.74104933E-01
  2.84678079E-01  2.97894604E-01  3.11089879E-01  3.30481086E-01  3.33868398E-01
  3.71689089E-01  3.90670625E-01  4.53171934E-01  4.56395890E-01  5.04156336E-01
  6.95259560E-01  7.21472503E-01  7.59504406E-01  7.78970949E-01  8.08688394E-01
  8.52684264E-01  8.98473388E-01  9.03804812E-01  1.01752115E+00  1.05293909E+00
  1.10017825E+00  1.11934970E+00  1.13563944E+00  1.23299463E+00  1.27248068E+00
  1.31266018E+00  1.31977163E+00  1.38662059E+00  1.47359020E+00  1.89343031E+00
Alpha MO coefficients                      R   N=        3600
  3.25129358E-05  3.71255768E-04  1.33839058E-04 -5.03113361E-05  1.84398590E-05
 -1.07014358E-03 -8.47443130E-04 -1.53054493E-04 -3.86852206E-04  1.10822248E-02
  2.07324273E-03  1.61397118E-03 -2.12622447E-04  2.72725145E-06 -2.75582448E-04
 -2.07788001E-04  3.28921798E-05 -1.00390364E-04  7.06233021E-04 -6.74389296E-04
  5.21386561E-04  1.17228456E-03 -9.90290880E-04  5.18883240E-03  1.44497303E-03
 -1.02736017E-03  2.12446756E-04  1.03030443E-04  1.49106105E-04  4.46558443E-05
  5.78018485E-05  6.04051034E-03  2.79414305E-03 -3.48867645E-03 -2.97051618E-03
 -1.47721973E-02  8.09399038E-04  1.56415140E-03  3.22069663E-03  9.95214374E-01
  2.93236065E-02 -1.49251850E-03  1.25254310E-03  8.88739815E-04 -2.05841425E-02
  3.21329737E-03 -2.50429583E-03 -1.65008150E-03  9.73895036E-03 -6.74366027E-04
  3.15585044E-04 -4.98405458E-05 -1.73553123E-04  7.72435077E-04 -1.13416087E-05
 -5.00243670E-04  1.94796670E-04 -6.05840110E-05  7.01109355E-05 -2.76074208E-04
 -1.45937508E-04 -5.58283093E-04 -1.81437848E-04 -2.84390858E-05 -5.32233742E-05
  1.92346073E-03  1.16836306E-03  5.55539765E-04  9.89994042E-05 -8.94047284E-03
 -1.68675881E-03 -1.61958455E-03  1.56989130E-04  1.54427537E-03 -3.39580919E-04
 -5.04186787E-04  8.45873298E-06 -2.12059995E-04  3.25056421E-03  3.59332777E-03
  2.57190370E-04  6.93616842E-04 -5.03245857E-03 -5.39819482E-03 -5.77435781E-04
  3.61656493E-04  9.95430521E-01  3.60630850E-02  8.86335529E-04 -8.61534515E-04
 -7.05482249E-04 -3.13516038E-02 -1.71607742E-04  1.43229500E-03  2.06326746E-03
  1.14707214E-02 -4.98428138E-03  2.61698995E-05 -2.56653363E-03 -1.33129753E-04
 -1.16760368E-04  4.70712180E-04 -3.35285227E-04 -2.05048560E-04  1.40534143E-03
 -5.49014650E-04 -4.57369807E-05 -3.23071546E-04  1.06005246E-02 -3.33544472E-03
  3.73819079E-03  2.95040150E-03 -5.32366136E-04  3.04127085E-03 -2.17381873E-05
  8.53901025E-04 -2.09211030E-04 -3.94494337E-05 -2.06775403E-04  3.87649145E-04
  6.29373590E-02  8.39044370E-04 -7.16336874E-04 -6.36079100E-04  1.83136550E-04
  7.68275364E-03  4.37491787E-03  2.14203202E-03 -5.90481127E-05 -3.90043282E-02
 -7.74984172E-03 -5.17838661E-03  1.04369762E-03  9.93382120E-01  3.61316865E-02
  8.88863776E-05 -2.34729620E-04  3.03563010E-04 -3.41153674E-02 -1.23042976E-03
  3.07392249E-03 -2.45586471E-03  6.83040921E-02  4.69820773E-04 -1.13834457E-02
  7.01924357E-03 -1.46047697E-03 -5.76418929E-04  5.28928120E-04 -1.15936058E-04
  2.68179667E-04  5.11491058E-03 -5.31720324E-03  7.63205511E-04 -1.11774390E-03
 -2.80555356E-02  7.05403291E-03  6.78388017E-04  1.13042993E-03 -8.76766716E-06
 -3.03045518E-04  1.54442666E-04 -8.32690296E-05  2.28114481E-06  6.93756421E-04
 -3.39719122E-04  5.15481640E-04  2.73836653E-04  2.37301312E-03 -4.33647346E-04
  7.57231614E-04  1.05615111E-03 -1.66817349E-04  3.79557242E-04 -1.70130596E-04
  1.21479192E-03 -3.70090908E-04 -3.75438300E-04 -6.79556432E-04  3.26627851E-03
  9.93330333E-01  3.53011214E-02  4.51963639E-04  3.71607142E-04 -7.40881439E-05
 -3.13521858E-02 -3.32539512E-03 -2.82677942E-03  7.70506676E-04  2.94173168E-02
  5.98393502E-03  6.58186350E-03 -2.10405831E-03 -6.32040599E-02 -3.59022447E-03
  8.56890221E-04  8.47155421E-04 -2.85075034E-04  1.08440338E-02 -4.87653914E-03
 -4.03673759E-03  1.33970778E-03  1.25078056E-03  1.45513446E-02  1.53249449E-03
  2.37840480E-03  1.39017332E-04 -4.84853220E-04  1.83404790E-04 -3.01365763E-05
 -2.85240181E-05  2.00572491E-03 -1.56094049E-05 -8.86797666E-05 -8.23098655E-04
 -2.99601722E-02  7.21209020E-03  1.15473960E-04  2.43227492E-03  1.57164062E-05
  2.88775334E-04 -8.07725708E-05  2.47770664E-05  1.01123336E-05 -1.19757061E-03
  6.68257468E-04 -2.94035347E-04 -1.51273035E-04  8.77885614E-04  1.64587434E-05
 -2.05595031E-05  3.93244239E-04 -5.19292847E-05  2.83064348E-04 -7.04598069E-04
  4.07314591E-03 -6.22900423E-04  3.81811618E-03 -6.64501357E-05  1.38831357E-04
 -4.71022439E-03  7.73595134E-03  5.73611219E-03  2.43397181E-03 -4.04718862E-04
  3.98723295E-03 -5.24586392E-04  1.26733303E-03  1.13867445E-03  1.60596585E-02
  4.79778577E-03  1.28279268E-03 -2.15262513E-04 -1.83062490E-02  3.57118385E-02
  2.52613566E-02 -8.09713473E-03  4.80839517E-03  7.69514965E-03 -2.82846177E-04
 -9.09925093E-03 -9.44900046E-03 -4.56734738E-02 -1.26364828E-02  9.29425077E-03
 -2.03742292E-03 -1.16058547E-01  2.37403868E-01  1.23265834E-01 -1.12534383E-01
 -8.42091532E-02  4.91066833E-02 -3.63543711E-02  3.79338265E-02  2.93129964E-02
  4.01983734E-02  9.06479666E-03 -8.02711313E-03 -7.51544080E-03 -1.92675103E-01
  4.26636112E-01 -1.23907483E-01  1.08268189E-01  7.79175913E-02  4.14842230E-01
 -4.83832182E-02  4.19833380E-02  3.02054715E-02 -3.88863336E-03 -8.28569724E-03
  4.01571709E-03  2.03517854E-03  2.84877644E-02 -1.63549599E-02  9.17615655E-04
 -1.19092946E-03  1.61334919E-03  2.03260243E-03  5.02121362E-03  2.00961775E-03
 -1.38064679E-01  2.67143543E-01  8.21781757E-02  6.78712279E-02 -1.61715659E-02
  2.01294004E-01  9.23774772E-03  7.92232145E-04  1.97518383E-03 -8.58439604E-04
  6.68017441E-03 -4.44669668E-03  4.90821196E-03 -1.64909641E-01  3.21298465E-01
 -3.87860829E-02 -5.78111773E-02  3.51379511E-02  2.26604913E-01 -7.57698966E-04
  1.22628614E-02  2.00311976E-03 -1.00510412E-01 -4.19629629E-02  7.43144214E-03
 -1.79677702E-02 -5.36374145E-02  1.04830133E-01 -1.29484120E-01  4.11984183E-02
  5.81418679E-04  1.13571629E-01 -1.66817449E-02 -8.49783968E-03 -7.44361255E-03
  1.08520660E-01 -2.43735683E-02  6.09312876E-03 -6.52947149E-03  4.13114629E-02
 -9.36874893E-02 -6.88017851E-03 -1.10304489E-02 -1.35205903E-02 -1.12817663E-01
  5.35899372E-03 -6.32520528E-03 -6.16772519E-03 -2.06167761E-02  5.35751241E-03
 -6.62652097E-03 -4.86427911E-03  3.08605822E-02  7.81519241E-03  6.73474121E-02
  1.13726774E-02  6.88622121E-02  7.04677847E-03  8.48673422E-02  8.24809272E-03
  1.29390887E-01 -2.55711944E-01  3.60428225E-02  7.30055451E-03  1.04927923E-02
 -2.31168573E-01  1.79473452E-02  9.16592273E-03 -8.02703193E-04  1.44133792E-01
  2.49678499E-02  2.53893699E-02 -7.50998456E-03 -4.42670672E-02  8.91411004E-02
  2.10650959E-01  9.32483947E-02  2.34019761E-02  8.94284492E-02  4.65647309E-02
  2.48736432E-02  4.61418440E-03 -5.78508350E-02  6.60963137E-02  2.51139250E-02
 -4.13896155E-03 -1.21100257E-01  2.54872752E-01 -1.25852390E-01  1.15189681E-01
  4.26075656E-02  2.60259608E-01 -1.66164502E-02  3.06625328E-02  1.51268661E-02
 -8.94487481E-02  1.78521186E-02  1.61775722E-03  1.86161574E-02  6.38412968E-02
 -1.48341361E-01 -3.18980651E-02  3.43088355E-02  1.08849100E-02 -1.87243661E-01
 -9.58439712E-03  9.54470998E-03  9.48108047E-04 -2.27278859E-02  7.20228217E-03
 -8.83868892E-03 -7.51270496E-03  1.21987721E-01  3.87615309E-02 -1.15133416E-01
 -3.81384078E-02 -9.93195185E-02 -2.95710980E-02  4.81533747E-02  1.41677597E-02
 -6.60196134E-02  1.33302863E-01 -8.46721144E-02 -1.40556913E-01  7.10827225E-02
  1.36889412E-01 -3.20998494E-02 -4.09311122E-02  2.36038652E-02 -6.01952345E-02
 -1.86535949E-02 -1.26280669E-02  3.21518724E-03  9.38234798E-02 -1.92243116E-01
  4.12871706E-02 -9.66225534E-02  9.82511779E-02 -1.91001489E-01  6.48343657E-03
 -5.68899117E-02  3.87807352E-02  9.05797812E-02  1.36358511E-03 -1.64106703E-02
  7.59630936E-03 -8.44390212E-02  1.83208285E-01  9.96822702E-02  7.16982971E-02
  1.93928485E-01  2.10777188E-01  3.47338146E-02  3.64144811E-02  7.80769645E-02
 -2.28336489E-02  9.38121593E-03  2.76180500E-03  1.24891533E-02  4.86063179E-02
 -1.13251143E-01 -2.50531904E-03  6.90425903E-02  1.19572742E-01 -1.57321199E-01
  2.66141652E-03  2.33393716E-02  4.95619536E-02 -2.45504323E-02  3.86661543E-04
 -2.40378129E-03 -4.22994933E-03  1.81356488E-01  7.40441082E-02  7.95095764E-02
  3.46829405E-02  1.30350246E-01  6.59622834E-02 -1.55630887E-01 -6.28021983E-02
 -1.54892766E-03  4.29165702E-03 -1.62746297E-01  1.45964421E-01 -9.72563305E-02
  1.05212747E-02 -6.90012329E-02  6.56228734E-02 -4.36144370E-02  3.61617169E-02
  4.41704022E-03  8.47515586E-03 -3.83819919E-03 -7.51014061E-03  8.70532235E-03
 -1.84077826E-01  2.12264100E-01 -1.11165038E-01  5.07115805E-02 -3.95170106E-02
  7.97997476E-02 -3.42894253E-02 -1.27830411E-02 -8.58352676E-05  1.29564099E-02
 -2.69304952E-03  6.78757296E-03 -1.85406546E-02  2.19374058E-01  1.51866470E-01
  1.65470659E-01 -2.24338458E-02  9.00676328E-02  7.10947675E-02  7.54870732E-02
 -1.79591723E-02  1.85603504E-02  5.80229313E-03  1.04236318E-02 -9.06927839E-03
  2.03379092E-02  1.57037577E-01  7.63997732E-02  7.80360878E-02  3.80958183E-02
  7.35311386E-02  4.31483813E-02  3.94877747E-02  1.66201499E-02 -5.68976971E-03
 -1.68902331E-03 -3.23894220E-03  1.29976250E-01  6.13086326E-02  1.10707468E-01
  5.30642453E-02 -1.03046310E-01 -4.82118856E-02  1.53692394E-01  8.70891260E-02
  9.77408661E-03 -1.60936559E-02  3.15316173E-01  1.86652788E-01 -5.47871486E-03
 -7.76630747E-02  1.01414994E-01  5.52390255E-02  4.62923577E-03  1.39627455E-02
  2.34763288E-02  1.26826488E-02 -4.05531727E-03 -2.88413515E-02  5.88182579E-02
 -2.23359841E-01 -2.02560972E-01  1.15286733E-01  6.83874957E-02 -5.73949657E-02
 -7.35953509E-02  5.32851443E-02  2.06451140E-02 -6.51769344E-04 -5.36308305E-03
  9.77484764E-03  2.21650722E-02 -5.68578811E-02  4.62333590E-02 -1.85839488E-02
  2.39211851E-01 -6.20617800E-02  3.39494499E-02 -1.77101921E-02  1.09691526E-01
 -4.52365819E-02  2.05790465E-02 -1.70089499E-03  1.21277906E-02 -2.50789351E-02
  5.60850958E-02  1.42262836E-01 -1.22857254E-01  1.17690678E-01  9.75319911E-02
  6.34176617E-02 -5.89497800E-02  7.05951511E-02  2.46524086E-02  1.59239932E-03
 -1.24522554E-03 -2.04983451E-03  7.75844386E-02  4.24714316E-02 -1.68458785E-01
 -1.06012969E-01 -7.81108264E-02 -4.90634028E-02 -8.03871655E-02 -5.14581244E-02
  6.11374503E-04 -3.56000228E-03 -3.72147886E-02 -1.49865884E-01  1.07342425E-01
  2.15578127E-02 -2.48810274E-03 -5.47858379E-02  4.63046948E-02 -2.14601405E-02
 -9.61376120E-03 -1.19728025E-02  3.52869790E-03 -8.11408956E-05 -3.32182180E-03
  1.30224741E-01  1.03321812E-01  4.92255100E-02  1.92364459E-02  4.74227660E-02
  3.98309431E-02  2.19015347E-02  3.70186746E-02  5.28519720E-03  3.19889609E-03
  8.10087679E-03  3.37100486E-02 -1.04063130E-01 -2.09008732E-01  2.31491279E-01
  1.27011736E-01 -9.53003074E-02 -5.44303979E-02  8.24544556E-02  4.76462899E-02
 -1.11155728E-02 -3.70792750E-03  2.26060990E-03  9.08516559E-04 -8.41908665E-02
  1.84068777E-01  3.33634962E-01 -2.47919499E-01 -2.10478060E-01  3.48883586E-01
  1.32228187E-01 -9.22583691E-02 -8.48247203E-02  9.88355674E-02  9.46571546E-03
 -8.74719454E-03 -7.09096697E-03  5.86080950E-02  3.46388149E-02 -1.44175766E-02
 -5.63060406E-03  1.06673661E-01  6.63018264E-02  2.75445834E-02  1.62857849E-02
 -3.55721762E-03  8.78449137E-03  2.35248604E-01 -1.96883795E-01  1.43413360E-01
  1.89726194E-02  1.13177531E-01 -9.52108180E-02  6.95673370E-02 -3.02869740E-02
  1.35379950E-02 -1.79172480E-02  1.80821095E-02 -1.41943547E-02  2.47197661E-02
 -8.41316432E-02  8.24682798E-02 -9.50197642E-02  6.94510360E-02 -1.44550422E-02
  4.81056895E-02 -4.12464837E-02 -2.55229685E-02 -4.13283012E-02 -3.30253759E-03
 -1.72787895E-02  2.24043535E-02 -4.40435157E-02  2.32353123E-01  8.33539441E-02
 -8.82075242E-02 -6.95702637E-02  1.17960628E-01  5.34260241E-02 -3.21518083E-02
  6.48138968E-02 -1.52148365E-03  2.01949303E-02 -1.08472389E-02  1.45367270E-02
 -2.97267904E-02  7.72925521E-02  2.89717561E-01  1.85703640E-02 -7.13450788E-02
  6.04065986E-02  1.58977095E-01 -5.52925167E-03 -3.16598667E-02  1.92838059E-03
  7.76268830E-03  2.99134752E-03 -1.15653313E-02 -2.19100417E-02 -2.03655023E-01
 -1.43731594E-01  1.95002589E-01  1.35148426E-01  1.16484331E-01  8.34592026E-02
  1.72325396E-02 -4.55413481E-02 -4.30893378E-02 -1.53450063E-01  9.57201977E-02
  1.02863209E-02  2.89854657E-02 -6.15735234E-02  4.86455851E-02  2.33606674E-01
  4.35926822E-02  1.45195161E-02 -7.02252453E-03 -5.36347402E-03  7.93868816E-03
  1.31399540E-02  2.09200998E-01 -7.48019981E-02  2.47543497E-02  7.58788342E-03
  1.34390804E-01 -4.95716178E-02 -1.77979299E-01  5.74718332E-02  8.89861231E-02
 -2.01483376E-02  9.88981587E-03 -1.79591094E-02 -8.38469796E-03 -2.41154905E-01
  1.55782187E-01 -3.45166905E-02 -2.34517543E-02 -1.36571761E-01  1.01292885E-01
 -5.60213775E-02  8.57834149E-03 -3.64560303E-02  3.01896950E-02  6.27610848E-03
 -1.22804454E-02 -1.30494064E-01 -2.64637195E-01  3.29069189E-01 -3.02895282E-02
 -7.41749110E-02 -1.71324777E-01  2.00735601E-01  9.79309200E-03 -1.36889110E-02
 -4.15309777E-03  7.95126380E-03 -2.72150264E-02 -1.85501337E-02 -3.70220625E-02
 -1.20714952E-02  1.06831924E-01  7.86447373E-02  1.68865386E-01  1.13816411E-01
  3.36303120E-04 -1.16962994E-03 -8.28148774E-02  1.84891006E-01  3.40726176E-01
 -1.73030283E-02 -6.33347308E-02  1.13423492E-01  2.20211678E-01 -8.36825495E-02
 -2.59026690E-02  9.78253710E-03  3.31709406E-02  2.08505804E-05 -3.86021905E-03
 -6.13527421E-02  1.79189361E-01  3.51434337E-01  1.53490885E-02 -5.15166291E-02
  1.02668761E-01  2.35255839E-01  1.13791631E-01 -1.63210119E-02 -2.24990828E-03
  5.51365124E-02  4.81473382E-03 -4.19762834E-04 -9.19920778E-03 -4.39979616E-02
 -6.83872613E-02 -6.26660391E-02 -3.04244473E-02  8.19068134E-03 -1.54162551E-02
 -3.18247132E-02  3.95472547E-03 -1.28873875E-02 -1.96414721E-02 -3.30958718E-03
  1.06116599E-02 -4.76990648E-02  1.13430638E-01  1.82533729E-03  3.64043571E-02
 -2.39955206E-02  7.76049246E-02  5.22707779E-03 -6.12337588E-04 -4.43171769E-03
  1.80001134E-02  9.79206418E-04 -8.60131511E-02 -9.32736746E-02  4.50686257E-03
  1.60842596E-05 -4.79650652E-03 -6.93465917E-03 -3.65427821E-03 -4.60372223E-03
  6.12140853E-03 -1.57492339E-02 -6.02084580E-02 -1.94678472E-02 -4.57017694E-02
  2.63500796E-03 -4.53795131E-02  1.67432502E-02 -4.86480532E-02  4.62208206E-02
 -7.81412565E-03  1.41651887E-02 -8.19490861E-03 -3.44960183E-02  7.09824381E-02
  2.20468928E-01 -6.67031341E-02  4.08698973E-02  2.33472915E-01  2.02016139E-01
 -5.86296243E-02  5.89243908E-02 -7.62439459E-02  1.16513952E-02  1.73848343E-03
 -9.93495962E-03 -1.47629441E-03  1.95281937E-02 -1.15252889E-01 -3.94451356E-02
 -1.01224832E-01 -6.34572571E-02  7.55443032E-02 -1.19663482E-02  2.17628882E-02
  6.49433466E-03  1.11881370E-02 -5.88866116E-03  4.26515257E-03 -2.97240819E-04
  1.12745302E-03  4.02362241E-01  1.63061409E-01  3.93376913E-01 -5.40011288E-03
  2.71574527E-01  1.08560423E-01  2.63175008E-01 -1.43827586E-02  4.36517310E-02