O.pdb                                                                   
FOpt      RwB97XD                                                     6-31+G              
Number of atoms                            I               11
Info1-9                                    I   N=           9
          22          22           0           0           0         100
           2          18        -802
Charge                                     I                0
Multiplicity                               I                1
Number of electrons                        I               40
Number of alpha electrons                  I               20
Number of beta electrons                   I               20
Number of basis functions                  I               77
Number of independent functions            I               77
Number of point charges in /Mol/           I                0
Number of translation vectors              I                0
Atomic numbers                             I   N=          11
           6           6           1           1           1           8
           8           6           1           1           1
Nuclear charges                            R   N=          11
  6.00000000E+00  6.00000000E+00  1.00000000E+00  1.00000000E+00  1.00000000E+00
  8.00000000E+00  8.00000000E+00  6.00000000E+00  1.00000000E+00  1.00000000E+00
  1.00000000E+00
Current cartesian coordinates              R   N=          33
 -2.68500019E+00 -1.82635786E+00  2.43113314E-01 -1.00351035E+00  4.06289172E-01
 -2.07287792E-01 -2.92356309E+00 -2.89130167E+00 -1.51266336E+00 -4.51834629E+00
 -1.21197373E+00  9.51707702E-01 -1.79304578E+00 -3.09530148E+00  1.61428915E+00
  1.35437837E+00 -2.52822936E-01 -1.17678722E+00 -1.55110745E+00  2.61044877E+00
  2.23790865E-01  3.48320398E+00 -3.38799985E-01  5.75935660E-01  3.71358443E+00
  1.48861052E+00  1.51197749E+00  5.12764930E+00 -7.56790536E-01 -5.83057944E-01
  3.19939345E+00 -1.84103775E+00  1.97115070E+00
Force Field                                I                0
Int Atom Types                             I   N=          11
           0           0           0           0           0           0
           0           0           0           0           0
MM charges                                 R   N=          11
  0.00000000E+00  0.00000000E+00  0.00000000E+00  0.00000000E+00  0.00000000E+00
  0.00000000E+00  0.00000000E+00  0.00000000E+00  0.00000000E+00  0.00000000E+00
  0.00000000E+00
Integer atomic weights                     I   N=          11
          12          12           1           1           1          16
          16          12           1           1           1
Real atomic weights                        R   N=          11
  1.20000000E+01  1.20000000E+01  1.00782504E+00  1.00782504E+00  1.00782504E+00
  1.59949146E+01  1.59949146E+01  1.20000000E+01  1.00782504E+00  1.00782504E+00
  1.00782504E+00
Atom fragment info                         I   N=          11
           0           0           0           0           0           0
           0           0           0           0           0
Atom residue num                           I   N=          11
           0           0           0           0           0           0
           0           0           0           0           0
Nuclear spins                              I   N=          11
           0           0           1           1           1           0
           0           0           1           1           1
Nuclear ZEff                               R   N=          11
 -3.60000000E+00 -3.60000000E+00 -1.00000000E+00 -1.00000000E+00 -1.00000000E+00
 -5.60000000E+00 -5.60000000E+00 -3.60000000E+00 -1.00000000E+00 -1.00000000E+00
 -1.00000000E+00
Nuclear ZNuc                               R   N=          11
  6.00000000E+00  6.00000000E+00  1.00000000E+00  1.00000000E+00  1.00000000E+00
  8.00000000E+00  8.00000000E+00  6.00000000E+00  1.00000000E+00  1.00000000E+00
  1.00000000E+00
Nuclear QMom                               R   N=          11
  0.00000000E+00  0.00000000E+00  0.00000000E+00  0.00000000E+00  0.00000000E+00
  0.00000000E+00  0.00000000E+00  0.00000000E+00  0.00000000E+00  0.00000000E+00
  0.00000000E+00
Nuclear GFac                               R   N=          11
  0.00000000E+00  0.00000000E+00  2.79284600E+00  2.79284600E+00  2.79284600E+00
  0.00000000E+00  0.00000000E+00  0.00000000E+00  2.79284600E+00  2.79284600E+00
  2.79284600E+00
MicOpt                                     I   N=          11
          -1          -1          -1          -1          -1          -1
          -1          -1          -1          -1          -1
Number of contracted shells                I               32
Number of primitive shells                 I               79
Pure/Cartesian d shells                    I                1
Pure/Cartesian f shells                    I                0
Highest angular momentum                   I                1
Largest degree of contraction              I                6
Shell types                                I   N=          32
           0          -1          -1          -1           0          -1
          -1          -1           0           0           0           0
           0           0           0          -1          -1          -1
           0          -1          -1          -1           0          -1
          -1          -1           0           0           0           0
           0           0
Number of primitives per shell             I   N=          32
           6           3           1           1           6           3
           1           1           3           1           3           1
           3           1           6           3           1           1
           6           3           1           1           6           3
           1           1           3           1           3           1
           3           1
Shell to atom map                          I   N=          32
           1           1           1           1           2           2
           2           2           3           3           4           4
           5           5           6           6           6           6
           7           7           7           7           8           8
           8           8           9           9          10          10
          11          11
Primitive exponents                        R   N=          79
  3.04752488E+03  4.57369518E+02  1.03948685E+02  2.92101553E+01  9.28666296E+00
  3.16392696E+00  7.86827235E+00  1.88128854E+00  5.44249258E-01  1.68714478E-01
  4.38000000E-02  3.04752488E+03  4.57369518E+02  1.03948685E+02  2.92101553E+01
  9.28666296E+00  3.16392696E+00  7.86827235E+00  1.88128854E+00  5.44249258E-01
  1.68714478E-01  4.38000000E-02  1.87311370E+01  2.82539436E+00  6.40121692E-01
  1.61277759E-01  1.87311370E+01  2.82539436E+00  6.40121692E-01  1.61277759E-01
  1.87311370E+01  2.82539436E+00  6.40121692E-01  1.61277759E-01  5.48467166E+03
  8.25234946E+02  1.88046958E+02  5.29645000E+01  1.68975704E+01  5.79963534E+00
  1.55396162E+01  3.59993359E+00  1.01376175E+00  2.70005823E-01  8.45000000E-02
  5.48467166E+03  8.25234946E+02  1.88046958E+02  5.29645000E+01  1.68975704E+01
  5.79963534E+00  1.55396162E+01  3.59993359E+00  1.01376175E+00  2.70005823E-01
  8.45000000E-02  3.04752488E+03  4.57369518E+02  1.03948685E+02  2.92101553E+01
  9.28666296E+00  3.16392696E+00  7.86827235E+00  1.88128854E+00  5.44249258E-01
  1.68714478E-01  4.38000000E-02  1.87311370E+01  2.82539436E+00  6.40121692E-01
  1.61277759E-01  1.87311370E+01  2.82539436E+00  6.40121692E-01  1.61277759E-01
  1.87311370E+01  2.82539436E+00  6.40121692E-01  1.61277759E-01
Contraction coefficients                   R   N=          79
  1.83473713E-03  1.40373228E-02  6.88426223E-02  2.32184443E-01  4.67941348E-01
  3.62311985E-01 -1.19332420E-01 -1.60854152E-01  1.14345644E+00  1.00000000E+00
  1.00000000E+00  1.83473713E-03  1.40373228E-02  6.88426223E-02  2.32184443E-01
  4.67941348E-01  3.62311985E-01 -1.19332420E-01 -1.60854152E-01  1.14345644E+00
  1.00000000E+00  1.00000000E+00  3.34946043E-02  2.34726953E-01  8.13757326E-01
  1.00000000E+00  3.34946043E-02  2.34726953E-01  8.13757326E-01  1.00000000E+00
  3.34946043E-02  2.34726953E-01  8.13757326E-01  1.00000000E+00  1.83107443E-03
  1.39501722E-02  6.84450781E-02  2.32714336E-01  4.70192898E-01  3.58520853E-01
 -1.10777550E-01 -1.48026263E-01  1.13076702E+00  1.00000000E+00  1.00000000E+00
  1.83107443E-03  1.39501722E-02  6.84450781E-02  2.32714336E-01  4.70192898E-01
  3.58520853E-01 -1.10777550E-01 -1.48026263E-01  1.13076702E+00  1.00000000E+00
  1.00000000E+00  1.83473713E-03  1.40373228E-02  6.88426223E-02  2.32184443E-01
  4.67941348E-01  3.62311985E-01 -1.19332420E-01 -1.60854152E-01  1.14345644E+00
  1.00000000E+00  1.00000000E+00  3.34946043E-02  2.34726953E-01  8.13757326E-01
  1.00000000E+00  3.34946043E-02  2.34726953E-01  8.13757326E-01  1.00000000E+00
  3.34946043E-02  2.34726953E-01  8.13757326E-01  1.00000000E+00
P(S=P) Contraction coefficients            R   N=          79
  0.00000000E+00  0.00000000E+00  0.00000000E+00  0.00000000E+00  0.00000000E+00
  0.00000000E+00  6.89990666E-02  3.16423961E-01  7.44308291E-01  1.00000000E+00
  1.00000000E+00  0.00000000E+00  0.00000000E+00  0.00000000E+00  0.00000000E+00
  0.00000000E+00  0.00000000E+00  6.89990666E-02  3.16423961E-01  7.44308291E-01
  1.00000000E+00  1.00000000E+00  0.00000000E+00  0.00000000E+00  0.00000000E+00
  0.00000000E+00  0.00000000E+00  0.00000000E+00  0.00000000E+00  0.00000000E+00
  0.00000000E+00  0.00000000E+00  0.00000000E+00  0.00000000E+00  0.00000000E+00
  0.00000000E+00  0.00000000E+00  0.00000000E+00  0.00000000E+00  0.00000000E+00
  7.08742682E-02  3.39752839E-01  7.27158577E-01  1.00000000E+00  1.00000000E+00
  0.00000000E+00  0.00000000E+00  0.00000000E+00  0.00000000E+00  0.00000000E+00
  0.00000000E+00  7.08742682E-02  3.39752839E-01  7.27158577E-01  1.00000000E+00
  1.00000000E+00  0.00000000E+00  0.00000000E+00  0.00000000E+00  0.00000000E+00
  0.00000000E+00  0.00000000E+00  6.89990666E-02  3.16423961E-01  7.44308291E-01
  1.00000000E+00  1.00000000E+00  0.00000000E+00  0.00000000E+00  0.00000000E+00
  0.00000000E+00  0.00000000E+00  0.00000000E+00  0.00000000E+00  0.00000000E+00
  0.00000000E+00  0.00000000E+00  0.00000000E+00  0.00000000E+00
Coordinates of each shell                  R   N=          96
 -2.68500019E+00 -1.82635786E+00  2.43113314E-01 -2.68500019E+00 -1.82635786E+00
  2.43113314E-01 -2.68500019E+00 -1.82635786E+00  2.43113314E-01 -2.68500019E+00
 -1.82635786E+00  2.43113314E-01 -1.00351035E+00  4.06289172E-01 -2.07287792E-01
 -1.00351035E+00  4.06289172E-01 -2.07287792E-01 -1.00351035E+00  4.06289172E-01
 -2.07287792E-01 -1.00351035E+00  4.06289172E-01 -2.07287792E-01 -2.92356309E+00
 -2.89130167E+00 -1.51266336E+00 -2.92356309E+00 -2.89130167E+00 -1.51266336E+00
 -4.51834629E+00 -1.21197373E+00  9.51707702E-01 -4.51834629E+00 -1.21197373E+00
  9.51707702E-01 -1.79304578E+00 -3.09530148E+00  1.61428915E+00 -1.79304578E+00
 -3.09530148E+00  1.61428915E+00  1.35437837E+00 -2.52822936E-01 -1.17678722E+00
  1.35437837E+00 -2.52822936E-01 -1.17678722E+00  1.35437837E+00 -2.52822936E-01
 -1.17678722E+00  1.35437837E+00 -2.52822936E-01 -1.17678722E+00 -1.55110745E+00
  2.61044877E+00  2.23790865E-01 -1.55110745E+00  2.61044877E+00  2.23790865E-01
 -1.55110745E+00  2.61044877E+00  2.23790865E-01 -1.55110745E+00  2.61044877E+00
  2.23790865E-01  3.48320398E+00 -3.38799985E-01  5.75935660E-01  3.48320398E+00
 -3.38799985E-01  5.75935660E-01  3.48320398E+00 -3.38799985E-01  5.75935660E-01
  3.48320398E+00 -3.38799985E-01  5.75935660E-01  3.71358443E+00  1.48861052E+00
  1.51197749E+00  3.71358443E+00  1.48861052E+00  1.51197749E+00  5.12764930E+00
 -7.56790536E-01 -5.83057944E-01  5.12764930E+00 -7.56790536E-01 -5.83057944E-01
  3.19939345E+00 -1.84103775E+00  1.97115070E+00  3.19939345E+00 -1.84103775E+00
  1.97115070E+00
Constraint Structure                       R   N=          33
 -2.68500019E+00 -1.82635786E+00  2.43113314E-01 -1.00351035E+00  4.06289172E-01
 -2.07287792E-01 -2.92356309E+00 -2.89130167E+00 -1.51266336E+00 -4.51834629E+00
 -1.21197373E+00  9.51707702E-01 -1.79304578E+00 -3.09530148E+00  1.61428915E+00
  1.35437837E+00 -2.52822936E-01 -1.17678722E+00 -1.55110745E+00  2.61044877E+00
  2.23790865E-01  3.48320398E+00 -3.38799985E-01  5.75935660E-01  3.71358443E+00
  1.48861052E+00  1.51197749E+00  5.12764930E+00 -7.56790536E-01 -5.83057944E-01
  3.19939345E+00 -1.84103775E+00  1.97115070E+00
Num ILSW                                   I              100
ILSW                                       I   N=         100
           0           1           0           0           2           0
           0           0           0           0        4639          -1
           0           0           0           0           2           0
           0           0           0           0           1           0
           1           0           0           0           0           0
           0           0      100000           0          -1           0
           0           0           0           0           0           0
           0           0           0           1           0           0
           0           0           1           0           0           0
           0           0         121          41           0           0
           0           0          58           0           0           0
           0           0           0          11           0           0
           0           0           0           0           0           0
           0           0           0           0           0           0
           0           0           0           0           0           0
           0           0           0           0           0           0
           0           0           0           0
Num RLSW                                   I               41
RLSW                                       R   N=          41
  1.00000000E+00  1.00000000E+00  1.00000000E+00  1.00000000E+00  1.00000000E+00
  0.00000000E+00  2.00000000E-01  2.22036000E-01  0.00000000E+00  7.77964000E-01
  0.00000000E+00  2.00000000E-01  0.00000000E+00  0.00000000E+00  1.00000000E+00
  0.00000000E+00  0.00000000E+00  1.00000000E+00  0.00000000E+00  0.00000000E+00
  0.00000000E+00  0.00000000E+00  1.00000000E+00  0.00000000E+00  0.00000000E+00
  0.00000000E+00  0.00000000E+00  1.00000000E+00  0.00000000E+00  0.00000000E+00
  0.00000000E+00  0.00000000E+00  1.00000000E+00  0.00000000E+00  0.00000000E+00
  0.00000000E+00  0.00000000E+00  0.00000000E+00  1.00000000E+00  1.00000000E+00
  0.00000000E+00
MxBond                                     I                4
NBond                                      I   N=          11
           4           3           1           1           1           2
           1           4           1           1           1
IBond                                      I   N=          44
           2           3           4           5           1           6
           7           0           1           0           0           0
           1           0           0           0           1           0
           0           0           2           8           0           0
           2           0           0           0           6           9
          10          11           8           0           0           0
           8           0           0           0           8           0
           0           0
RBond                                      R   N=          44
  1.00000000E+00  1.00000000E+00  1.00000000E+00  1.00000000E+00  1.00000000E+00
  1.00000000E+00  2.00000000E+00  0.00000000E+00  1.00000000E+00  0.00000000E+00
  0.00000000E+00  0.00000000E+00  1.00000000E+00  0.00000000E+00  0.00000000E+00
  0.00000000E+00  1.00000000E+00  0.00000000E+00  0.00000000E+00  0.00000000E+00
  1.00000000E+00  1.00000000E+00  0.00000000E+00  0.00000000E+00  2.00000000E+00
  0.00000000E+00  0.00000000E+00  0.00000000E+00  1.00000000E+00  1.00000000E+00
  1.00000000E+00  1.00000000E+00  1.00000000E+00  0.00000000E+00  0.00000000E+00
  0.00000000E+00  1.00000000E+00  0.00000000E+00  0.00000000E+00  0.00000000E+00
  1.00000000E+00  0.00000000E+00  0.00000000E+00  0.00000000E+00
Virial Ratio                               R      2.005741653402432E+00
SCF Energy                                 R     -2.682010102145596E+02
Total Energy                               R     -2.682010102145596E+02
RMS Force                                  R      1.812678644749206E-03
RMS Density                                R      3.333047896090665E-09
External E-field                           R   N=          35
  0.00000000E+00  0.00000000E+00  0.00000000E+00  0.00000000E+00  0.00000000E+00
  0.00000000E+00  0.00000000E+00  0.00000000E+00  0.00000000E+00  0.00000000E+00
  0.00000000E+00  0.00000000E+00  0.00000000E+00  0.00000000E+00  0.00000000E+00
  0.00000000E+00  0.00000000E+00  0.00000000E+00  0.00000000E+00  0.00000000E+00
  0.00000000E+00  0.00000000E+00  0.00000000E+00  0.00000000E+00  0.00000000E+00
  0.00000000E+00  0.00000000E+00  0.00000000E+00  0.00000000E+00  0.00000000E+00
  0.00000000E+00  0.00000000E+00  0.00000000E+00  0.00000000E+00  0.00000000E+00
IOpCl                                      I                0
IROHF                                      I                0
Alpha Orbital Energies                     R   N=          77
 -1.93041358E+01 -1.92878826E+01 -1.04555790E+01 -1.03643851E+01 -1.03158097E+01
 -1.21570570E+00 -1.13643562E+00 -8.76081423E-01 -8.20875439E-01 -6.64983442E-01
 -5.97027070E-01 -5.83307362E-01 -5.72302187E-01 -5.30409914E-01 -5.26063724E-01
 -5.07125993E-01 -4.70813777E-01 -4.30288323E-01 -3.79332640E-01 -3.67252858E-01
  3.94190149E-02  6.70578228E-02  8.00354856E-02  9.93992065E-02  1.04085759E-01
  1.09480913E-01  1.24540251E-01  1.31030628E-01  1.47293284E-01  1.50866799E-01
  1.65169343E-01  1.73139777E-01  1.97451053E-01  2.28575605E-01  2.42221625E-01
  2.60834525E-01  2.74646897E-01  2.85641962E-01  2.97050689E-01  3.23925621E-01
  3.32404741E-01  3.47897081E-01  3.60533835E-01  3.77513923E-01  3.85401819E-01
  4.02168312E-01  4.10201001E-01  4.25875104E-01  4.34938591E-01  4.57661614E-01
  5.62689923E-01  7.13708530E-01  7.27904947E-01  7.50342926E-01  7.57763781E-01
  7.78017656E-01  8.20747501E-01  8.85929511E-01  9.05668781E-01  9.35497034E-01
  1.06287443E+00  1.10113985E+00  1.10996868E+00  1.15245082E+00  1.16266030E+00
  1.19558128E+00  1.24208107E+00  1.28293319E+00  1.34388967E+00  1.38582491E+00
  1.40797049E+00  1.44618940E+00  1.47173955E+00  1.54350534E+00  1.60329851E+00
  1.92395449E+00  2.01725460E+00
Alpha MO coefficients                      R   N=        5929
 -4.67124669E-05 -6.12456413E-04 -1.41220715E-04 -6.11030945E-05  3.82769752E-05
  2.43120862E-03 -5.46375954E-04  1.28337512E-03  2.40256085E-04  1.58796398E-02
  3.26114723E-03  2.40098463E-03 -6.68194125E-04  7.92267935E-05  4.02691114E-04
  4.07496766E-04 -1.13764324E-04 -6.57424318E-05  1.57569603E-03  4.77541019E-03
 -7.78279449E-04 -1.63884189E-03 -2.01016324E-02  1.13846448E-04  5.53048316E-03
 -6.57206015E-04  2.68584323E-05 -5.16360206E-04 -2.00051545E-04 -7.15974277E-04
  2.07828663E-05 -4.55030167E-04  9.95226390E-01  2.97333633E-02 -3.76688068E-04
  4.16440437E-04  1.70499950E-03 -2.09305927E-02  1.35183588E-03 -9.01919994E-04
 -2.97789932E-03  1.07125009E-02 -3.69416475E-04 -1.54060960E-05  8.36417857E-04
 -1.20677582E-03 -2.61284646E-04  2.09757990E-06  1.25799831E-04  4.58284324E-05
  6.80872507E-04 -9.21853523E-04 -5.39654840E-04  7.71129598E-05  8.65431458E-04
 -2.07206975E-04 -5.00971445E-04  4.11936159E-04 -2.59125603E-06  7.17861939E-05
 -5.99376687E-04  4.82070538E-05 -3.34561467E-04  3.12378381E-03 -8.29070491E-04
  1.49031080E-04 -6.37077117E-04 -1.27967381E-04  6.82396867E-04  1.45756476E-05
  9.85067853E-04 -2.59428455E-04 -9.70503722E-04 -2.17135147E-04 -8.40127025E-04
 -2.74608945E-04 -6.74457375E-04 -7.29615617E-06 -2.37583219E-04 -5.10728057E-05
 -1.13863184E-04  3.74162048E-06  2.28701469E-03  2.17246239E-03 -4.22929961E-04
 -9.69090499E-04  7.02783834E-03  5.47818094E-04  1.95599698E-03  4.10746171E-04
  2.30390006E-04  2.11554770E-04 -1.29629562E-04 -8.09344361E-05 -1.94802064E-05
  7.70573490E-03 -1.04512359E-03  9.36509145E-03  1.59444731E-03 -1.26103666E-02
  1.40841452E-03 -4.36507294E-04 -1.88673383E-03 -1.54528772E-04 -2.38460601E-04
  1.82443299E-04  4.58205141E-04 -1.06966345E-04 -1.80622164E-04  1.20681708E-03
 -1.83523018E-04  1.60573275E-04  4.93825408E-05 -7.44798346E-05  6.73680084E-04
 -4.34933291E-04 -1.35927597E-03  2.09683724E-04 -3.18929929E-05  1.87633324E-04
 -6.25153712E-04 -2.88174983E-04  9.95235191E-01  2.98313588E-02  6.08854527E-04
 -2.17166749E-03 -3.91647368E-04 -2.35710447E-02 -1.74311086E-03  5.52472016E-03
  1.01688231E-03  7.55175848E-03  3.27110423E-04 -5.83419106E-04  2.52353750E-04
  3.55499916E-05  3.54254994E-04 -7.42964498E-05  2.65621080E-06  2.96341587E-05
 -7.00125219E-04  5.48623839E-04  4.53160442E-04 -3.43874341E-04  1.38626891E-03
 -6.11727937E-04  6.43073074E-04  3.03097312E-04  1.40981171E-04 -5.36613246E-04
 -3.22602398E-05 -1.52020131E-04  5.85423822E-05  9.19238292E-04  7.36544570E-04
 -8.04927653E-04 -7.68210089E-05 -3.47140894E-04 -1.96469870E-05  6.16813284E-03
  8.65065639E-04  2.70611034E-03  2.97406843E-05 -3.16572812E-03 -9.61300283E-04
 -1.62322144E-03  2.73939313E-04  9.95556610E-01  3.67973205E-02  7.01809673E-04
  1.02104600E-03 -1.24686728E-04 -3.43522524E-02 -1.50473725E-04  1.61167844E-04
 -3.84411404E-05 -6.93665213E-03 -3.38639026E-03  7.00939620E-04  4.18854898E-04
 -1.80374421E-04  1.72222996E-04 -1.57406968E-04 -1.34648265E-03 -2.15289470E-04
  1.86415978E-04  4.93341495E-05  4.81699900E-04  1.65994748E-04 -4.04786263E-05
 -6.48981277E-05 -2.21168738E-04 -8.93449447E-06 -1.46874310E-04 -2.84020056E-04
  7.81557112E-03 -6.85054175E-03  5.29466134E-04  1.44166831E-03 -1.54664757E-04
 -9.84342007E-05 -1.22697310E-04  5.20628631E-04  1.10388571E-04  1.09571546E-03
 -1.63465877E-04 -1.06976458E-04  3.30194391E-05  9.14129258E-03  9.14423413E-04
 -4.87455488E-03 -6.03848079E-04 -1.92161024E-04 -8.01805052E-04  8.67428106E-05
 -5.44955999E-05 -5.10208463E-05  2.46571100E-03 -1.12348842E-03  6.61376228E-04
  5.32994251E-04  6.44054127E-03 -1.81411750E-03  2.54737555E-04 -1.10655040E-03
 -1.32410630E-04 -1.84743072E-03 -4.47353113E-05  1.24722729E-03 -1.95240168E-04
 -8.95122477E-04  1.64294542E-04  4.78035892E-04  9.26407131E-05 -4.24399469E-05
  8.31275313E-07 -1.57387621E-03 -1.35307818E-03 -1.98698300E-04  2.27118848E-04
 -6.50158915E-03 -1.10241257E-03 -1.24313853E-03  1.00186765E-03 -1.03117327E-06
 -7.99632284E-04 -6.59247768E-05  5.59269992E-05  7.66521397E-05  4.04495453E-03
  5.14556233E-04  5.96847650E-04 -4.42630009E-04  1.79088149E-02  2.65001454E-03
 -2.34683821E-03 -1.54036842E-03  1.06538198E-04  3.08839022E-04 -6.68835164E-05
 -2.03046790E-04  3.23931144E-04 -7.27185300E-04  6.18335414E-05  5.71269595E-04
 -1.09552302E-04  1.75541988E-05 -1.13386185E-04 -1.45287793E-04  1.33003718E-03
 -2.58700443E-04  5.88370533E-04  1.47964205E-02  6.57084329E-03  5.45215049E-06
  6.80202292E-03  1.52718660E-05  2.26712620E-04  5.22852882E-05 -6.93413906E-05
  1.43160885E-05 -1.07544843E-03 -6.70267343E-04  9.10302229E-04  4.98560638E-06
 -4.50489600E-03 -1.22193414E-03  9.78507527E-04  8.50119504E-04  9.95576675E-01
  3.73877770E-02 -1.01827659E-03  1.26511651E-05 -6.15851880E-04 -3.71459513E-02
  3.63734748E-03 -2.02503066E-04  2.26653269E-03 -1.44358725E-02  4.52217546E-03
 -4.42095700E-04  2.13396349E-03 -4.83683340E-04  5.67666203E-03 -4.59811792E-04
  5.18279128E-03 -4.04341656E-04  5.33285741E-03  9.95488296E-01  3.77140682E-02
  4.43629192E-04  8.10120659E-05 -8.37713493E-05 -3.95518477E-02 -3.25751697E-03
 -2.67764664E-03  9.79108576E-04 -1.44350144E-02 -2.00513557E-03 -2.48931191E-03
  6.07938615E-04 -7.16986344E-04 -7.96869933E-04  4.10325186E-04  5.81799745E-04
 -1.00264829E-04  6.22084368E-03 -6.23043171E-03 -6.24689867E-03  1.38592364E-03
  1.21476668E-02 -2.20265244E-03 -1.93974445E-03  7.81058138E-04 -4.94068504E-04
  7.97131863E-03 -5.51143490E-04  6.82644379E-03 -4.52295224E-04  7.60852770E-03
 -1.68215569E-05 -4.32861287E-04  1.72353228E-04 -4.57583982E-06 -1.44917301E-04
  9.37474361E-04 -5.84080369E-04  6.53356874E-04  9.37008460E-04  6.99256181E-03
 -4.89761929E-04 -3.11587990E-04  2.45133185E-03 -5.98604434E-06 -2.20305462E-04
 -2.27483977E-05  8.89486110E-05  2.30410509E-05  7.10078434E-04  8.75623676E-04
 -4.20438396E-05 -3.30475353E-04  5.44682100E-04  2.85600536E-04 -9.08883302E-04
 -2.09248494E-04 -4.51340362E-05  5.08386085E-04 -4.38015746E-05 -3.49353753E-05
  2.21262609E-06 -2.57244314E-03  1.57993799E-03  1.17379808E-04  3.16537477E-04
 -1.15726855E-03  6.91614588E-04 -1.47694894E-04 -8.00910906E-05  1.14188055E-04
 -4.03630174E-04  5.63612728E-05 -6.26137159E-04  2.35481574E-04 -5.63342083E-04
 -1.81425939E-02  3.69171759E-02  1.61475551E-02  2.12731423E-02 -3.55271533E-03
 -7.04105630E-03 -9.21439951E-03 -6.03359549E-03  2.12433160E-03 -9.36401074E-02
 -1.19625944E-02 -1.96942280E-02 -3.01604765E-04 -1.24847767E-01  2.55485755E-01
  3.49582937E-02  1.12726541E-01  3.58894229E-03  5.12384982E-02 -1.33392088E-02
 -5.75294390E-02  1.37546989E-03  1.18949325E-01 -1.76788907E-02 -2.13583942E-02
  1.25701450E-02  5.64338078E-03 -4.14541518E-04  5.66120497E-03 -3.62080793E-04
  5.94302033E-03  1.96006045E-03 -1.24608487E-01  2.66816299E-01 -3.99232914E-02
  2.76842171E-02  7.01370253E-02  2.88268393E-01 -1.83183062E-02  1.96343682E-02
  4.62843612E-02 -4.55064731E-02  1.29056478E-02  1.79275577E-03 -1.44658299E-02
 -1.38627918E-01  3.04430508E-01  4.04891493E-02 -1.33220878E-01 -2.71472647E-02
  2.96306442E-01  1.84861488E-02 -5.10994905E-02 -1.04891349E-02 -2.18416838E-03
  8.70640640E-03 -2.32424593E-03 -5.38185672E-03 -3.42538961E-02  6.29274275E-02
 -3.98844456E-02  3.11002485E-03 -2.68471866E-02  2.58099301E-02  9.34605480E-04
 -1.71288459E-03  6.21141999E-03  9.03278343E-04 -4.23636570E-03 -2.70298557E-03
 -3.57747220E-03  1.00494243E-02  5.07408571E-03  9.53434492E-03  1.89417313E-03
  1.04588829E-02 -2.25252493E-03  7.87310103E-04  1.04039704E-03  8.27198781E-03
 -9.63499974E-03 -3.40966515E-03 -5.12454496E-03  1.41703158E-02 -1.05031194E-02
 -6.21066366E-03 -1.22834683E-01 -2.52085979E-02 -1.82064193E-02  7.40299392E-03
  2.57778110E-02 -5.73534031E-02  1.27740827E-01 -1.69712574E-01 -5.95104087E-02
  6.18309082E-03 -4.32593619E-02  5.51210386E-02  2.13181442E-02  9.99613960E-02
 -2.46739741E-02 -4.33476125E-02  5.76581360E-03  1.09771620E-03  3.70141571E-03
 -1.88312998E-03  7.05152518E-03  1.33066819E-03  5.36582754E-03 -1.58154362E-01
  3.40614563E-01 -5.34701722E-03  6.55790275E-03  8.36173962E-02  3.96009494E-01
 -1.14280843E-02  3.93965099E-03  5.98502539E-02 -7.43450228E-03 -1.98652622E-02
  8.11569245E-05 -6.14455997E-03  1.36299511E-01 -3.00265522E-01 -1.78525583E-02
  1.16248805E-01  1.86587092E-02 -3.10477964E-01 -6.97179120E-03  5.11681240E-02
  7.61164884E-03 -2.82322699E-02  3.22390346E-03  1.96105571E-02  2.43487189E-04
 -5.50847022E-02  1.05852027E-01 -5.89308769E-02  1.94801424E-03 -4.37435926E-02
  4.88034649E-02  4.93803612E-03  3.12961226E-04  6.02610501E-03  3.33376549E-02
 -1.60503052E-02  5.50965815E-03 -9.07883632E-03  1.82714385E-02 -4.32318365E-03
  1.79922832E-02  4.01035850E-03  1.84091943E-02  1.52393578E-04 -1.63272169E-01
  3.06364685E-01  4.09970401E-02  3.36307339E-02 -1.20900439E-02  3.15723122E-01
  1.23479164E-02  4.55670788E-03 -4.17155214E-03  6.50095930E-02  6.99914995E-03
  1.69082993E-02 -7.62495444E-04 -7.99907052E-02  1.68686390E-01 -4.41736376E-02
 -1.79650803E-01 -9.91132952E-03  1.32356874E-01 -4.35243270E-03 -1.39795801E-02
  1.08057564E-03 -1.93593801E-03  2.92061454E-02 -6.91032863E-03 -7.41052841E-03
  9.82052195E-02  3.48497230E-03  9.06008029E-02  2.97073713E-03  9.89559835E-02
  4.58846486E-03  1.36381921E-02 -3.04855163E-02 -1.38675012E-01 -1.21965346E-02
 -2.27082724E-02 -3.92728185E-02 -5.84353460E-02 -6.73742418E-03 -1.32173550E-02
  8.18896849E-04  2.40825042E-02  1.57998052E-03  6.11658965E-03  4.79207380E-02
 -1.09960829E-01 -2.29957616E-02 -4.22819030E-03  5.12455510E-03 -1.23188428E-01
 -9.20663033E-03 -1.28688932E-04  9.05515994E-04 -2.01930558E-02 -5.36007119E-03
  1.39508260E-02  1.54957999E-03  7.75515787E-02 -1.50925061E-01  1.40900865E-02
 -3.55633570E-03  2.54249667E-02 -1.47864620E-01 -2.58214944E-04 -3.45874609E-03
 -1.23998301E-03 -5.22287455E-02  1.65362498E-02  8.51017697E-07  9.07352775E-03
 -4.48930647E-02 -6.36366326E-04 -4.95102359E-02 -7.72171860E-03 -4.19416858E-02
 -2.54551695E-04 -9.11036517E-02  1.70762562E-01 -1.25347032E-02 -8.13533446E-05
  1.25086983E-02  1.92145376E-01 -6.78038146E-03  5.46072745E-03  5.15661743E-03
  9.92456717E-02  1.41402682E-02  1.79865075E-02 -6.26706456E-03  1.96826984E-02
 -4.75481857E-02 -1.51697942E-01 -2.12707896E-02  8.21926087E-02 -3.95485367E-02
 -1.10392284E-03 -1.41128574E-02  9.27731694E-03 -1.47770405E-01 -2.78238932E-05
  2.50050128E-02  8.84976072E-04  5.79900608E-02  4.21580737E-03  6.70239423E-02
  5.71130091E-03  6.43202210E-02  1.31283153E-02  4.78075348E-02 -1.08248487E-01
  1.95162995E-01 -4.81611978E-02  4.01654182E-02 -1.56197202E-01  8.84451511E-02
 -2.19184711E-02  8.39192357E-03 -3.50703479E-02 -2.96881994E-02  3.22714862E-03
 -1.17303187E-02 -8.28830318E-03  1.72751190E-02 -3.59185908E-02 -7.36743354E-03
  2.26094989E-02  2.99449955E-02 -1.27345741E-02 -7.93496072E-03  8.16116552E-03
  2.21301242E-02 -3.01583913E-03 -6.32740424E-03 -6.62160486E-04 -1.60503532E-01
  3.12807550E-01  2.86519278E-02 -1.06154776E-02  8.94728617E-03  3.42758466E-01
  7.66827671E-04 -2.64546085E-03  9.03683332E-03  7.05456746E-02 -1.98511270E-02