 Entering Gaussian System, Link 0=/opt/cluster/programs/g09_d.01/g09//g09
 Input=/home/unibas/boittier/RDKit_G2/O.pdb/SCAN_1_2_6_8_S_17_20.0/13_SCAN_1_2_6_8_F/13_SCAN_O.pdb.com
 Output=/scratch/boittier/13_SCAN_O.pdb/13_SCAN_O.pdb.out
 Initial command:
 /opt/cluster/programs/g09_d.01/g09/l1.exe "/scratch/boittier/13_SCAN_O.pdb/Gau-144694.inp" -scrdir="/scratch/boittier/13_SCAN_O.pdb/"
 Entering Link 1 = /opt/cluster/programs/g09_d.01/g09/l1.exe PID=    144695.
  
 Copyright (c) 1988,1990,1992,1993,1995,1998,2003,2009,2013,
            Gaussian, Inc.  All Rights Reserved.
  
 This is part of the Gaussian(R) 09 program.  It is based on
 the Gaussian(R) 03 system (copyright 2003, Gaussian, Inc.),
 the Gaussian(R) 98 system (copyright 1998, Gaussian, Inc.),
 the Gaussian(R) 94 system (copyright 1995, Gaussian, Inc.),
 the Gaussian 92(TM) system (copyright 1992, Gaussian, Inc.),
 the Gaussian 90(TM) system (copyright 1990, Gaussian, Inc.),
 the Gaussian 88(TM) system (copyright 1988, Gaussian, Inc.),
 the Gaussian 86(TM) system (copyright 1986, Carnegie Mellon
 University), and the Gaussian 82(TM) system (copyright 1983,
 Carnegie Mellon University). Gaussian is a federally registered
 trademark of Gaussian, Inc.
  
 This software contains proprietary and confidential information,
 including trade secrets, belonging to Gaussian, Inc.
  
 This software is provided under written license and may be
 used, copied, transmitted, or stored only in accord with that
 written license.
  
 The following legend is applicable only to US Government
 contracts under FAR:
  
                    RESTRICTED RIGHTS LEGEND
  
 Use, reproduction and disclosure by the US Government is
 subject to restrictions as set forth in subparagraphs (a)
 and (c) of the Commercial Computer Software - Restricted
 Rights clause in FAR 52.227-19.
  
 Gaussian, Inc.
 340 Quinnipiac St., Bldg. 40, Wallingford CT 06492
  
  
 ---------------------------------------------------------------
 Warning -- This program may not be used in any manner that
 competes with the business of Gaussian, Inc. or will provide
 assistance to any competitor of Gaussian, Inc.  The licensee
 of this program is prohibited from giving any competitor of
 Gaussian, Inc. access to this program.  By using this program,
 the user acknowledges that Gaussian, Inc. is engaged in the
 business of creating and licensing software in the field of
 computational chemistry and represents and warrants to the
 licensee that it is not a competitor of Gaussian, Inc. and that
 it will not use this program in any manner prohibited above.
 ---------------------------------------------------------------
  

 Cite this work as:
 Gaussian 09, Revision D.01,
 M. J. Frisch, G. W. Trucks, H. B. Schlegel, G. E. Scuseria, 
 M. A. Robb, J. R. Cheeseman, G. Scalmani, V. Barone, B. Mennucci, 
 G. A. Petersson, H. Nakatsuji, M. Caricato, X. Li, H. P. Hratchian, 
 A. F. Izmaylov, J. Bloino, G. Zheng, J. L. Sonnenberg, M. Hada, 
 M. Ehara, K. Toyota, R. Fukuda, J. Hasegawa, M. Ishida, T. Nakajima, 
 Y. Honda, O. Kitao, H. Nakai, T. Vreven, J. A. Montgomery, Jr., 
 J. E. Peralta, F. Ogliaro, M. Bearpark, J. J. Heyd, E. Brothers, 
 K. N. Kudin, V. N. Staroverov, T. Keith, R. Kobayashi, J. Normand, 
 K. Raghavachari, A. Rendell, J. C. Burant, S. S. Iyengar, J. Tomasi, 
 M. Cossi, N. Rega, J. M. Millam, M. Klene, J. E. Knox, J. B. Cross, 
 V. Bakken, C. Adamo, J. Jaramillo, R. Gomperts, R. E. Stratmann, 
 O. Yazyev, A. J. Austin, R. Cammi, C. Pomelli, J. W. Ochterski, 
 R. L. Martin, K. Morokuma, V. G. Zakrzewski, G. A. Voth, 
 P. Salvador, J. J. Dannenberg, S. Dapprich, A. D. Daniels, 
 O. Farkas, J. B. Foresman, J. V. Ortiz, J. Cioslowski, 
 and D. J. Fox, Gaussian, Inc., Wallingford CT, 2013.
 
 ******************************************
 Gaussian 09:  ES64L-G09RevD.01 24-Apr-2013
                26-May-2021 
 ******************************************
 %chk=/home/unibas/boittier/RDKit_G2/O.pdb/SCAN_1_2_6_8_S_17_20.0/13_SCAN_1_2_6_8
 _F/O.pdb.chk
 %nproc=8
 Will use up to    8 processors via shared memory.
 %mem=16GB
 -----------------------------
 #p wB97XD/6-31+G Opt=ModRedun
 -----------------------------
 1/14=-1,18=120,19=15,26=3,38=1/1,3;
 2/9=110,12=2,17=6,18=5,40=1/2;
 3/5=1,6=6,7=10,11=2,16=1,25=1,30=1,71=1,74=-58/1,2,3;
 4//1;
 5/5=2,38=5/2;
 6/7=2,8=2,9=2,10=2,28=1/1;
 7//1,2,3,16;
 1/14=-1,18=20,19=15,26=3/3(2);
 2/9=110/2;
 99//99;
 2/9=110/2;
 3/5=1,6=6,7=10,11=2,16=1,25=1,30=1,71=1,74=-58/1,2,3;
 4/5=5,16=3,69=1/1;
 5/5=2,38=5/2;
 7//1,2,3,16;
 1/14=-1,18=20,19=15,26=3/3(-5);
 2/9=110/2;
 6/7=2,8=2,9=2,10=2,19=2,28=1/1;
 99/9=1/99;
 Leave Link    1 at Wed May 26 09:01:16 2021, MaxMem=  2147483648 cpu:         0.2
 (Enter /opt/cluster/programs/g09_d.01/g09/l101.exe)
 -----
 O.pdb
 -----
 Symbolic Z-matrix:
 Charge =  0 Multiplicity = 1
 C                     1.17687  -1.15711   0.04266 
 C                     0.55516   0.20612  -0.06007 
 H                     0.53407  -1.84525   0.60017 
 H                     2.14918  -1.08888   0.52986 
 H                     1.29963  -1.56748  -0.96497 
 O                    -0.73507   0.21312  -0.58586 
 O                     1.12685   1.25665   0.18951 
 C                    -1.85096  -0.14524   0.2812 
 H                    -1.73449  -1.15953   0.67852 
 H                    -2.73317  -0.09703  -0.35275 
 H                    -1.9359    0.57737   1.0973 
 
 The following ModRedundant input section has been read:
 D       1       2       6       8 F                                           
 
 NAtoms=     11 NQM=       11 NQMF=       0 NMMI=      0 NMMIF=      0
                NMic=       0 NMicF=      0.
                    Isotopes and Nuclear Properties:
 (Nuclear quadrupole moments (NQMom) in fm**2, nuclear magnetic moments (NMagM)
  in nuclear magnetons)

  Atom         1           2           3           4           5           6           7           8           9          10
 IAtWgt=          12          12           1           1           1          16          16          12           1           1
 AtmWgt=  12.0000000  12.0000000   1.0078250   1.0078250   1.0078250  15.9949146  15.9949146  12.0000000   1.0078250   1.0078250
 NucSpn=           0           0           1           1           1           0           0           0           1           1
 AtZEff=   0.0000000   0.0000000   0.0000000   0.0000000   0.0000000   0.0000000   0.0000000   0.0000000   0.0000000   0.0000000
 NQMom=    0.0000000   0.0000000   0.0000000   0.0000000   0.0000000   0.0000000   0.0000000   0.0000000   0.0000000   0.0000000
 NMagM=    0.0000000   0.0000000   2.7928460   2.7928460   2.7928460   0.0000000   0.0000000   0.0000000   2.7928460   2.7928460
 AtZNuc=   6.0000000   6.0000000   1.0000000   1.0000000   1.0000000   8.0000000   8.0000000   6.0000000   1.0000000   1.0000000

  Atom        11
 IAtWgt=           1
 AtmWgt=   1.0078250
 NucSpn=           1
 AtZEff=   0.0000000
 NQMom=    0.0000000
 NMagM=    2.7928460
 AtZNuc=   1.0000000
 Leave Link  101 at Wed May 26 09:01:17 2021, MaxMem=  2147483648 cpu:         4.2
 (Enter /opt/cluster/programs/g09_d.01/g09/l103.exe)

 GradGradGradGradGradGradGradGradGradGradGradGradGradGradGradGradGradGrad
 Berny optimization.
 Initialization pass.
                           ----------------------------
                           !    Initial Parameters    !
                           ! (Angstroms and Degrees)  !
 --------------------------                            --------------------------
 ! Name  Definition              Value          Derivative Info.                !
 --------------------------------------------------------------------------------
 ! R1    R(1,2)                  1.5018         estimate D2E/DX2                !
 ! R2    R(1,3)                  1.0943         estimate D2E/DX2                !
 ! R3    R(1,4)                  1.0897         estimate D2E/DX2                !
 ! R4    R(1,5)                  1.0949         estimate D2E/DX2                !
 ! R5    R(2,6)                  1.3933         estimate D2E/DX2                !
 ! R6    R(2,7)                  1.2218         estimate D2E/DX2                !
 ! R7    R(6,8)                  1.4579         estimate D2E/DX2                !
 ! R8    R(8,9)                  1.0956         estimate D2E/DX2                !
 ! R9    R(8,10)                 1.0874         estimate D2E/DX2                !
 ! R10   R(8,11)                 1.0933         estimate D2E/DX2                !
 ! A1    A(2,1,3)              111.2523         estimate D2E/DX2                !
 ! A2    A(2,1,4)              110.068          estimate D2E/DX2                !
 ! A3    A(2,1,5)              108.8855         estimate D2E/DX2                !
 ! A4    A(3,1,4)              109.6164         estimate D2E/DX2                !
 ! A5    A(3,1,5)              107.399          estimate D2E/DX2                !
 ! A6    A(4,1,5)              109.5658         estimate D2E/DX2                !
 ! A7    A(1,2,6)              114.4394         estimate D2E/DX2                !
 ! A8    A(1,2,7)              124.9464         estimate D2E/DX2                !
 ! A9    A(6,2,7)              120.4035         estimate D2E/DX2                !
 ! A10   A(2,6,8)              118.8903         estimate D2E/DX2                !
 ! A11   A(6,8,9)              111.2167         estimate D2E/DX2                !
 ! A12   A(6,8,10)             105.269          estimate D2E/DX2                !
 ! A13   A(6,8,11)             109.9341         estimate D2E/DX2                !
 ! A14   A(9,8,10)             109.7992         estimate D2E/DX2                !
 ! A15   A(9,8,11)             110.4534         estimate D2E/DX2                !
 ! A16   A(10,8,11)            110.0489         estimate D2E/DX2                !
 ! D1    D(3,1,2,6)            -54.0184         estimate D2E/DX2                !
 ! D2    D(3,1,2,7)            131.264          estimate D2E/DX2                !
 ! D3    D(4,1,2,6)           -175.7259         estimate D2E/DX2                !
 ! D4    D(4,1,2,7)              9.5564         estimate D2E/DX2                !
 ! D5    D(5,1,2,6)             64.1553         estimate D2E/DX2                !
 ! D6    D(5,1,2,7)           -110.5623         estimate D2E/DX2                !
 ! D7    D(1,2,6,8)             79.3854         Frozen                          !
 ! D8    D(7,2,6,8)           -105.6342         estimate D2E/DX2                !
 ! D9    D(2,6,8,9)            -59.4546         estimate D2E/DX2                !
 ! D10   D(2,6,8,10)          -178.3116         estimate D2E/DX2                !
 ! D11   D(2,6,8,11)            63.1974         estimate D2E/DX2                !
 --------------------------------------------------------------------------------
 Trust Radius=3.00D-01 FncErr=1.00D-07 GrdErr=1.00D-06
 Number of steps in this run=     47 maximum allowed number of steps=    100.
 GradGradGradGradGradGradGradGradGradGradGradGradGradGradGradGradGradGrad

 Leave Link  103 at Wed May 26 09:01:17 2021, MaxMem=  2147483648 cpu:         0.1
 (Enter /opt/cluster/programs/g09_d.01/g09/l202.exe)
                          Input orientation:                          
 ---------------------------------------------------------------------
 Center     Atomic      Atomic             Coordinates (Angstroms)
 Number     Number       Type             X           Y           Z
 ---------------------------------------------------------------------
      1          6           0        1.176872   -1.157108    0.042660
      2          6           0        0.555157    0.206120   -0.060071
      3          1           0        0.534068   -1.845246    0.600167
      4          1           0        2.149175   -1.088884    0.529855
      5          1           0        1.299634   -1.567479   -0.964972
      6          8           0       -0.735066    0.213117   -0.585864
      7          8           0        1.126850    1.256653    0.189511
      8          6           0       -1.850961   -0.145238    0.281195
      9          1           0       -1.734491   -1.159535    0.678522
     10          1           0       -2.733167   -0.097028   -0.352753
     11          1           0       -1.935904    0.577368    1.097298
 ---------------------------------------------------------------------
                    Distance matrix (angstroms):
                    1          2          3          4          5
     1  C    0.000000
     2  C    1.501823   0.000000
     3  H    1.094324   2.155101   0.000000
     4  H    1.089673   2.136806   1.784824   0.000000
     5  H    1.094896   2.125734   1.764343   1.784736   0.000000
     6  O    2.434762   1.393263   2.693368   3.355426   2.730247
     7  O    2.418741   1.221779   3.184620   2.581187   3.055881
     8  C    3.201336   2.455467   2.946207   4.117449   3.674500
     9  H    2.979993   2.766409   2.371223   3.887153   3.474681
    10  H    4.070445   3.315213   3.826114   5.059648   4.335957
    11  H    3.716187   2.771771   3.495277   4.448175   4.395683
                    6          7          8          9         10
     6  O    0.000000
     7  O    2.270882   0.000000
     8  C    1.457886   3.292577   0.000000
     9  H    2.117002   3.776820   1.095551   0.000000
    10  H    2.035421   4.126286   1.087429   1.786002   0.000000
    11  H    2.099458   3.265879   1.093343   1.797991   1.786921
                   11
    11  H    0.000000
 Stoichiometry    C3H6O2
 Framework group  C1[X(C3H6O2)]
 Deg. of freedom    27
 Full point group                 C1      NOp   1
 Largest Abelian subgroup         C1      NOp   1
 Largest concise Abelian subgroup C1      NOp   1
                         Standard orientation:                         
 ---------------------------------------------------------------------
 Center     Atomic      Atomic             Coordinates (Angstroms)
 Number     Number       Type             X           Y           Z
 ---------------------------------------------------------------------
      1          6           0        1.176872    1.157108   -0.042660
      2          6           0        0.555157   -0.206120    0.060071
      3          1           0        0.534068    1.845246   -0.600167
      4          1           0        2.149175    1.088885   -0.529855
      5          1           0        1.299634    1.567479    0.964972
      6          8           0       -0.735066   -0.213117    0.585864
      7          8           0        1.126850   -1.256653   -0.189511
      8          6           0       -1.850961    0.145238   -0.281195
      9          1           0       -1.734491    1.159535   -0.678522
     10          1           0       -2.733167    0.097027    0.352753
     11          1           0       -1.935904   -0.577369   -1.097298
 ---------------------------------------------------------------------
 Rotational constants (GHZ):      8.2332904      4.1429707      3.1081140
 Leave Link  202 at Wed May 26 09:01:17 2021, MaxMem=  2147483648 cpu:         0.0
 (Enter /opt/cluster/programs/g09_d.01/g09/l301.exe)
 Standard basis: 6-31+G (6D, 7F)
 Ernie: Thresh=  0.10000D-02 Tol=  0.10000D-05 Strict=F.
 There are    77 symmetry adapted cartesian basis functions of A   symmetry.
 There are    77 symmetry adapted basis functions of A   symmetry.
    77 basis functions,   154 primitive gaussians,    77 cartesian basis functions
    20 alpha electrons       20 beta electrons
       nuclear repulsion energy       178.2780516768 Hartrees.
 IExCor= 4639 DFT=T Ex+Corr=wB97XD ExCW=0 ScaHFX=  1.000000
 ScaDFX=  1.000000  1.000000  1.000000  1.000000 ScalE2=  1.000000  1.000000
 IRadAn=      0 IRanWt=     -1 IRanGd=            0 ICorTp=0 IEmpDi=121
  HFx wShort=  0.000000 wLong=  0.200000 cFull=  0.222036 cShort=  0.000000 cLong=  0.777964
  DFx wShort=  0.000000 wLong=  0.200000 cFull=  0.000000 cShort=  0.000000 cLong=  1.000000
 NAtoms=   11 NActive=   11 NUniq=   11 SFac= 1.00D+00 NAtFMM=   60 NAOKFM=F Big=F
 Integral buffers will be    131072 words long.
 Raffenetti 2 integral format.
 Two-electron integral symmetry is turned on.
 R6Disp:  Grimme-D2 Dispersion energy=       -0.0036000738 Hartrees.
 Nuclear repulsion after empirical dispersion term =      178.2744516030 Hartrees.
 Leave Link  301 at Wed May 26 09:01:17 2021, MaxMem=  2147483648 cpu:         0.3
 (Enter /opt/cluster/programs/g09_d.01/g09/l302.exe)
 NPDir=0 NMtPBC=     1 NCelOv=     1 NCel=       1 NClECP=     1 NCelD=      1
         NCelK=      1 NCelE2=     1 NClLst=     1 CellRange=     0.0.
 One-electron integrals computed using PRISM.
 NBasis=    77 RedAO= T EigKep=  1.94D-04  NBF=    77
 NBsUse=    77 1.00D-06 EigRej= -1.00D+00 NBFU=    77
 Precomputing XC quadrature grid using
 IXCGrd= 4 IRadAn=           0 IRanWt=          -1 IRanGd=           0 AccXCQ= 0.00D+00.
 Generated NRdTot=       0 NPtTot=           0 NUsed=           0 NTot=          32
 NSgBfM=    77    77    77    77    77 MxSgAt=    11 MxSgA2=    11.
 Leave Link  302 at Wed May 26 09:01:17 2021, MaxMem=  2147483648 cpu:         0.9
 (Enter /opt/cluster/programs/g09_d.01/g09/l303.exe)
 DipDrv:  MaxL=1.
 Leave Link  303 at Wed May 26 09:01:17 2021, MaxMem=  2147483648 cpu:         0.2
 (Enter /opt/cluster/programs/g09_d.01/g09/l401.exe)
 ExpMin= 4.38D-02 ExpMax= 5.48D+03 ExpMxC= 8.25D+02 IAcc=2 IRadAn=         4 AccDes= 0.00D+00
 Harris functional with IExCor= 4639 and IRadAn=       4 diagonalized for initial guess.
 HarFok:  IExCor= 4639 AccDes= 0.00D+00 IRadAn=         4 IDoV= 1 UseB2=F ITyADJ=14
 ICtDFT=  3500011 ScaDFX=  1.000000  1.000000  1.000000  1.000000
 FoFCou: FMM=F IPFlag=           0 FMFlag=      100000 FMFlg1=           0
         NFxFlg=           0 DoJE=T BraDBF=F KetDBF=T FulRan=T
         wScrn=  0.000000 ICntrl=     500 IOpCl=  0 I1Cent=   200000004 NGrid=           0
         NMat0=    1 NMatS0=      1 NMatT0=    0 NMatD0=    1 NMtDS0=    0 NMtDT0=    0
 Petite list used in FoFCou.
 Harris En= -257.353015569563    
 JPrj=0 DoOrth=F DoCkMO=F.
 Leave Link  401 at Wed May 26 09:01:17 2021, MaxMem=  2147483648 cpu:         1.4
 (Enter /opt/cluster/programs/g09_d.01/g09/l502.exe)
 Closed shell SCF:
 Using DIIS extrapolation, IDIIS=  1040.
 Integral symmetry usage will be decided dynamically.
 Keep R1 ints in memory in canonical form, NReq=9956864.
 IVT=       37546 IEndB=       37546 NGot=  2147483648 MDV=  2138425091
 LenX=  2138425091 LenY=  2138418721
 Requested convergence on RMS density matrix=1.00D-08 within 128 cycles.
 Requested convergence on MAX density matrix=1.00D-06.
 Requested convergence on             energy=1.00D-06.
 No special actions if energy rises.
 FoFCou: FMM=F IPFlag=           0 FMFlag=           0 FMFlg1=           0
         NFxFlg=           0 DoJE=F BraDBF=F KetDBF=F FulRan=T
         wScrn=  0.000000 ICntrl=     600 IOpCl=  0 I1Cent=           0 NGrid=           0
         NMat0=    1 NMatS0=   3003 NMatT0=    0 NMatD0=    1 NMtDS0=    0 NMtDT0=    0
 Symmetry not used in FoFCou.

 Cycle   1  Pass 1  IDiag  1:
 E= -268.112666022237    
 DIIS: error= 2.27D-02 at cycle   1 NSaved=   1.
 NSaved= 1 IEnMin= 1 EnMin= -268.112666022237     IErMin= 1 ErrMin= 2.27D-02
 ErrMax= 2.27D-02  0.00D+00 EMaxC= 1.00D-01 BMatC= 1.35D-01 BMatP= 1.35D-01
 IDIUse=3 WtCom= 7.73D-01 WtEn= 2.27D-01
 Coeff-Com:  0.100D+01
 Coeff-En:   0.100D+01
 Coeff:      0.100D+01
 Gap=     0.531 Goal=   None    Shift=    0.000
 GapD=    0.531 DampG=2.000 DampE=0.500 DampFc=1.0000 IDamp=-1.
 RMSDP=9.49D-03 MaxDP=1.76D-01              OVMax= 9.14D-02

 Cycle   2  Pass 1  IDiag  1:
 E= -268.140291220718     Delta-E=       -0.027625198481 Rises=F Damp=F
 DIIS: error= 2.52D-02 at cycle   2 NSaved=   2.
 NSaved= 2 IEnMin= 2 EnMin= -268.140291220718     IErMin= 1 ErrMin= 2.27D-02
 ErrMax= 2.52D-02  0.00D+00 EMaxC= 1.00D-01 BMatC= 7.45D-02 BMatP= 1.35D-01
 IDIUse=3 WtCom= 7.48D-01 WtEn= 2.52D-01
 Coeff-Com:  0.414D+00 0.586D+00
 Coeff-En:   0.383D+00 0.617D+00
 Coeff:      0.406D+00 0.594D+00
 Gap=     0.419 Goal=   None    Shift=    0.000
 RMSDP=4.38D-03 MaxDP=6.88D-02 DE=-2.76D-02 OVMax= 5.78D-02

 Cycle   3  Pass 1  IDiag  1:
 E= -268.193356153467     Delta-E=       -0.053064932749 Rises=F Damp=F
 DIIS: error= 9.46D-03 at cycle   3 NSaved=   3.
 NSaved= 3 IEnMin= 3 EnMin= -268.193356153467     IErMin= 3 ErrMin= 9.46D-03
 ErrMax= 9.46D-03  0.00D+00 EMaxC= 1.00D-01 BMatC= 8.30D-03 BMatP= 7.45D-02
 IDIUse=3 WtCom= 9.05D-01 WtEn= 9.46D-02
 Coeff-Com:  0.835D-01 0.268D+00 0.648D+00
 Coeff-En:   0.000D+00 0.000D+00 0.100D+01
 Coeff:      0.756D-01 0.243D+00 0.682D+00
 Gap=     0.429 Goal=   None    Shift=    0.000
 RMSDP=1.46D-03 MaxDP=2.10D-02 DE=-5.31D-02 OVMax= 2.89D-02

 Cycle   4  Pass 1  IDiag  1:
 E= -268.198378917064     Delta-E=       -0.005022763597 Rises=F Damp=F
 DIIS: error= 4.16D-03 at cycle   4 NSaved=   4.
 NSaved= 4 IEnMin= 4 EnMin= -268.198378917064     IErMin= 4 ErrMin= 4.16D-03
 ErrMax= 4.16D-03  0.00D+00 EMaxC= 1.00D-01 BMatC= 1.54D-03 BMatP= 8.30D-03
 IDIUse=3 WtCom= 9.58D-01 WtEn= 4.16D-02
 Coeff-Com: -0.326D-02 0.609D-01 0.363D+00 0.580D+00
 Coeff-En:   0.000D+00 0.000D+00 0.127D+00 0.873D+00
 Coeff:     -0.312D-02 0.583D-01 0.353D+00 0.592D+00
 Gap=     0.409 Goal=   None    Shift=    0.000
 RMSDP=7.51D-04 MaxDP=1.11D-02 DE=-5.02D-03 OVMax= 1.07D-02

 Cycle   5  Pass 1  IDiag  1:
 E= -268.199466306802     Delta-E=       -0.001087389738 Rises=F Damp=F
 DIIS: error= 1.05D-03 at cycle   5 NSaved=   5.
 NSaved= 5 IEnMin= 5 EnMin= -268.199466306802     IErMin= 5 ErrMin= 1.05D-03
 ErrMax= 1.05D-03  0.00D+00 EMaxC= 1.00D-01 BMatC= 9.93D-05 BMatP= 1.54D-03
 IDIUse=3 WtCom= 9.89D-01 WtEn= 1.05D-02
 Coeff-Com: -0.533D-02 0.154D-01 0.154D+00 0.324D+00 0.512D+00
 Coeff-En:   0.000D+00 0.000D+00 0.000D+00 0.000D+00 0.100D+01
 Coeff:     -0.527D-02 0.153D-01 0.152D+00 0.321D+00 0.517D+00
 Gap=     0.406 Goal=   None    Shift=    0.000
 RMSDP=1.41D-04 MaxDP=2.28D-03 DE=-1.09D-03 OVMax= 2.59D-03

 Cycle   6  Pass 1  IDiag  1:
 E= -268.199545038800     Delta-E=       -0.000078731998 Rises=F Damp=F
 DIIS: error= 1.18D-04 at cycle   6 NSaved=   6.
 NSaved= 6 IEnMin= 6 EnMin= -268.199545038800     IErMin= 6 ErrMin= 1.18D-04
 ErrMax= 1.18D-04  0.00D+00 EMaxC= 1.00D-01 BMatC= 2.55D-06 BMatP= 9.93D-05
 IDIUse=3 WtCom= 9.99D-01 WtEn= 1.18D-03
 Coeff-Com: -0.388D-03-0.793D-02-0.263D-01-0.300D-01 0.889D-01 0.976D+00
 Coeff-En:   0.000D+00 0.000D+00 0.000D+00 0.000D+00 0.000D+00 0.100D+01
 Coeff:     -0.387D-03-0.792D-02-0.263D-01-0.299D-01 0.888D-01 0.976D+00
 Gap=     0.406 Goal=   None    Shift=    0.000
 RMSDP=1.43D-04 MaxDP=2.94D-03 DE=-7.87D-05 OVMax= 7.21D-04

 Cycle   7  Pass 1  IDiag  1:
 E= -268.199548847816     Delta-E=       -0.000003809016 Rises=F Damp=F
 DIIS: error= 3.89D-05 at cycle   7 NSaved=   7.
 NSaved= 7 IEnMin= 7 EnMin= -268.199548847816     IErMin= 7 ErrMin= 3.89D-05
 ErrMax= 3.89D-05  0.00D+00 EMaxC= 1.00D-01 BMatC= 2.13D-07 BMatP= 2.55D-06
 IDIUse=1 WtCom= 1.00D+00 WtEn= 0.00D+00
 Coeff-Com:  0.368D-03-0.376D-02-0.197D-01-0.342D-01-0.437D-03 0.300D+00
 Coeff-Com:  0.757D+00
 Coeff:      0.368D-03-0.376D-02-0.197D-01-0.342D-01-0.437D-03 0.300D+00
 Coeff:      0.757D+00
 Gap=     0.406 Goal=   None    Shift=    0.000
 RMSDP=2.50D-05 MaxDP=4.55D-04 DE=-3.81D-06 OVMax= 1.77D-04

 Cycle   8  Pass 1  IDiag  1:
 E= -268.199549178553     Delta-E=       -0.000000330737 Rises=F Damp=F
 DIIS: error= 9.88D-06 at cycle   8 NSaved=   8.
 NSaved= 8 IEnMin= 8 EnMin= -268.199549178553     IErMin= 8 ErrMin= 9.88D-06
 ErrMax= 9.88D-06  0.00D+00 EMaxC= 1.00D-01 BMatC= 1.16D-08 BMatP= 2.13D-07
 IDIUse=1 WtCom= 1.00D+00 WtEn= 0.00D+00
 Coeff-Com:  0.690D-05 0.695D-03 0.238D-02 0.215D-02-0.359D-02-0.974D-01
 Coeff-Com: -0.367D-02 0.110D+01
 Coeff:      0.690D-05 0.695D-03 0.238D-02 0.215D-02-0.359D-02-0.974D-01
 Coeff:     -0.367D-02 0.110D+01
 Gap=     0.406 Goal=   None    Shift=    0.000
 RMSDP=6.96D-06 MaxDP=6.52D-05 DE=-3.31D-07 OVMax= 8.97D-05

 Cycle   9  Pass 1  IDiag  1:
 E= -268.199549207409     Delta-E=       -0.000000028855 Rises=F Damp=F
 DIIS: error= 2.01D-06 at cycle   9 NSaved=   9.
 NSaved= 9 IEnMin= 9 EnMin= -268.199549207409     IErMin= 9 ErrMin= 2.01D-06
 ErrMax= 2.01D-06  0.00D+00 EMaxC= 1.00D-01 BMatC= 3.78D-10 BMatP= 1.16D-08
 IDIUse=1 WtCom= 1.00D+00 WtEn= 0.00D+00
 Coeff-Com: -0.155D-04 0.151D-03 0.863D-03 0.152D-02 0.125D-02-0.920D-02
 Coeff-Com: -0.357D-01-0.730D-01 0.111D+01
 Coeff:     -0.155D-04 0.151D-03 0.863D-03 0.152D-02 0.125D-02-0.920D-02
 Coeff:     -0.357D-01-0.730D-01 0.111D+01
 Gap=     0.406 Goal=   None    Shift=    0.000
 RMSDP=2.16D-06 MaxDP=3.57D-05 DE=-2.89D-08 OVMax= 2.77D-05

 Cycle  10  Pass 1  IDiag  1:
 E= -268.199549208772     Delta-E=       -0.000000001363 Rises=F Damp=F
 DIIS: error= 6.89D-07 at cycle  10 NSaved=  10.
 NSaved=10 IEnMin=10 EnMin= -268.199549208772     IErMin=10 ErrMin= 6.89D-07
 ErrMax= 6.89D-07  0.00D+00 EMaxC= 1.00D-01 BMatC= 2.54D-11 BMatP= 3.78D-10
 IDIUse=1 WtCom= 1.00D+00 WtEn= 0.00D+00
 Coeff-Com:  0.430D-07-0.360D-04-0.128D-03-0.144D-03 0.345D-03 0.499D-02
 Coeff-Com:  0.383D-04-0.540D-01-0.155D-03 0.105D+01
 Coeff:      0.430D-07-0.360D-04-0.128D-03-0.144D-03 0.345D-03 0.499D-02
 Coeff:      0.383D-04-0.540D-01-0.155D-03 0.105D+01
 Gap=     0.406 Goal=   None    Shift=    0.000
 RMSDP=5.65D-07 MaxDP=1.05D-05 DE=-1.36D-09 OVMax= 8.78D-06

 Cycle  11  Pass 1  IDiag  1:
 E= -268.199549208870     Delta-E=       -0.000000000098 Rises=F Damp=F
 DIIS: error= 2.51D-07 at cycle  11 NSaved=  11.
 NSaved=11 IEnMin=11 EnMin= -268.199549208870     IErMin=11 ErrMin= 2.51D-07
 ErrMax= 2.51D-07  0.00D+00 EMaxC= 1.00D-01 BMatC= 5.24D-12 BMatP= 2.54D-11
 IDIUse=1 WtCom= 1.00D+00 WtEn= 0.00D+00
 Coeff-Com:  0.150D-05-0.271D-04-0.131D-03-0.209D-03-0.316D-04 0.250D-02
 Coeff-Com:  0.365D-02-0.858D-02-0.120D+00 0.332D+00 0.791D+00
 Coeff:      0.150D-05-0.271D-04-0.131D-03-0.209D-03-0.316D-04 0.250D-02
 Coeff:      0.365D-02-0.858D-02-0.120D+00 0.332D+00 0.791D+00
 Gap=     0.406 Goal=   None    Shift=    0.000
 RMSDP=1.14D-07 MaxDP=1.62D-06 DE=-9.82D-11 OVMax= 2.96D-06

 Cycle  12  Pass 1  IDiag  1:
 E= -268.199549208881     Delta-E=       -0.000000000011 Rises=F Damp=F
 DIIS: error= 1.02D-07 at cycle  12 NSaved=  12.
 NSaved=12 IEnMin=12 EnMin= -268.199549208881     IErMin=12 ErrMin= 1.02D-07
 ErrMax= 1.02D-07  0.00D+00 EMaxC= 1.00D-01 BMatC= 3.66D-13 BMatP= 5.24D-12
 IDIUse=1 WtCom= 1.00D+00 WtEn= 0.00D+00
 Coeff-Com: -0.136D-06 0.696D-05 0.269D-04 0.340D-04-0.711D-04-0.877D-03
 Coeff-Com: -0.348D-03 0.826D-02 0.985D-02-0.176D+00-0.693D-01 0.123D+01
 Coeff:     -0.136D-06 0.696D-05 0.269D-04 0.340D-04-0.711D-04-0.877D-03
 Coeff:     -0.348D-03 0.826D-02 0.985D-02-0.176D+00-0.693D-01 0.123D+01
 Gap=     0.406 Goal=   None    Shift=    0.000
 RMSDP=3.99D-08 MaxDP=5.02D-07 DE=-1.10D-11 OVMax= 1.67D-06

 Cycle  13  Pass 1  IDiag  1:
 E= -268.199549208884     Delta-E=       -0.000000000003 Rises=F Damp=F
 DIIS: error= 1.22D-08 at cycle  13 NSaved=  13.
 NSaved=13 IEnMin=13 EnMin= -268.199549208884     IErMin=13 ErrMin= 1.22D-08
 ErrMax= 1.22D-08  0.00D+00 EMaxC= 1.00D-01 BMatC= 1.27D-14 BMatP= 3.66D-13
 IDIUse=1 WtCom= 1.00D+00 WtEn= 0.00D+00
 Coeff-Com: -0.426D-07-0.989D-07 0.136D-05 0.419D-05 0.105D-04 0.716D-04
 Coeff-Com: -0.981D-04-0.122D-02 0.360D-02 0.192D-01-0.214D-01-0.241D+00
 Coeff-Com:  0.124D+01
 Coeff:     -0.426D-07-0.989D-07 0.136D-05 0.419D-05 0.105D-04 0.716D-04
 Coeff:     -0.981D-04-0.122D-02 0.360D-02 0.192D-01-0.214D-01-0.241D+00
 Coeff:      0.124D+01
 Gap=     0.406 Goal=   None    Shift=    0.000
 RMSDP=1.17D-08 MaxDP=1.85D-07 DE=-3.41D-12 OVMax= 2.43D-07

 Cycle  14  Pass 1  IDiag  1:
 E= -268.199549208883     Delta-E=        0.000000000001 Rises=F Damp=F
 DIIS: error= 2.17D-09 at cycle  14 NSaved=  14.
 NSaved=14 IEnMin=13 EnMin= -268.199549208884     IErMin=14 ErrMin= 2.17D-09
 ErrMax= 2.17D-09  0.00D+00 EMaxC= 1.00D-01 BMatC= 3.87D-16 BMatP= 1.27D-14
 IDIUse=1 WtCom= 1.00D+00 WtEn= 0.00D+00
 Coeff-Com:  0.137D-07-0.104D-06-0.918D-06-0.159D-05-0.151D-05 0.183D-05
 Coeff-Com:  0.338D-04 0.963D-04-0.110D-02-0.282D-03 0.709D-02 0.293D-01
 Coeff-Com: -0.322D+00 0.129D+01
 Coeff:      0.137D-07-0.104D-06-0.918D-06-0.159D-05-0.151D-05 0.183D-05
 Coeff:      0.338D-04 0.963D-04-0.110D-02-0.282D-03 0.709D-02 0.293D-01
 Coeff:     -0.322D+00 0.129D+01
 Gap=     0.406 Goal=   None    Shift=    0.000
 RMSDP=1.73D-09 MaxDP=2.24D-08 DE= 9.09D-13 OVMax= 2.99D-08

 SCF Done:  E(RwB97XD) =  -268.199549209     A.U. after   14 cycles
            NFock= 14  Conv=0.17D-08     -V/T= 2.0057
 KE= 2.666692170889D+02 PE=-9.840678194415D+02 EE= 2.709246015407D+02
 Leave Link  502 at Wed May 26 09:01:19 2021, MaxMem=  2147483648 cpu:        15.5
 (Enter /opt/cluster/programs/g09_d.01/g09/l601.exe)
 Copying SCF densities to generalized density rwf, IOpCl= 0 IROHF=0.

 **********************************************************************

            Population analysis using the SCF density.

 **********************************************************************

 Orbital symmetries:
       Occupied  (A) (A) (A) (A) (A) (A) (A) (A) (A) (A) (A) (A)
                 (A) (A) (A) (A) (A) (A) (A) (A)
       Virtual   (A) (A) (A) (A) (A) (A) (A) (A) (A) (A) (A) (A)
                 (A) (A) (A) (A) (A) (A) (A) (A) (A) (A) (A) (A)
                 (A) (A) (A) (A) (A) (A) (A) (A) (A) (A) (A) (A)
                 (A) (A) (A) (A) (A) (A) (A) (A) (A) (A) (A) (A)
                 (A) (A) (A) (A) (A) (A) (A) (A) (A)
 The electronic state is 1-A.
 Alpha  occ. eigenvalues --  -19.30581 -19.28663 -10.45538 -10.36712 -10.31775
 Alpha  occ. eigenvalues --   -1.21492  -1.13825  -0.87412  -0.82639  -0.66700
 Alpha  occ. eigenvalues --   -0.59918  -0.58400  -0.57501  -0.53477  -0.52279
 Alpha  occ. eigenvalues --   -0.50927  -0.47399  -0.42641  -0.38197  -0.36607
 Alpha virt. eigenvalues --    0.04018   0.06558   0.07822   0.09722   0.09911
 Alpha virt. eigenvalues --    0.11430   0.12460   0.12985   0.14681   0.14802
 Alpha virt. eigenvalues --    0.16255   0.17145   0.19523   0.22644   0.23580
 Alpha virt. eigenvalues --    0.26976   0.27634   0.28099   0.29818   0.32631
 Alpha virt. eigenvalues --    0.32841   0.35222   0.36241   0.38021   0.38334
 Alpha virt. eigenvalues --    0.39779   0.40878   0.42607   0.43691   0.46314
 Alpha virt. eigenvalues --    0.56215   0.71362   0.72268   0.74384   0.75864
 Alpha virt. eigenvalues --    0.78857   0.80465   0.87046   0.91072   0.93214
 Alpha virt. eigenvalues --    1.06245   1.09748   1.11257   1.14780   1.16121
 Alpha virt. eigenvalues --    1.20265   1.24555   1.28835   1.33394   1.38859
 Alpha virt. eigenvalues --    1.41473   1.44359   1.47456   1.53516   1.60619
 Alpha virt. eigenvalues --    1.91314   2.00969
          Condensed to atoms (all electrons):
               1          2          3          4          5          6
     1  C    6.597444  -0.322956   0.353404   0.348627   0.357905  -0.465474
     2  C   -0.322956   5.631022  -0.034326  -0.014949  -0.019283   0.196389
     3  H    0.353404  -0.034326   0.497269  -0.024294  -0.023251   0.002756
     4  H    0.348627  -0.014949  -0.024294   0.458275  -0.019878   0.009559
     5  H    0.357905  -0.019283  -0.023251  -0.019878   0.448649   0.000130
     6  O   -0.465474   0.196389   0.002756   0.009559   0.000130   8.790061
     7  O   -0.178714   0.347136   0.004701  -0.001952  -0.000634  -0.186598
     8  C   -0.067470  -0.129894   0.007554   0.000890  -0.000978   0.125309
     9  H    0.005003   0.005710   0.001410  -0.000167   0.000211  -0.050652
    10  H   -0.002554  -0.000816   0.000077   0.000002  -0.000009  -0.051114
    11  H   -0.000263  -0.006209  -0.000205   0.000029  -0.000010  -0.056843
               7          8          9         10         11
     1  C   -0.178714  -0.067470   0.005003  -0.002554  -0.000263
     2  C    0.347136  -0.129894   0.005710  -0.000816  -0.006209
     3  H    0.004701   0.007554   0.001410   0.000077  -0.000205
     4  H   -0.001952   0.000890  -0.000167   0.000002   0.000029
     5  H   -0.000634  -0.000978   0.000211  -0.000009  -0.000010
     6  O   -0.186598   0.125309  -0.050652  -0.051114  -0.056843
     7  O    8.381586  -0.001380  -0.003343  -0.000653   0.009352
     8  C   -0.001380   5.303109   0.367106   0.401673   0.387337
     9  H   -0.003343   0.367106   0.558475  -0.028663  -0.042527
    10  H   -0.000653   0.401673  -0.028663   0.478796  -0.027602
    11  H    0.009352   0.387337  -0.042527  -0.027602   0.518103
 Mulliken charges:
               1
     1  C   -0.624951
     2  C    0.348175
     3  H    0.214907
     4  H    0.243860
     5  H    0.257149
     6  O   -0.313522
     7  O   -0.369499
     8  C   -0.393257
     9  H    0.187436
    10  H    0.230863
    11  H    0.218839
 Sum of Mulliken charges =   0.00000
 Mulliken charges with hydrogens summed into heavy atoms:
               1
     1  C    0.090965
     2  C    0.348175
     6  O   -0.313522
     7  O   -0.369499
     8  C    0.243881
 Electronic spatial extent (au):  <R**2>=            436.3260
 Charge=              0.0000 electrons
 Dipole moment (field-independent basis, Debye):
    X=             -1.6995    Y=              3.6644    Z=             -1.1722  Tot=              4.2060
 Quadrupole moment (field-independent basis, Debye-Ang):
   XX=            -27.3311   YY=            -33.4579   ZZ=            -31.0472
   XY=              3.3071   XZ=              2.5624   YZ=             -0.0424
 Traceless Quadrupole moment (field-independent basis, Debye-Ang):
   XX=              3.2810   YY=             -2.8458   ZZ=             -0.4351
   XY=              3.3071   XZ=              2.5624   YZ=             -0.0424
 Octapole moment (field-independent basis, Debye-Ang**2):
  XXX=            -11.9360  YYY=              4.3967  ZZZ=              0.3600  XYY=             -3.4940
  XXY=              4.6804  XXZ=              0.2562  XZZ=              1.1442  YZZ=             -0.2923
  YYZ=              0.4150  XYZ=             -1.0712
 Hexadecapole moment (field-independent basis, Debye-Ang**3):
 XXXX=           -306.6925 YYYY=           -174.2398 ZZZZ=            -60.2361 XXXY=              5.1323
 XXXZ=             -5.0496 YYYX=              2.1945 YYYZ=             -0.5000 ZZZX=              1.5702
 ZZZY=              2.4973 XXYY=            -88.0542 XXZZ=            -63.3254 YYZZ=            -36.1308
 XXYZ=             -0.4284 YYXZ=              2.9551 ZZXY=              0.4804
 N-N= 1.782744516030D+02 E-N=-9.840678194834D+02  KE= 2.666692170889D+02
 No NMR shielding tensors so no spin-rotation constants.
 Leave Link  601 at Wed May 26 09:01:19 2021, MaxMem=  2147483648 cpu:         0.6
 (Enter /opt/cluster/programs/g09_d.01/g09/l701.exe)
 Compute integral first derivatives.
 ... and contract with generalized density number  0.
 R6Disp: Adding Grimme-D2 dispersion energy 1st derivatives to the gradient.
 Leave Link  701 at Wed May 26 09:01:19 2021, MaxMem=  2147483648 cpu:         0.6
 (Enter /opt/cluster/programs/g09_d.01/g09/l702.exe)
 L702 exits ... SP integral derivatives will be done elsewhere.
 Leave Link  702 at Wed May 26 09:01:19 2021, MaxMem=  2147483648 cpu:         0.2
 (Enter /opt/cluster/programs/g09_d.01/g09/l703.exe)
 Compute integral first derivatives, UseDBF=F ICtDFT=           0.
 Integral derivatives from FoFJK, PRISM(SPDF).
 Calling FoFJK, ICntrl=      2127 FMM=F ISym2X=0 I1Cent= 0 IOpClX= 0 NMat=1 NMatS=1 NMatT=0.
 FoFJK:  IHMeth= 1 ICntrl=    2127 DoSepK=T KAlg= 0 I1Cent=   0 FoldK=F
 IRaf=         1 NMat=   1 IRICut=       1 DoRegI=T DoRafI=F ISym2E= 0.
 FoFCou: FMM=F IPFlag=           0 FMFlag=      100000 FMFlg1=         800
         NFxFlg=           0 DoJE=F BraDBF=F KetDBF=F FulRan=T
         wScrn=  0.000000 ICntrl=    2527 IOpCl=  0 I1Cent=           0 NGrid=           0
         NMat0=    1 NMatS0=      1 NMatT0=    0 NMatD0=    1 NMtDS0=    0 NMtDT0=    0
 Symmetry not used in FoFCou.
 Leave Link  703 at Wed May 26 09:01:20 2021, MaxMem=  2147483648 cpu:         3.7
 (Enter /opt/cluster/programs/g09_d.01/g09/l716.exe)
 Dipole        =-6.68652314D-01 1.44167840D+00-4.61181090D-01
 ***** Axes restored to original set *****
 -------------------------------------------------------------------
 Center     Atomic                   Forces (Hartrees/Bohr)
 Number     Number              X              Y              Z
 -------------------------------------------------------------------
      1        6          -0.000241676   -0.000055287    0.000616794
      2        6           0.000385280   -0.000253361   -0.000984522
      3        1           0.000004385    0.000014763    0.000042623
      4        1           0.000003049    0.000018792    0.000012210
      5        1          -0.000002067   -0.000031507    0.000031699
      6        8          -0.000218992    0.000953455    0.000527682
      7        8          -0.000003131    0.000007781   -0.000058963
      8        6           0.000071152   -0.000672254   -0.000189457
      9        1           0.000004577    0.000013032    0.000028445
     10        1          -0.000002786   -0.000022536   -0.000000933
     11        1           0.000000209    0.000027122   -0.000025577
 -------------------------------------------------------------------
 Cartesian Forces:  Max     0.000984522 RMS     0.000319241
 Leave Link  716 at Wed May 26 09:01:20 2021, MaxMem=  2147483648 cpu:         0.2
 (Enter /opt/cluster/programs/g09_d.01/g09/l103.exe)

 GradGradGradGradGradGradGradGradGradGradGradGradGradGradGradGradGradGrad
 Berny optimization.
 FormGI is forming the generalized inverse of G from B-inverse, IUseBI=4.
 Internal  Forces:  Max     0.001038217 RMS     0.000217386
 Search for a local minimum.
 Step number   1 out of a maximum of   47
 All quantities printed in internal units (Hartrees-Bohrs-Radians)
 RMS Force = .14178D-05 SwitMx=.10000D-02 MixMth= 2
 Mixed Optimization -- En-DIIS/RFO-DIIS
 Second derivative matrix not updated -- first step.
 ITU=  0
     Eigenvalues ---    0.00742   0.00926   0.01153   0.07264   0.07540
     Eigenvalues ---    0.09991   0.10605   0.16000   0.16000   0.16000
     Eigenvalues ---    0.16000   0.16000   0.16000   0.24906   0.25000
     Eigenvalues ---    0.25000   0.32187   0.34179   0.34253   0.34318
     Eigenvalues ---    0.34429   0.34850   0.35111   0.37230   0.46755
     Eigenvalues ---    0.945991000.000001000.000001000.000001000.00000
     Eigenvalues --- 1000.000001000.000001000.000001000.000001000.00000
     Eigenvalues --- 1000.000001000.00000
 RFO step:  Lambda= 0.00000000D+00 EMin= 7.41826230D-03
 Linear search not attempted -- first point.
 Iteration  1 RMS(Cart)=  0.00002591 RMS(Int)=  0.00000000
 Iteration  2 RMS(Cart)=  0.00000000 RMS(Int)=  0.00000000
 Iteration  1 RMS(Cart)=  0.00000000 RMS(Int)=  0.00000000
 ITry= 1 IFail=0 DXMaxC= 9.58D-05 DCOld= 1.00D+10 DXMaxT= 3.00D-01 DXLimC= 3.00D+00 Rises=F
 Variable       Old X    -DE/DX   Delta X   Delta X   Delta X     New X
                                 (Linear)    (Quad)   (Total)
    R1        2.83804  -0.00001   0.00000  -0.00002  -0.00002   2.83802
    R2        2.06797   0.00000   0.00000   0.00001   0.00001   2.06798
    R3        2.05918   0.00000   0.00000   0.00000   0.00000   2.05918
    R4        2.06905   0.00000   0.00000   0.00000   0.00000   2.06905
    R5        2.63289   0.00000   0.00000  -0.00001  -0.00001   2.63288
    R6        2.30883   0.00000   0.00000   0.00000   0.00000   2.30883
    R7        2.75501   0.00000   0.00000   0.00000   0.00000   2.75500
    R8        2.07029   0.00000   0.00000   0.00000   0.00000   2.07029
    R9        2.05494   0.00000   0.00000   0.00000   0.00000   2.05494
   R10        2.06612   0.00000   0.00000   0.00000   0.00000   2.06612
    A1        1.94172   0.00000   0.00000   0.00000   0.00000   1.94172
    A2        1.92105   0.00000   0.00000   0.00001   0.00001   1.92106
    A3        1.90041   0.00000   0.00000   0.00000   0.00000   1.90041
    A4        1.91317   0.00000   0.00000   0.00000   0.00000   1.91317
    A5        1.87447   0.00000   0.00000  -0.00002  -0.00002   1.87445
    A6        1.91228   0.00000   0.00000   0.00000   0.00000   1.91229
    A7        1.99734   0.00001   0.00000   0.00000   0.00000   1.99734
    A8        2.18073   0.00005   0.00000   0.00000   0.00000   2.18072
    A9        2.10144  -0.00002   0.00000   0.00000   0.00000   2.10144
   A10        2.07503   0.00000   0.00000   0.00000   0.00000   2.07503
   A11        1.94110   0.00000   0.00000   0.00000   0.00000   1.94110
   A12        1.83729   0.00000   0.00000   0.00000   0.00000   1.83729
   A13        1.91871   0.00000   0.00000   0.00000   0.00000   1.91871
   A14        1.91636   0.00000   0.00000   0.00000   0.00000   1.91636
   A15        1.92778   0.00000   0.00000   0.00000   0.00000   1.92778
   A16        1.92072   0.00000   0.00000  -0.00001  -0.00001   1.92071
    D1       -0.94280   0.00020   0.00000  -0.00004  -0.00004  -0.94284
    D2        2.29099  -0.00020   0.00000   0.00002   0.00002   2.29101
    D3       -3.06700   0.00020   0.00000  -0.00005  -0.00005  -3.06704
    D4        0.16679  -0.00020   0.00000   0.00001   0.00001   0.16680
    D5        1.11972   0.00020   0.00000  -0.00006  -0.00006   1.11966
    D6       -1.92968  -0.00021   0.00000   0.00000   0.00000  -1.92968
    D7        1.38554  -0.00104   0.00000   0.00000   0.00000   1.38554
    D8       -1.84366  -0.00065   0.00000  -0.00006  -0.00006  -1.84372
    D9       -1.03768   0.00000   0.00000   0.00000   0.00000  -1.03768
   D10       -3.11212   0.00000   0.00000  -0.00001  -0.00001  -3.11213
   D11        1.10300   0.00000   0.00000   0.00000   0.00000   1.10300
         Item               Value     Threshold  Converged?
 Maximum Force            0.000006     0.000450     YES
 RMS     Force            0.000001     0.000300     YES
 Maximum Displacement     0.000096     0.001800     YES
 RMS     Displacement     0.000026     0.001200     YES
 Predicted change in Energy=-1.939354D-10
 Optimization completed.
    -- Stationary point found.
                           ----------------------------
                           !   Optimized Parameters   !
                           ! (Angstroms and Degrees)  !
 --------------------------                            --------------------------
 ! Name  Definition              Value          Derivative Info.                !
 --------------------------------------------------------------------------------
 ! R1    R(1,2)                  1.5018         -DE/DX =    0.0                 !
 ! R2    R(1,3)                  1.0943         -DE/DX =    0.0                 !
 ! R3    R(1,4)                  1.0897         -DE/DX =    0.0                 !
 ! R4    R(1,5)                  1.0949         -DE/DX =    0.0                 !
 ! R5    R(2,6)                  1.3933         -DE/DX =    0.0                 !
 ! R6    R(2,7)                  1.2218         -DE/DX =    0.0                 !
 ! R7    R(6,8)                  1.4579         -DE/DX =    0.0                 !
 ! R8    R(8,9)                  1.0956         -DE/DX =    0.0                 !
 ! R9    R(8,10)                 1.0874         -DE/DX =    0.0                 !
 ! R10   R(8,11)                 1.0933         -DE/DX =    0.0                 !
 ! A1    A(2,1,3)              111.2523         -DE/DX =    0.0                 !
 ! A2    A(2,1,4)              110.068          -DE/DX =    0.0                 !
 ! A3    A(2,1,5)              108.8855         -DE/DX =    0.0                 !
 ! A4    A(3,1,4)              109.6164         -DE/DX =    0.0                 !
 ! A5    A(3,1,5)              107.399          -DE/DX =    0.0                 !
 ! A6    A(4,1,5)              109.5658         -DE/DX =    0.0                 !
 ! A7    A(1,2,6)              114.4394         -DE/DX =    0.0                 !
 ! A8    A(1,2,7)              124.9464         -DE/DX =    0.0                 !
 ! A9    A(6,2,7)              120.4035         -DE/DX =    0.0                 !
 ! A10   A(2,6,8)              118.8903         -DE/DX =    0.0                 !
 ! A11   A(6,8,9)              111.2167         -DE/DX =    0.0                 !
 ! A12   A(6,8,10)             105.269          -DE/DX =    0.0                 !
 ! A13   A(6,8,11)             109.9341         -DE/DX =    0.0                 !
 ! A14   A(9,8,10)             109.7992         -DE/DX =    0.0                 !
 ! A15   A(9,8,11)             110.4534         -DE/DX =    0.0                 !
 ! A16   A(10,8,11)            110.0489         -DE/DX =    0.0                 !
 ! D1    D(3,1,2,6)            -54.0184         -DE/DX =    0.0002              !
 ! D2    D(3,1,2,7)            131.264          -DE/DX =   -0.0002              !
 ! D3    D(4,1,2,6)           -175.7259         -DE/DX =    0.0002              !
 ! D4    D(4,1,2,7)              9.5564         -DE/DX =   -0.0002              !
 ! D5    D(5,1,2,6)             64.1553         -DE/DX =    0.0002              !
 ! D6    D(5,1,2,7)           -110.5623         -DE/DX =   -0.0002              !
 ! D7    D(1,2,6,8)             79.3854         -DE/DX =   -0.001               !
 ! D8    D(7,2,6,8)           -105.6342         -DE/DX =   -0.0006              !
 ! D9    D(2,6,8,9)            -59.4546         -DE/DX =    0.0                 !
 ! D10   D(2,6,8,10)          -178.3116         -DE/DX =    0.0                 !
 ! D11   D(2,6,8,11)            63.1974         -DE/DX =    0.0                 !
 --------------------------------------------------------------------------------
 Lowest energy point so far.  Saving SCF results.
 GradGradGradGradGradGradGradGradGradGradGradGradGradGradGradGradGradGrad

 Largest change from initial coordinates is atom    4       0.000 Angstoms.
 Leave Link  103 at Wed May 26 09:01:20 2021, MaxMem=  2147483648 cpu:         0.1
 (Enter /opt/cluster/programs/g09_d.01/g09/l202.exe)
                          Input orientation:                          
 ---------------------------------------------------------------------
 Center     Atomic      Atomic             Coordinates (Angstroms)
 Number     Number       Type             X           Y           Z
 ---------------------------------------------------------------------
      1          6           0        1.176872   -1.157108    0.042660
      2          6           0        0.555157    0.206120   -0.060071
      3          1           0        0.534068   -1.845246    0.600167
      4          1           0        2.149175   -1.088884    0.529855
      5          1           0        1.299634   -1.567479   -0.964972
      6          8           0       -0.735066    0.213117   -0.585864
      7          8           0        1.126850    1.256653    0.189511
      8          6           0       -1.850961   -0.145238    0.281195
      9          1           0       -1.734491   -1.159535    0.678522
     10          1           0       -2.733167   -0.097028   -0.352753
     11          1           0       -1.935904    0.577368    1.097298
 ---------------------------------------------------------------------
                    Distance matrix (angstroms):
                    1          2          3          4          5
     1  C    0.000000
     2  C    1.501823   0.000000
     3  H    1.094324   2.155101   0.000000
     4  H    1.089673   2.136806   1.784824   0.000000
     5  H    1.094896   2.125734   1.764343   1.784736   0.000000
     6  O    2.434762   1.393263   2.693368   3.355426   2.730247
     7  O    2.418741   1.221779   3.184620   2.581187   3.055881
     8  C    3.201336   2.455467   2.946207   4.117449   3.674500
     9  H    2.979993   2.766409   2.371223   3.887153   3.474681
    10  H    4.070445   3.315213   3.826114   5.059648   4.335957
    11  H    3.716187   2.771771   3.495277   4.448175   4.395683
                    6          7          8          9         10
     6  O    0.000000
     7  O    2.270882   0.000000
     8  C    1.457886   3.292577   0.000000
     9  H    2.117002   3.776820   1.095551   0.000000
    10  H    2.035421   4.126286   1.087429   1.786002   0.000000
    11  H    2.099458   3.265879   1.093343   1.797991   1.786921
                   11
    11  H    0.000000
 Stoichiometry    C3H6O2
 Framework group  C1[X(C3H6O2)]
 Deg. of freedom    27
 Full point group                 C1      NOp   1
 RotChk:  IX=0 Diff= 4.71D-16
 Largest Abelian subgroup         C1      NOp   1
 Largest concise Abelian subgroup C1      NOp   1
                         Standard orientation:                         
 ---------------------------------------------------------------------
 Center     Atomic      Atomic             Coordinates (Angstroms)
 Number     Number       Type             X           Y           Z
 ---------------------------------------------------------------------
      1          6           0        1.176872    1.157108   -0.042660
      2          6           0        0.555157   -0.206120    0.060071
      3          1           0        0.534068    1.845246   -0.600167
      4          1           0        2.149175    1.088885   -0.529855
      5          1           0        1.299634    1.567479    0.964972
      6          8           0       -0.735066   -0.213117    0.585864
      7          8           0        1.126850   -1.256653   -0.189511
      8          6           0       -1.850961    0.145238   -0.281195
      9          1           0       -1.734491    1.159535   -0.678522
     10          1           0       -2.733167    0.097027    0.352753
     11          1           0       -1.935904   -0.577369   -1.097298
 ---------------------------------------------------------------------
 Rotational constants (GHZ):      8.2332904      4.1429707      3.1081140
 Leave Link  202 at Wed May 26 09:01:20 2021, MaxMem=  2147483648 cpu:         0.0
 (Enter /opt/cluster/programs/g09_d.01/g09/l9999.exe)
 1\1\GINC-NODE11\FOpt\RwB97XD\6-31+G\C3H6O2\BOITTIER\26-May-2021\0\\#p 
 wB97XD/6-31+G Opt=ModRedun\\O.pdb\\0,1\C,1.176872,-1.157108,0.04266\C,
 0.555157,0.20612,-0.060071\H,0.534068,-1.845246,0.600167\H,2.149175,-1
 .088884,0.529855\H,1.299634,-1.567479,-0.964972\O,-0.735066,0.213117,-
 0.585864\O,1.12685,1.256653,0.189511\C,-1.850961,-0.145238,0.281195\H,
 -1.734491,-1.159535,0.678522\H,-2.733167,-0.097028,-0.352753\H,-1.9359
 04,0.577368,1.097298\\Version=ES64L-G09RevD.01\State=1-A\HF=-268.19954
 92\RMSD=1.730e-09\RMSF=3.192e-04\Dipole=-0.6686519,-1.4416786,0.461181
 1\Quadrupole=2.4393098,-2.1158188,-0.323491,-2.4587198,-1.9051019,-0.0
 315574\PG=C01 [X(C3H6O2)]\\@


 THE WHOLE OF SCIENCE IS NOTHING MORE THAN A REFINEMENT OF EVERYDAY THINKING.
                                                              -- A. EINSTEIN
 Job cpu time:       0 days  0 hours  0 minutes 28.8 seconds.
 File lengths (MBytes):  RWF=      5 Int=      0 D2E=      0 Chk=      2 Scr=      1
 Normal termination of Gaussian 09 at Wed May 26 09:01:20 2021.
