O.pdb                                                                   
FOpt      RwB97XD                                                     6-31+G              
Number of atoms                            I               11
Info1-9                                    I   N=           9
          22          22           0           0           0         100
           2          18        -802
Charge                                     I                0
Multiplicity                               I                1
Number of electrons                        I               40
Number of alpha electrons                  I               20
Number of beta electrons                   I               20
Number of basis functions                  I               77
Number of independent functions            I               77
Number of point charges in /Mol/           I                0
Number of translation vectors              I                0
Atomic numbers                             I   N=          11
           6           6           1           1           1           8
           8           6           1           1           1
Nuclear charges                            R   N=          11
  6.00000000E+00  6.00000000E+00  1.00000000E+00  1.00000000E+00  1.00000000E+00
  8.00000000E+00  8.00000000E+00  6.00000000E+00  1.00000000E+00  1.00000000E+00
  1.00000000E+00
Current cartesian coordinates              R   N=          33
  2.22396543E+00  2.18661782E+00 -8.06158586E-02  1.04909503E+00 -3.89510071E-01
  1.13517597E-01  1.00924156E+00  3.48700986E+00 -1.13415141E+00  4.06135185E+00
  2.05769363E+00 -1.00128098E+00  2.45595178E+00  2.96210668E+00  1.82353266E+00
 -1.38907309E+00 -4.02733135E-01  1.10712237E+00  2.12943876E+00 -2.37472945E+00
 -3.58124031E-01 -3.49780921E+00  2.74459112E-01 -5.31381682E-01 -3.27771332E+00
  2.19120272E+00 -1.28222090E+00 -5.16493692E+00  1.83354970E-01  6.66606421E-01
 -3.65832785E+00 -1.09106837E+00 -2.07359285E+00
Force Field                                I                0
Int Atom Types                             I   N=          11
           0           0           0           0           0           0
           0           0           0           0           0
MM charges                                 R   N=          11
  0.00000000E+00  0.00000000E+00  0.00000000E+00  0.00000000E+00  0.00000000E+00
  0.00000000E+00  0.00000000E+00  0.00000000E+00  0.00000000E+00  0.00000000E+00
  0.00000000E+00
Integer atomic weights                     I   N=          11
          12          12           1           1           1          16
          16          12           1           1           1
Real atomic weights                        R   N=          11
  1.20000000E+01  1.20000000E+01  1.00782504E+00  1.00782504E+00  1.00782504E+00
  1.59949146E+01  1.59949146E+01  1.20000000E+01  1.00782504E+00  1.00782504E+00
  1.00782504E+00
Atom fragment info                         I   N=          11
           0           0           0           0           0           0
           0           0           0           0           0
Atom residue num                           I   N=          11
           0           0           0           0           0           0
           0           0           0           0           0
Nuclear spins                              I   N=          11
           0           0           1           1           1           0
           0           0           1           1           1
Nuclear ZEff                               R   N=          11
 -3.60000000E+00 -3.60000000E+00 -1.00000000E+00 -1.00000000E+00 -1.00000000E+00
 -5.60000000E+00 -5.60000000E+00 -3.60000000E+00 -1.00000000E+00 -1.00000000E+00
 -1.00000000E+00
Nuclear ZNuc                               R   N=          11
  6.00000000E+00  6.00000000E+00  1.00000000E+00  1.00000000E+00  1.00000000E+00
  8.00000000E+00  8.00000000E+00  6.00000000E+00  1.00000000E+00  1.00000000E+00
  1.00000000E+00
Nuclear QMom                               R   N=          11
  0.00000000E+00  0.00000000E+00  0.00000000E+00  0.00000000E+00  0.00000000E+00
  0.00000000E+00  0.00000000E+00  0.00000000E+00  0.00000000E+00  0.00000000E+00
  0.00000000E+00
Nuclear GFac                               R   N=          11
  0.00000000E+00  0.00000000E+00  2.79284600E+00  2.79284600E+00  2.79284600E+00
  0.00000000E+00  0.00000000E+00  0.00000000E+00  2.79284600E+00  2.79284600E+00
  2.79284600E+00
MicOpt                                     I   N=          11
          -1          -1          -1          -1          -1          -1
          -1          -1          -1          -1          -1
Number of contracted shells                I               32
Number of primitive shells                 I               79
Pure/Cartesian d shells                    I                1
Pure/Cartesian f shells                    I                0
Highest angular momentum                   I                1
Largest degree of contraction              I                6
Shell types                                I   N=          32
           0          -1          -1          -1           0          -1
          -1          -1           0           0           0           0
           0           0           0          -1          -1          -1
           0          -1          -1          -1           0          -1
          -1          -1           0           0           0           0
           0           0
Number of primitives per shell             I   N=          32
           6           3           1           1           6           3
           1           1           3           1           3           1
           3           1           6           3           1           1
           6           3           1           1           6           3
           1           1           3           1           3           1
           3           1
Shell to atom map                          I   N=          32
           1           1           1           1           2           2
           2           2           3           3           4           4
           5           5           6           6           6           6
           7           7           7           7           8           8
           8           8           9           9          10          10
          11          11
Primitive exponents                        R   N=          79
  3.04752488E+03  4.57369518E+02  1.03948685E+02  2.92101553E+01  9.28666296E+00
  3.16392696E+00  7.86827235E+00  1.88128854E+00  5.44249258E-01  1.68714478E-01
  4.38000000E-02  3.04752488E+03  4.57369518E+02  1.03948685E+02  2.92101553E+01
  9.28666296E+00  3.16392696E+00  7.86827235E+00  1.88128854E+00  5.44249258E-01
  1.68714478E-01  4.38000000E-02  1.87311370E+01  2.82539436E+00  6.40121692E-01
  1.61277759E-01  1.87311370E+01  2.82539436E+00  6.40121692E-01  1.61277759E-01
  1.87311370E+01  2.82539436E+00  6.40121692E-01  1.61277759E-01  5.48467166E+03
  8.25234946E+02  1.88046958E+02  5.29645000E+01  1.68975704E+01  5.79963534E+00
  1.55396162E+01  3.59993359E+00  1.01376175E+00  2.70005823E-01  8.45000000E-02
  5.48467166E+03  8.25234946E+02  1.88046958E+02  5.29645000E+01  1.68975704E+01
  5.79963534E+00  1.55396162E+01  3.59993359E+00  1.01376175E+00  2.70005823E-01
  8.45000000E-02  3.04752488E+03  4.57369518E+02  1.03948685E+02  2.92101553E+01
  9.28666296E+00  3.16392696E+00  7.86827235E+00  1.88128854E+00  5.44249258E-01
  1.68714478E-01  4.38000000E-02  1.87311370E+01  2.82539436E+00  6.40121692E-01
  1.61277759E-01  1.87311370E+01  2.82539436E+00  6.40121692E-01  1.61277759E-01
  1.87311370E+01  2.82539436E+00  6.40121692E-01  1.61277759E-01
Contraction coefficients                   R   N=          79
  1.83473713E-03  1.40373228E-02  6.88426223E-02  2.32184443E-01  4.67941348E-01
  3.62311985E-01 -1.19332420E-01 -1.60854152E-01  1.14345644E+00  1.00000000E+00
  1.00000000E+00  1.83473713E-03  1.40373228E-02  6.88426223E-02  2.32184443E-01
  4.67941348E-01  3.62311985E-01 -1.19332420E-01 -1.60854152E-01  1.14345644E+00
  1.00000000E+00  1.00000000E+00  3.34946043E-02  2.34726953E-01  8.13757326E-01
  1.00000000E+00  3.34946043E-02  2.34726953E-01  8.13757326E-01  1.00000000E+00
  3.34946043E-02  2.34726953E-01  8.13757326E-01  1.00000000E+00  1.83107443E-03
  1.39501722E-02  6.84450781E-02  2.32714336E-01  4.70192898E-01  3.58520853E-01
 -1.10777550E-01 -1.48026263E-01  1.13076702E+00  1.00000000E+00  1.00000000E+00
  1.83107443E-03  1.39501722E-02  6.84450781E-02  2.32714336E-01  4.70192898E-01
  3.58520853E-01 -1.10777550E-01 -1.48026263E-01  1.13076702E+00  1.00000000E+00
  1.00000000E+00  1.83473713E-03  1.40373228E-02  6.88426223E-02  2.32184443E-01
  4.67941348E-01  3.62311985E-01 -1.19332420E-01 -1.60854152E-01  1.14345644E+00
  1.00000000E+00  1.00000000E+00  3.34946043E-02  2.34726953E-01  8.13757326E-01
  1.00000000E+00  3.34946043E-02  2.34726953E-01  8.13757326E-01  1.00000000E+00
  3.34946043E-02  2.34726953E-01  8.13757326E-01  1.00000000E+00
P(S=P) Contraction coefficients            R   N=          79
  0.00000000E+00  0.00000000E+00  0.00000000E+00  0.00000000E+00  0.00000000E+00
  0.00000000E+00  6.89990666E-02  3.16423961E-01  7.44308291E-01  1.00000000E+00
  1.00000000E+00  0.00000000E+00  0.00000000E+00  0.00000000E+00  0.00000000E+00
  0.00000000E+00  0.00000000E+00  6.89990666E-02  3.16423961E-01  7.44308291E-01
  1.00000000E+00  1.00000000E+00  0.00000000E+00  0.00000000E+00  0.00000000E+00
  0.00000000E+00  0.00000000E+00  0.00000000E+00  0.00000000E+00  0.00000000E+00
  0.00000000E+00  0.00000000E+00  0.00000000E+00  0.00000000E+00  0.00000000E+00
  0.00000000E+00  0.00000000E+00  0.00000000E+00  0.00000000E+00  0.00000000E+00
  7.08742682E-02  3.39752839E-01  7.27158577E-01  1.00000000E+00  1.00000000E+00
  0.00000000E+00  0.00000000E+00  0.00000000E+00  0.00000000E+00  0.00000000E+00
  0.00000000E+00  7.08742682E-02  3.39752839E-01  7.27158577E-01  1.00000000E+00
  1.00000000E+00  0.00000000E+00  0.00000000E+00  0.00000000E+00  0.00000000E+00
  0.00000000E+00  0.00000000E+00  6.89990666E-02  3.16423961E-01  7.44308291E-01
  1.00000000E+00  1.00000000E+00  0.00000000E+00  0.00000000E+00  0.00000000E+00
  0.00000000E+00  0.00000000E+00  0.00000000E+00  0.00000000E+00  0.00000000E+00
  0.00000000E+00  0.00000000E+00  0.00000000E+00  0.00000000E+00
Coordinates of each shell                  R   N=          96
  2.22396543E+00  2.18661782E+00 -8.06158586E-02  2.22396543E+00  2.18661782E+00
 -8.06158586E-02  2.22396543E+00  2.18661782E+00 -8.06158586E-02  2.22396543E+00
  2.18661782E+00 -8.06158586E-02  1.04909503E+00 -3.89510071E-01  1.13517597E-01
  1.04909503E+00 -3.89510071E-01  1.13517597E-01  1.04909503E+00 -3.89510071E-01
  1.13517597E-01  1.04909503E+00 -3.89510071E-01  1.13517597E-01  1.00924156E+00
  3.48700986E+00 -1.13415141E+00  1.00924156E+00  3.48700986E+00 -1.13415141E+00
  4.06135185E+00  2.05769363E+00 -1.00128098E+00  4.06135185E+00  2.05769363E+00
 -1.00128098E+00  2.45595178E+00  2.96210668E+00  1.82353266E+00  2.45595178E+00
  2.96210668E+00  1.82353266E+00 -1.38907309E+00 -4.02733135E-01  1.10712237E+00
 -1.38907309E+00 -4.02733135E-01  1.10712237E+00 -1.38907309E+00 -4.02733135E-01
  1.10712237E+00 -1.38907309E+00 -4.02733135E-01  1.10712237E+00  2.12943876E+00
 -2.37472945E+00 -3.58124031E-01  2.12943876E+00 -2.37472945E+00 -3.58124031E-01
  2.12943876E+00 -2.37472945E+00 -3.58124031E-01  2.12943876E+00 -2.37472945E+00
 -3.58124031E-01 -3.49780921E+00  2.74459112E-01 -5.31381682E-01 -3.49780921E+00
  2.74459112E-01 -5.31381682E-01 -3.49780921E+00  2.74459112E-01 -5.31381682E-01
 -3.49780921E+00  2.74459112E-01 -5.31381682E-01 -3.27771332E+00  2.19120272E+00
 -1.28222090E+00 -3.27771332E+00  2.19120272E+00 -1.28222090E+00 -5.16493692E+00
  1.83354970E-01  6.66606421E-01 -5.16493692E+00  1.83354970E-01  6.66606421E-01
 -3.65832785E+00 -1.09106837E+00 -2.07359285E+00 -3.65832785E+00 -1.09106837E+00
 -2.07359285E+00
Constraint Structure                       R   N=          33
  2.22396543E+00  2.18661782E+00 -8.06158586E-02  1.04909503E+00 -3.89510071E-01
  1.13517597E-01  1.00924156E+00  3.48700986E+00 -1.13415141E+00  4.06135185E+00
  2.05769363E+00 -1.00128098E+00  2.45595178E+00  2.96210668E+00  1.82353266E+00
 -1.38907309E+00 -4.02733135E-01  1.10712237E+00  2.12943876E+00 -2.37472945E+00
 -3.58124031E-01 -3.49780921E+00  2.74459112E-01 -5.31381682E-01 -3.27771332E+00
  2.19120272E+00 -1.28222090E+00 -5.16493692E+00  1.83354970E-01  6.66606421E-01
 -3.65832785E+00 -1.09106837E+00 -2.07359285E+00
Num ILSW                                   I              100
ILSW                                       I   N=         100
           0           1           0           0           2           0
           0           0           0           0        4639          -1
           0           0           0           0           2           0
           0           0           0           0           1           0
           1           0           0           0           0           0
           0           0      100000           0          -1           0
           0           0           0           0           0           0
           0           0           0           1           0           0
           0           0           1           0           0           0
           0           0         121          41           0           0
           0           0          58           0           0           0
           0           0           0          11           0           0
           0           0           0           0           0           0
           0           0           0           0           0           0
           0           0           0           0           0           0
           0           0           0           0           0           0
           0           0           0           0
Num RLSW                                   I               41
RLSW                                       R   N=          41
  1.00000000E+00  1.00000000E+00  1.00000000E+00  1.00000000E+00  1.00000000E+00
  0.00000000E+00  2.00000000E-01  2.22036000E-01  0.00000000E+00  7.77964000E-01
  0.00000000E+00  2.00000000E-01  0.00000000E+00  0.00000000E+00  1.00000000E+00
  0.00000000E+00  0.00000000E+00  1.00000000E+00  0.00000000E+00  0.00000000E+00
  0.00000000E+00  0.00000000E+00  1.00000000E+00  0.00000000E+00  0.00000000E+00
  0.00000000E+00  0.00000000E+00  1.00000000E+00  0.00000000E+00  0.00000000E+00
  0.00000000E+00  0.00000000E+00  1.00000000E+00  0.00000000E+00  0.00000000E+00
  0.00000000E+00  0.00000000E+00  0.00000000E+00  1.00000000E+00  1.00000000E+00
  0.00000000E+00
MxBond                                     I                4
NBond                                      I   N=          11
           4           3           1           1           1           2
           1           4           1           1           1
IBond                                      I   N=          44
           2           3           4           5           1           6
           7           0           1           0           0           0
           1           0           0           0           1           0
           0           0           2           8           0           0
           2           0           0           0           6           9
          10          11           8           0           0           0
           8           0           0           0           8           0
           0           0
RBond                                      R   N=          44
  1.00000000E+00  1.00000000E+00  1.00000000E+00  1.00000000E+00  1.00000000E+00
  1.00000000E+00  2.00000000E+00  0.00000000E+00  1.00000000E+00  0.00000000E+00
  0.00000000E+00  0.00000000E+00  1.00000000E+00  0.00000000E+00  0.00000000E+00
  0.00000000E+00  1.00000000E+00  0.00000000E+00  0.00000000E+00  0.00000000E+00
  1.00000000E+00  1.00000000E+00  0.00000000E+00  0.00000000E+00  2.00000000E+00
  0.00000000E+00  0.00000000E+00  0.00000000E+00  1.00000000E+00  1.00000000E+00
  1.00000000E+00  1.00000000E+00  1.00000000E+00  0.00000000E+00  0.00000000E+00
  0.00000000E+00  1.00000000E+00  0.00000000E+00  0.00000000E+00  0.00000000E+00
  1.00000000E+00  0.00000000E+00  0.00000000E+00  0.00000000E+00
Virial Ratio                               R      2.005738690564561E+00
SCF Energy                                 R     -2.681995492088834E+02
Total Energy                               R     -2.681995492088834E+02
RMS Force                                  R      3.192414156064529E-04
RMS Density                                R      1.729889914332396E-09
External E-field                           R   N=          35
  0.00000000E+00  0.00000000E+00  0.00000000E+00  0.00000000E+00  0.00000000E+00
  0.00000000E+00  0.00000000E+00  0.00000000E+00  0.00000000E+00  0.00000000E+00
  0.00000000E+00  0.00000000E+00  0.00000000E+00  0.00000000E+00  0.00000000E+00
  0.00000000E+00  0.00000000E+00  0.00000000E+00  0.00000000E+00  0.00000000E+00
  0.00000000E+00  0.00000000E+00  0.00000000E+00  0.00000000E+00  0.00000000E+00
  0.00000000E+00  0.00000000E+00  0.00000000E+00  0.00000000E+00  0.00000000E+00
  0.00000000E+00  0.00000000E+00  0.00000000E+00  0.00000000E+00  0.00000000E+00
IOpCl                                      I                0
IROHF                                      I                0
Alpha Orbital Energies                     R   N=          77
 -1.93058066E+01 -1.92866251E+01 -1.04553775E+01 -1.03671244E+01 -1.03177544E+01
 -1.21491580E+00 -1.13824501E+00 -8.74119158E-01 -8.26392434E-01 -6.66997581E-01
 -5.99183721E-01 -5.84004567E-01 -5.75014973E-01 -5.34774250E-01 -5.22789178E-01
 -5.09268606E-01 -4.73986385E-01 -4.26414751E-01 -3.81970122E-01 -3.66067926E-01
  4.01814042E-02  6.55792591E-02  7.82156233E-02  9.72164110E-02  9.91141858E-02
  1.14303558E-01  1.24598911E-01  1.29854935E-01  1.46810598E-01  1.48021895E-01
  1.62554678E-01  1.71445923E-01  1.95227879E-01  2.26442426E-01  2.35796626E-01
  2.69761612E-01  2.76338052E-01  2.80993845E-01  2.98180105E-01  3.26314914E-01
  3.28412497E-01  3.52221903E-01  3.62408610E-01  3.80207172E-01  3.83341913E-01
  3.97791473E-01  4.08775943E-01  4.26068123E-01  4.36912887E-01  4.63140634E-01
  5.62149413E-01  7.13621291E-01  7.22675202E-01  7.43842719E-01  7.58635802E-01
  7.88571674E-01  8.04645048E-01  8.70458053E-01  9.10720242E-01  9.32141323E-01
  1.06244520E+00  1.09748476E+00  1.11256551E+00  1.14779921E+00  1.16121083E+00
  1.20265259E+00  1.24555437E+00  1.28835304E+00  1.33394495E+00  1.38858996E+00
  1.41473169E+00  1.44359377E+00  1.47455924E+00  1.53516126E+00  1.60618868E+00
  1.91314285E+00  2.00968522E+00
Alpha MO coefficients                      R   N=        5929
 -3.66908115E-05 -5.37926610E-04  1.33765669E-04  1.00883219E-04 -4.52389629E-05
  1.95181176E-03  9.77414059E-04 -9.93531621E-04 -3.26589885E-04  1.54824105E-02
 -2.71207725E-03 -2.96761831E-03  4.40975191E-04  7.82012171E-05  3.81947121E-04
 -4.06542492E-04  3.81981899E-05  7.80633440E-05  1.45564512E-03 -4.99185880E-03
  1.32401364E-04  1.64829034E-03 -1.92541275E-02  1.00658302E-03 -5.40078046E-03
 -1.51955647E-04  7.59991905E-05 -3.88508794E-04 -1.97724786E-04 -6.91133781E-04
  2.80581068E-05 -5.45184150E-04  9.95226283E-01  2.97254406E-02  4.40200991E-04
  5.21735500E-04 -1.66559737E-03 -2.09388198E-02 -1.48278823E-03 -8.39894182E-04
  2.90824684E-03  1.04109796E-02  2.28569742E-04  6.60422129E-04 -5.70900614E-04
 -1.05526090E-03 -3.01499174E-04  2.68724928E-05 -1.18867889E-04 -3.15369802E-05
  1.05003060E-03  6.56215464E-04  8.68405633E-04 -6.25597108E-05  1.21723811E-03
 -1.11540616E-04  7.05727481E-04 -2.52070359E-04 -3.46741614E-06  4.83277160E-05
  5.96407672E-04 -1.50892360E-04  3.01029267E-04  3.18606893E-03  8.67359837E-04
 -2.34633753E-04  6.17477371E-04 -6.27743227E-04 -9.27999518E-04  1.68089752E-04
 -9.44919819E-04 -2.86238030E-04 -7.54539444E-04 -2.14729711E-04 -8.60392629E-04
 -2.78120228E-04 -6.59072396E-04 -1.94991300E-05 -3.65369420E-04  5.73056183E-05
  1.26531945E-04  7.38183431E-06  2.66410891E-03 -2.49969691E-03 -7.76325204E-05
  6.58925108E-04  9.75762176E-03 -3.09648406E-04 -2.64036162E-03 -2.85460185E-04
  2.31119088E-04  2.21353536E-04  5.24795516E-05  1.16157395E-04 -1.88871681E-05
  7.82754913E-03  3.31005958E-03 -8.66341375E-03 -1.55830443E-03 -1.40403712E-02
 -2.60269465E-03 -9.60789177E-04  1.47813168E-03 -1.89444943E-04 -5.12613978E-04
  1.75088668E-04  4.02293907E-04 -7.90539782E-05 -3.00458674E-04  1.05058213E-03
 -2.03915766E-04 -1.31921659E-04 -7.63170157E-05  6.06687436E-05  6.21106674E-04
  6.55326580E-05  1.36330679E-03 -3.84806563E-05 -8.67641925E-04 -1.07298454E-03
  6.01987184E-04  6.37692172E-04  9.95232841E-01  2.97920228E-02 -1.09056204E-03
  1.95463915E-03  4.53407778E-04 -2.34176338E-02  2.90966739E-03 -4.84849039E-03
 -1.18896578E-03  7.86023985E-03 -4.29298877E-04  6.55735899E-04 -3.84688564E-05
  2.91261356E-06  3.55142036E-05 -1.72437734E-05 -2.10416832E-05 -1.96218479E-05
 -1.06808895E-04  1.67849693E-04 -3.41951452E-04 -3.30499119E-04  2.92685179E-04
  2.81386621E-04 -4.23895558E-04 -5.70816914E-04 -4.59434475E-05  5.65304167E-04
  3.81267263E-05  6.57479724E-05  9.00507396E-05 -5.27729520E-04  7.27618187E-04
 -7.85769491E-04  1.46279305E-05  3.34888600E-04  9.18867930E-05  6.23421446E-03
 -5.08413279E-04 -2.77455359E-03 -5.57199533E-04 -2.45565467E-03  3.64343563E-04
  1.67884435E-03 -4.49885706E-04  9.95553955E-01  3.67740141E-02 -3.91714562E-04
 -1.14233877E-03  1.55484619E-04 -3.40039192E-02  1.68222520E-04 -4.62203858E-04
 -2.28921004E-04 -7.58324396E-03  3.54735571E-03 -4.83106295E-04 -7.92592628E-05
 -1.94706086E-04 -1.49881007E-04 -1.53736729E-04 -1.28705871E-03 -2.17494452E-04
  5.48837201E-04  4.82864436E-05  4.61187217E-04 -1.68961945E-04 -1.63734051E-05
  6.23984507E-05 -1.51553533E-04 -9.27158677E-05  1.26420555E-04  2.99065890E-04
  8.24937347E-03  6.44142599E-03  1.11193797E-03 -1.61803981E-03 -1.55389190E-04
 -6.60682136E-05  2.47070412E-04 -4.59823916E-04 -1.16660389E-04  8.36135229E-04
  2.22433044E-04  1.65454155E-05 -3.19925669E-05  8.88764059E-03 -2.10541071E-03
  4.51270536E-03  6.32791782E-04 -1.77893213E-04 -7.06276618E-04 -1.08042125E-04
  7.95893061E-05  1.02617415E-04  1.89460959E-03  1.05991634E-03 -5.85412025E-04
 -1.02855035E-03  6.30095979E-03  1.80899898E-03 -6.55684212E-04  8.53742213E-04
 -1.40538135E-04 -9.05932416E-04 -1.08996198E-05  1.29105654E-03 -1.53250696E-04
 -1.85079162E-03  1.20416863E-04  4.90627461E-04 -9.86473216E-06  5.57802275E-05
  4.68854676E-05 -2.63191238E-03  1.63678203E-03  9.33076855E-04 -5.95057450E-04
 -2.06339457E-03  3.85346255E-04  6.22453626E-04 -8.30758858E-04  1.08664506E-05
 -7.33187563E-04  7.17802095E-05 -1.00506418E-04 -5.68640057E-05  2.69544770E-03
 -4.47143104E-04  1.35728013E-03  6.68169124E-04  1.32512221E-02 -3.93775209E-03
  2.51300993E-04  1.62885728E-03  2.34394484E-04 -6.32239252E-04 -3.73755422E-05
 -5.07981228E-04  2.25052938E-04  3.86624831E-05  5.94233493E-05  5.39702934E-04
  1.13371826E-04 -2.33654005E-06  1.22261690E-04 -1.66682913E-05 -1.24205685E-03
 -3.70061298E-05 -6.44868398E-04  1.47848857E-02 -6.48090669E-03  2.39296944E-03
 -6.18972863E-03 -2.12119037E-06  2.01989368E-06 -5.01406515E-05  5.31303005E-05
 -2.98076531E-05  4.34157302E-04  2.56017949E-04 -3.25994695E-04  1.28175246E-04
 -2.58646968E-03  1.24445551E-03  6.90831100E-06 -1.36887632E-04  9.95571559E-01
  3.73436654E-02  9.83396703E-04 -2.18064172E-04  5.74320654E-04 -3.70499731E-02
 -3.46255947E-03  1.00465963E-03 -2.03032455E-03 -1.48995913E-02 -4.71691018E-03
  1.13275646E-03 -1.93218586E-03 -5.22643665E-04  5.65004502E-03 -4.62670500E-04
  5.26986152E-03 -4.28238715E-04  5.62266003E-03  9.95496540E-01  3.77797995E-02
 -3.69847848E-04 -1.55187720E-04  1.36180567E-04 -3.99400039E-02  2.50302088E-03
  3.45419252E-03 -9.33763776E-04 -1.26196965E-02  1.35971042E-03  2.37142775E-03
 -3.79833801E-04 -7.04308332E-04 -7.69129600E-04 -2.92019510E-04 -6.54557239E-04
  5.34415291E-05  5.77796508E-03  4.87237445E-03  7.91957935E-03 -6.63635986E-04
  1.10362322E-02  5.42276107E-04  2.18320682E-03 -5.66085610E-04 -5.00751250E-04
  7.58220278E-03 -5.32117102E-04  6.83919673E-03 -4.40958112E-04  7.98428218E-03
 -1.52447301E-05 -4.04008826E-04 -1.73785754E-04 -5.82547763E-05  1.36177063E-04
  9.09032652E-04  7.42638933E-04 -3.59650719E-04 -9.72155495E-04  7.62389743E-03
  3.18542771E-04  1.20330415E-03 -2.76942059E-03 -1.11451470E-05 -3.05239130E-04
  8.08802632E-05 -8.54094723E-05 -1.45021445E-05  1.09947558E-03 -1.16317658E-03
 -7.83244988E-05  2.24587267E-04  6.16149970E-04  9.76226816E-05  7.24477748E-04
  5.95898963E-04  1.26079594E-05  4.87965500E-04  1.54020777E-06 -5.33375815E-05
  2.86051026E-05 -2.64236026E-03 -1.65346023E-03  4.46126034E-04 -4.01370492E-04
 -1.82982744E-03 -9.19093950E-04  1.99930281E-04  4.05185466E-05  1.46243800E-04
 -9.31595283E-04  4.93923905E-05 -7.16057773E-04  2.01896939E-04 -6.32011196E-04
 -1.83589061E-02  3.75823397E-02 -1.12631065E-02 -2.45470078E-02  1.78887088E-03
 -8.10570914E-03  8.61180381E-03  7.64491237E-03  7.78882370E-05 -1.23046926E-01
  1.12458360E-02  2.83824433E-02  2.27288891E-03 -1.24900995E-01  2.55816218E-01
 -5.43172472E-03 -1.16123459E-01 -3.02557609E-03  5.06378431E-02  9.43619258E-04
  5.87863618E-02 -1.40987731E-04  1.39438772E-01  2.07511192E-02  3.52399054E-02
 -1.03644844E-02  5.92516041E-03  4.19157557E-03  5.77385215E-03  4.10059475E-04
  5.76946520E-03 -3.13468932E-04 -1.26562966E-01  2.71138682E-01  4.53346238E-02
  9.77203323E-03 -6.97268841E-02  2.94063695E-01  2.16597522E-02  5.23397934E-03
 -4.72005831E-02 -4.04116534E-02 -5.83505283E-03 -1.15278970E-02  1.13383910E-02
 -1.37411634E-01  3.01986348E-01 -7.11614908E-02  1.18026319E-01  3.00353952E-02
  2.93003843E-01 -2.88952763E-02  4.40668453E-02  1.17482858E-02 -8.16660781E-03
 -7.76123895E-03 -2.31404320E-03  4.18255752E-03 -3.41983784E-02  6.50518985E-02
  4.00149914E-02 -1.12714236E-02  2.50621378E-02  2.14988575E-02 -5.87484073E-03
  3.43913172E-03 -2.22777992E-03  1.03860794E-02  8.02380928E-03  1.05672590E-03
  5.87291044E-03  1.10810638E-02 -1.65053853E-04  9.40345425E-03  4.94827474E-04
  1.03813000E-02  5.00604110E-03  9.31744477E-04 -6.03992904E-04 -1.00214486E-02
  7.69725343E-03  3.70367827E-03  1.74527580E-03 -2.05823672E-02  4.56741161E-03
  5.70799128E-03 -9.91610780E-02  1.94947508E-02  1.77628012E-02 -2.93396048E-03
  2.74423635E-02 -6.08637309E-02 -1.64783388E-01  1.33438852E-01  6.22030875E-02
  6.75629326E-03  5.53687348E-02 -4.91302051E-02 -2.13521650E-02  8.58983913E-02
  5.25579620E-03  4.03314507E-02 -1.74344030E-03  9.69908358E-04  4.03692656E-03
 -2.01923523E-03  7.67515862E-03  6.53453775E-04  3.77066921E-03 -1.56376875E-01
  3.36961329E-01  3.39797187E-03  3.43416512E-02 -8.01967362E-02  3.90737928E-01
  1.14045506E-02  2.66554708E-02 -5.57771241E-02 -1.27842542E-02  1.48956229E-02
 -2.38020775E-03  6.56422012E-03  1.36915851E-01 -3.01459772E-01  4.70013060E-02
 -1.09019941E-01 -2.13630726E-02 -3.13043936E-01  1.93704395E-02 -4.84162937E-02
 -9.39313901E-03 -3.02244292E-02  4.40415376E-03 -1.99119085E-02 -6.36412926E-04
 -5.62332530E-02  1.05721481E-01  5.91679245E-02 -1.66141948E-02  4.14933215E-02
  5.54375108E-02  1.21744334E-04  1.01299354E-03 -8.76033898E-03  2.62297336E-02
  1.40409649E-02 -5.83873719E-03  5.90587319E-03  1.81244238E-02 -6.51262100E-04
  1.84661723E-02  5.43666860E-03  1.85640158E-02 -7.25596522E-03 -1.67907487E-01
  3.14720060E-01 -2.96434005E-02 -4.04175913E-02  9.72680372E-03  3.26507063E-01
 -1.02828046E-02 -6.70849966E-03  4.62398311E-03  8.91891888E-02 -7.19848831E-03
 -2.26411763E-02 -4.58176197E-04 -7.79775534E-02  1.64220012E-01  6.52105290E-03
  1.83391774E-01  2.21627476E-02  1.26324818E-01  4.86205366E-04  1.89275299E-02
  1.23354798E-03 -3.25012705E-02 -2.92535831E-02 -6.08822266E-03  8.20001434E-03
  1.01632922E-01  5.05923610E-03  9.47594662E-02  3.01059168E-03  1.02566936E-01
  3.15268724E-03  1.66818042E-02 -3.76393233E-02  1.24750892E-01  1.67643115E-02
  2.15468410E-02 -4.74481020E-02  5.33613866E-02  6.19317462E-03  1.27614209E-02
 -2.16880150E-03 -2.24626951E-02 -6.64299160E-04 -2.63543791E-03  4.91928936E-02
 -1.13392605E-01  2.22691738E-02  9.07507360E-03 -2.88350145E-03 -1.24232621E-01
  7.52381845E-03  2.95954168E-03  4.35808672E-05 -1.07253437E-02  5.68946401E-03
 -9.68474007E-03 -1.93886025E-03  7.09428679E-02 -1.39415141E-01 -1.05575815E-02
  1.45605706E-02 -2.25434081E-02 -1.33551577E-01  4.96017913E-03  2.07662640E-03
  1.38025656E-03 -4.97015444E-02 -1.59468343E-02  1.73536297E-03 -8.66651308E-03
 -3.65744628E-02  3.54655210E-03 -4.66066520E-02 -5.38696043E-03 -4.19015129E-02
 -9.12642876E-04 -8.21445439E-02  1.53042122E-01  1.08897992E-02  4.50211764E-03
 -1.05623879E-02  1.74987179E-01  5.16866460E-03 -5.96123716E-03 -3.36728301E-03
  8.43912829E-02 -9.54678298E-03 -1.79490051E-02  4.56696845E-03  2.24893212E-02
 -5.34271703E-02  1.46135165E-01  5.67200033E-02 -7.66862198E-02 -4.79088404E-02
 -4.68089290E-03  1.40099446E-02 -7.20060934E-03 -1.35937950E-01  9.98949553E-03
 -2.13605424E-02 -4.46017377E-03  5.87593563E-02  1.52701563E-02  6.00965378E-02
  6.46694933E-03  5.23778232E-02  4.01188728E-03  4.84553129E-02 -1.09782636E-01
 -2.06161997E-01  4.30205560E-02 -3.15648484E-02 -1.57368821E-01 -9.21120778E-02
  1.47828242E-02 -4.56911936E-03 -3.79528065E-02  3.01154692E-02 -6.03833875E-03
  1.29622681E-02 -1.35282891E-02  2.93094557E-02  3.51145641E-02  1.75898768E-02
 -2.01801996E-02  4.54623684E-02  1.17324643E-02  1.35089249E-02 -6.83344362E-03
  2.33951709E-02 -4.62676195E-04  6.44539055E-03 -2.75782998E-04 -1.63229703E-01
  3.17799430E-01 -2.68050226E-02  9.96320690E-03 -5.29443286E-03  3.48051759E-01
  1.49041343E-03  5.76601998E-03 -7.67946969E-03  7.16377015E-02  1.98472233E-02